<event>
 8    1  0.1088088E+005  0.1043930E+01  0.7957747E-01            NaN
         13   -1    0    0    0    0  0.00000000000E+00  0.00000000000E+00  0.74505805969E-08  0.10566000000E+00  0.10566000000E+00 0.  1.
     999900   -1    0    0    0    0 -0.00000000000E+00 -0.00000000000E+00 -0.74505805969E-08  0.93827000000E+00  0.93827000000E+00 0.  1.
     999902    2    1    2    0    0  0.22134820420E-02 -0.10618356870E-02  0.32620983734E-01  0.10112167675E+01  0.10106874865E+01 0.  0.
     999903    2    3    3    0    0  0.12395293573E-02 -0.45471877825E-01  0.11608213355E+00  0.12615238347E+00  0.19238867416E-01 0.  0.
         14    1    1    2    0    0 -0.22134820420E-02  0.10618356870E-02 -0.32620983734E-01  0.32713232453E-01  0.00000000000E+00 0. -1.
     999901    1    3    3    0    0  0.97395268472E-03  0.44410042138E-01 -0.83461149821E-01  0.88506438407E+00  0.88000000000E+00 0.  1.
        -11    1    4    4    0    0  0.72564128110E-02 -0.39421617768E-01  0.86085181994E-01  0.94961250804E-01  0.51100000000E-03 0. -1.
         11    1    4    4    0    0 -0.60168834537E-02 -0.60502600567E-02  0.29996951561E-01  0.31191132669E-01  0.51100000000E-03 0.  1.
</event>
<event>
 8    1  0.1088088E+005  0.1043930E+01  0.7957747E-01            NaN
         13   -1    0    0    0    0  0.00000000000E+00  0.00000000000E+00  0.74505805969E-08  0.10566000000E+00  0.10566000000E+00 0. -1.
     999900   -1    0    0    0    0 -0.00000000000E+00 -0.00000000000E+00 -0.74505805969E-08  0.93827000000E+00  0.93827000000E+00 0. -1.
     999902    2    1    2    0    0  0.92342405783E-02  0.19571955482E-01 -0.89845587512E-02  0.10204980787E+01  0.10202290300E+01 0.  0.
     999903    2    3    3    0    0 -0.47064169392E-01  0.12161711360E+00  0.11191580400E-01  0.13258490621E+00  0.21160045467E-01 0.  0.
         14    1    1    2    0    0 -0.92342405783E-02 -0.19571955482E-01  0.89845587512E-02  0.23431921313E-01  0.00000000000E+00 0.  1.
     999901    1    3    3    0    0  0.56298409971E-01 -0.10204515811E+00 -0.20176139151E-01  0.88791317247E+00  0.88000000000E+00 0. -1.
        -11    1    4    4    0    0 -0.15868194469E-01  0.49754894482E-01  0.14402776966E-01  0.54176103827E-01  0.51100000000E-03 0. -1.
         11    1    4    4    0    0 -0.31195974924E-01  0.71862219114E-01 -0.32111965661E-02  0.78408802387E-01  0.51100000000E-03 0.  1.
</event>
<event>
 8    1  0.1088088E+005  0.1043930E+01  0.7957747E-01            NaN
         13   -1    0    0    0    0  0.00000000000E+00  0.00000000000E+00  0.74505805969E-08  0.10566000000E+00  0.10566000000E+00 0.  1.
     999900   -1    0    0    0    0 -0.00000000000E+00 -0.00000000000E+00 -0.74505805969E-08  0.93827000000E+00  0.93827000000E+00 0.  1.
     999902    2    1    2    0    0 -0.14169579446E-01 -0.62402113946E-02 -0.19203626694E-01  0.10192622782E+01  0.10189637360E+01 0.  0.
     999903    2    3    3    0    0  0.76228149441E-02  0.38268009481E-01 -0.12416537113E+00  0.13164025394E+00  0.19737507740E-01 0.  0.
         14    1    1    2    0    0  0.14169579446E-01  0.62402113946E-02  0.19203626694E-01  0.24667721786E-01  0.00000000000E+00 0. -1.
     999901    1    3    3    0    0 -0.21792394390E-01 -0.44508220876E-01  0.10496174444E+00  0.88762202427E+00  0.88000000000E+00 0. -1.
        -11    1    4    4    0    0 -0.88056937353E-04  0.10489725938E-01 -0.12569538497E-01  0.16379759562E-01  0.51100000000E-03 0.  1.
         11    1    4    4    0    0  0.77108718815E-02  0.27778283543E-01 -0.11159583264E+00  0.11526049438E+00  0.51100000000E-03 0. -1.
</event>
<event>
 8    1  0.1088088E+005  0.1043930E+01  0.7957747E-01            NaN
         13   -1    0    0    0    0  0.00000000000E+00  0.00000000000E+00  0.74505805969E-08  0.10566000000E+00  0.10566000000E+00 0.  1.
     999900   -1    0    0    0    0 -0.00000000000E+00 -0.00000000000E+00 -0.74505805969E-08  0.93827000000E+00  0.93827000000E+00 0.  1.
     999902    2    1    2    0    0  0.48807887857E-02 -0.20745581619E-01 -0.10726119147E-01  0.10200710208E+01  0.10197919575E+01 0.  0.
     999903    2    3    3    0    0  0.46292576622E-01 -0.12096707706E+00  0.21737541550E-01  0.13282067644E+00  0.19818551807E-01 0.  0.
         14    1    1    2    0    0 -0.48807887857E-02  0.20745581619E-01  0.10726119147E-01  0.23858979187E-01  0.00000000000E+00 0.  1.
     999901    1    3    3    0    0 -0.41411787836E-01  0.10022149544E+00 -0.32463660698E-01  0.88725034437E+00  0.88000000000E+00 0.  1.
        -11    1    4    4    0    0  0.19908315273E-01 -0.52160613971E-01 -0.53306453135E-03  0.55835615387E-01  0.51100000000E-03 0.  1.
         11    1    4    4    0    0  0.26384261349E-01 -0.68806463087E-01  0.22270606082E-01  0.76985061056E-01  0.51100000000E-03 0. -1.
</event>
<event>
 8    1  0.1094516E+005  0.1043930E+01  0.7957747E-01            NaN
         13   -1    0    0    0    0  0.00000000000E+00  0.00000000000E+00  0.74505805969E-08  0.10566000000E+00  0.10566000000E+00 0.  1.
     999900   -1    0    0    0    0 -0.00000000000E+00 -0.00000000000E+00 -0.74505805969E-08  0.93827000000E+00  0.93827000000E+00 0.  1.
     999902    2    1    2    0    0 -0.95549777476E-02  0.33997536810E-02 -0.20749853596E-01  0.10208342786E+01  0.10205729822E+01 0.  0.
     999903    2    3    3    0    0  0.11464782410E+00  0.52148521493E-01  0.23018585354E-01  0.12970103678E+00  0.20710185986E-01 0.  0.
         14    1    1    2    0    0  0.95549777476E-02 -0.33997536810E-02  0.20749853596E-01  0.23095721446E-01  0.00000000000E+00 0.  1.
     999901    1    3    3    0    0 -0.12420280185E+00 -0.48748767812E-01 -0.43768438950E-01  0.89113324178E+00  0.88000000000E+00 0. -1.
        -11    1    4    4    0    0  0.67653784579E-01  0.32522270275E-01  0.23849029645E-01  0.78764014421E-01  0.51100000000E-03 0. -1.
         11    1    4    4    0    0  0.46994039526E-01  0.19626251218E-01 -0.83044429086E-03  0.50937022357E-01  0.51100000000E-03 0.  1.
</event>
<event>
 8    1  0.1088088E+005  0.1043930E+01  0.7957747E-01            NaN
         13   -1    0    0    0    0  0.00000000000E+00  0.00000000000E+00  0.74505805969E-08  0.10566000000E+00  0.10566000000E+00 0. -1.
     999900   -1    0    0    0    0 -0.00000000000E+00 -0.00000000000E+00 -0.74505805969E-08  0.93827000000E+00  0.93827000000E+00 0.  1.
     999902    2    1    2    0    0  0.13072082685E-01  0.73377139557E-02 -0.19212737022E-01  0.10195609488E+01  0.10192696786E+01 0.  0.
     999903    2    3    3    0    0  0.98607195511E-01  0.69720277805E-01 -0.51181880674E-01  0.13263938185E+00  0.19731309244E-01 0.  0.
         14    1    1    2    0    0 -0.13072082685E-01 -0.73377139557E-02  0.19212737022E-01  0.24369051186E-01  0.00000000000E+00 0. -1.
     999901    1    3    3    0    0 -0.85535112826E-01 -0.62382563850E-01  0.31969143652E-01  0.88692156696E+00  0.88000000000E+00 0. -1.
        -11    1    4    4    0    0  0.30026926363E-01  0.27621405843E-01 -0.90057351357E-02  0.41784240497E-01  0.51100000000E-03 0. -1.
         11    1    4    4    0    0  0.68580269148E-01  0.42098871963E-01 -0.42176145539E-01  0.90855141354E-01  0.51100000000E-03 0.  1.
</event>
<event>
 8    1  0.1088088E+005  0.1043930E+01  0.7957747E-01            NaN
         13   -1    0    0    0    0  0.00000000000E+00  0.00000000000E+00  0.74505805969E-08  0.10566000000E+00  0.10566000000E+00 0.  1.
     999900   -1    0    0    0    0 -0.00000000000E+00 -0.00000000000E+00 -0.74505805969E-08  0.93827000000E+00  0.93827000000E+00 0.  1.
     999902    2    1    2    0    0  0.22191054954E-01 -0.49605601646E-02  0.26121337698E-02  0.10210417209E+01  0.10207851500E+01 0.  0.
     999903    2    3    3    0    0 -0.70726960449E-01  0.67195664490E-02 -0.10694879593E+00  0.12931655009E+00  0.15403560249E-01 0.  0.
         14    1    1    2    0    0 -0.22191054954E-01  0.49605601646E-02 -0.26121337698E-02  0.22888279096E-01  0.00000000000E+00 0.  1.
     999901    1    3    3    0    0  0.92918015403E-01 -0.11680126614E-01  0.10956092970E+00  0.89172517081E+00  0.88000000000E+00 0. -1.
        -11    1    4    4    0    0 -0.26436361430E-01 -0.49275086763E-02 -0.39380890788E-01  0.47689382756E-01  0.51100000000E-03 0.  1.
         11    1    4    4    0    0 -0.44290599019E-01  0.11647075125E-01 -0.67567905146E-01  0.81627167335E-01  0.51100000000E-03 0. -1.
</event>
<event>
 8    1  0.1088088E+005  0.1043930E+01  0.7957747E-01            NaN
         13   -1    0    0    0    0  0.00000000000E+00  0.00000000000E+00  0.74505805969E-08  0.10566000000E+00  0.10566000000E+00 0.  1.
     999900   -1    0    0    0    0 -0.00000000000E+00 -0.00000000000E+00 -0.74505805969E-08  0.93827000000E+00  0.93827000000E+00 0.  1.
     999902    2    1    2    0    0 -0.19061016271E-01  0.33290342280E-02  0.13989151597E-01  0.10200532085E+01  0.10197737234E+01 0.  0.
     999903    2    3    3    0    0 -0.56957103848E-01 -0.35931720869E-01  0.11275743451E+00  0.13284821862E+00  0.19980237971E-01 0.  0.
         14    1    1    2    0    0  0.19061016271E-01 -0.33290342280E-02 -0.13989151597E-01  0.23876791505E-01  0.00000000000E+00 0. -1.
     999901    1    3    3    0    0  0.37896087577E-01  0.39260755097E-01 -0.98768282918E-01  0.88720498987E+00  0.88000000000E+00 0. -1.
        -11    1    4    4    0    0 -0.21763393570E-01 -0.17808846800E-01  0.30078751441E-01  0.41180004047E-01  0.51100000000E-03 0. -1.
         11    1    4    4    0    0 -0.35193710278E-01 -0.18122874070E-01  0.82678683074E-01  0.91668214576E-01  0.51100000000E-03 0.  1.
</event>
<event>
 8    1  0.1088088E+005  0.1043930E+01  0.7957747E-01            NaN
         13   -1    0    0    0    0  0.00000000000E+00  0.00000000000E+00  0.74505805969E-08  0.10566000000E+00  0.10566000000E+00 0.  1.
     999900   -1    0    0    0    0 -0.00000000000E+00 -0.00000000000E+00 -0.74505805969E-08  0.93827000000E+00  0.93827000000E+00 0. -1.
     999902    2    1    2    0    0 -0.24175501550E-01  0.69589253448E-02  0.30804552697E-02  0.10185849665E+01  0.10182695926E+01 0.  0.
     999903    2    3    3    0    0 -0.80120723471E-01 -0.79734732923E-01  0.62233218331E-01  0.13058456809E+00  0.20059860322E-01 0.  0.
         14    1    1    2    0    0  0.24175501550E-01 -0.69589253448E-02 -0.30804552697E-02  0.25345033475E-01  0.00000000000E+00 0.  1.
     999901    1    3    3    0    0  0.55945221920E-01  0.86693658268E-01 -0.59152763062E-01  0.88800039843E+00  0.88000000000E+00 0. -1.
        -11    1    4    4    0    0 -0.14459502221E-01 -0.84671625151E-02  0.30605867162E-02  0.17041078534E-01  0.51100000000E-03 0. -1.
         11    1    4    4    0    0 -0.65661221249E-01 -0.71267570408E-01  0.59172631615E-01  0.11354348956E+00  0.51100000000E-03 0.  1.
</event>
<event>
 8    1  0.1088088E+005  0.1043930E+01  0.7957747E-01            NaN
         13   -1    0    0    0    0  0.00000000000E+00  0.00000000000E+00  0.74505805969E-08  0.10566000000E+00  0.10566000000E+00 0.  1.
     999900   -1    0    0    0    0 -0.00000000000E+00 -0.00000000000E+00 -0.74505805969E-08  0.93827000000E+00  0.93827000000E+00 0.  1.
     999902    2    1    2    0    0  0.94751157882E-02  0.62817046339E-02 -0.22401116195E-01  0.10188093384E+01  0.10184995927E+01 0.  0.
     999903    2    3    3    0    0  0.11695825021E+00  0.22700027951E-01  0.46538692518E-01  0.12944165136E+00  0.19868760505E-01 0.  0.
         14    1    1    2    0    0 -0.94751157882E-02 -0.62817046339E-02  0.22401116195E-01  0.25120661597E-01  0.00000000000E+00 0.  1.
     999901    1    3    3    0    0 -0.10748313443E+00 -0.16418323317E-01 -0.68939808712E-01  0.88936768704E+00  0.88000000000E+00 0.  1.
        -11    1    4    4    0    0  0.11150749435E+00  0.24212033204E-01  0.47646266688E-01  0.12365505125E+00  0.51100000000E-03 0.  1.
         11    1    4    4    0    0  0.54507558627E-02 -0.15120052529E-02 -0.11075741704E-02  0.57866001160E-02  0.51100000000E-03 0. -1.
</event>
<event>
 8    1  0.1088088E+005  0.1043930E+01  0.7957747E-01            NaN
         13   -1    0    0    0    0  0.00000000000E+00  0.00000000000E+00  0.74505805969E-08  0.10566000000E+00  0.10566000000E+00 0.  1.
     999900   -1    0    0    0    0 -0.00000000000E+00 -0.00000000000E+00 -0.74505805969E-08  0.93827000000E+00  0.93827000000E+00 0.  1.
     999902    2    1    2    0    0 -0.10698805195E-01  0.10589467326E-01 -0.18344356601E-01  0.10201999206E+01  0.10199238997E+01 0.  0.
     999903    2    3    3    0    0 -0.10045680218E+00 -0.76531027853E-01  0.25472024732E-01  0.13027500577E+00  0.19343881619E-01 0.  0.
         14    1    1    2    0    0  0.10698805195E-01 -0.10589467326E-01  0.18344356601E-01  0.23730079434E-01  0.00000000000E+00 0. -1.
     999901    1    3    3    0    0  0.89757996983E-01  0.87120495179E-01 -0.43816381333E-01  0.88992491480E+00  0.88000000000E+00 0.  1.
        -11    1    4    4    0    0 -0.47624995040E-01 -0.42022154371E-01  0.40980655882E-02  0.63647913344E-01  0.51100000000E-03 0.  1.
         11    1    4    4    0    0 -0.52831807138E-01 -0.34508873482E-01  0.21373959144E-01  0.66627092425E-01  0.51100000000E-03 0. -1.
</event>
<event>
 8    1  0.1088088E+005  0.1043930E+01  0.7957747E-01            NaN
         13   -1    0    0    0    0  0.00000000000E+00  0.00000000000E+00  0.74505805969E-08  0.10566000000E+00  0.10566000000E+00 0.  1.
     999900   -1    0    0    0    0 -0.00000000000E+00 -0.00000000000E+00 -0.74505805969E-08  0.93827000000E+00  0.93827000000E+00 0.  1.
     999902    2    1    2    0    0 -0.30317253218E-02  0.20208029102E-02  0.23664053216E-01  0.10199871009E+01  0.10197060476E+01 0.  0.
     999903    2    3    3    0    0  0.59031936716E-01 -0.56201675631E-01  0.10020490295E+00  0.13257498872E+00  0.29861466204E-01 0.  0.
         14    1    1    2    0    0  0.30317253218E-02 -0.20208029102E-02 -0.23664053216E-01  0.23942899103E-01  0.00000000000E+00 0. -1.
     999901    1    3    3    0    0 -0.62063662038E-01  0.58222478541E-01 -0.76540849734E-01  0.88741211217E+00  0.88000000000E+00 0.  1.
        -11    1    4    4    0    0  0.33874393734E-01 -0.30719163763E-01  0.32903946770E-01  0.56338906691E-01  0.51100000000E-03 0.  1.
         11    1    4    4    0    0  0.25157542983E-01 -0.25482511868E-01  0.67300956180E-01  0.76236082033E-01  0.51100000000E-03 0. -1.
</event>
<event>
 8    1  0.1088088E+005  0.1043930E+01  0.7957747E-01            NaN
         13   -1    0    0    0    0  0.00000000000E+00  0.00000000000E+00  0.74505805969E-08  0.10566000000E+00  0.10566000000E+00 0. -1.
     999900   -1    0    0    0    0 -0.00000000000E+00 -0.00000000000E+00 -0.74505805969E-08  0.93827000000E+00  0.93827000000E+00 0. -1.
     999902    2    1    2    0    0  0.11741311230E-01  0.62138151922E-02 -0.18115372812E-01  0.10214658815E+01  0.10212188357E+01 0.  0.
     999903    2    3    3    0    0 -0.92294749116E-01 -0.12719679764E-01  0.86898129533E-01  0.12893587372E+00  0.19825832841E-01 0.  0.
         14    1    1    2    0    0 -0.11741311230E-01 -0.62138151922E-02  0.18115372812E-01  0.22464118517E-01  0.00000000000E+00 0. -1.
     999901    1    3    3    0    0  0.10403606035E+00  0.18933494956E-01 -0.10501350234E+00  0.89253000776E+00  0.88000000000E+00 0. -1.
        -11    1    4    4    0    0 -0.21082882843E-01 -0.11318356514E-01  0.24347620650E-01  0.34141776396E-01  0.51100000000E-03 0. -1.
         11    1    4    4    0    0 -0.71211866273E-01 -0.14013232503E-02  0.62550508882E-01  0.94794097323E-01  0.51100000000E-03 0.  1.
</event>
<event>
 8    1  0.1088088E+005  0.1043930E+01  0.7957747E-01            NaN
         13   -1    0    0    0    0  0.00000000000E+00  0.00000000000E+00  0.74505805969E-08  0.10566000000E+00  0.10566000000E+00 0. -1.
     999900   -1    0    0    0    0 -0.00000000000E+00 -0.00000000000E+00 -0.74505805969E-08  0.93827000000E+00  0.93827000000E+00 0. -1.
     999902    2    1    2    0    0  0.99879185728E-02 -0.97165464542E-02 -0.18459235028E-01  0.10208018105E+01  0.10205397705E+01 0.  0.
     999903    2    3    3    0    0  0.64887516952E-01  0.78079210568E-01  0.78034943910E-01  0.12949199486E+00  0.19286557070E-01 0.  0.
         14    1    1    2    0    0 -0.99879185728E-02  0.97165464542E-02  0.18459235028E-01  0.23128189515E-01  0.00000000000E+00 0. -1.
     999901    1    3    3    0    0 -0.54899598379E-01 -0.87795757022E-01 -0.96494178938E-01  0.89130981562E+00  0.88000000000E+00 0. -1.
        -11    1    4    4    0    0  0.19336013637E-01  0.12326929147E-01  0.12756194237E-01  0.26245308495E-01  0.51100000000E-03 0. -1.
         11    1    4    4    0    0  0.45551503315E-01  0.65752281421E-01  0.65278749673E-01  0.10324668637E+00  0.51100000000E-03 0.  1.
</event>
<event>
 8    1  0.1088088E+005  0.1043930E+01  0.7957747E-01            NaN
         13   -1    0    0    0    0  0.00000000000E+00  0.00000000000E+00  0.74505805969E-08  0.10566000000E+00  0.10566000000E+00 0. -1.
     999900   -1    0    0    0    0 -0.00000000000E+00 -0.00000000000E+00 -0.74505805969E-08  0.93827000000E+00  0.93827000000E+00 0.  1.
     999902    2    1    2    0    0  0.12881628184E-01 -0.18857379100E-01  0.35635677107E-02  0.10208164519E+01  0.10205547474E+01 0.  0.
     999903    2    3    3    0    0 -0.17454377921E-02 -0.10835993333E+00  0.75644693968E-01  0.13322400768E+00  0.16780786390E-01 0.  0.
         14    1    1    2    0    0 -0.12881628184E-01  0.18857379100E-01 -0.35635677107E-02  0.23113548106E-01  0.00000000000E+00 0. -1.
     999901    1    3    3    0    0  0.14627065976E-01  0.89502554227E-01 -0.72081126257E-01  0.88759244422E+00  0.88000000000E+00 0.  1.
        -11    1    4    4    0    0  0.87724128014E-04 -0.52038934580E-01  0.26248946273E-01  0.58286591161E-01  0.51100000000E-03 0.  1.
         11    1    4    4    0    0 -0.18331619201E-02 -0.56320998747E-01  0.49395747695E-01  0.74937416515E-01  0.51100000000E-03 0. -1.
</event>
<event>
 8    1  0.1088088E+005  0.1043930E+01  0.7957747E-01            NaN
         13   -1    0    0    0    0  0.00000000000E+00  0.00000000000E+00  0.74505805969E-08  0.10566000000E+00  0.10566000000E+00 0. -1.
     999900   -1    0    0    0    0 -0.00000000000E+00 -0.00000000000E+00 -0.74505805969E-08  0.93827000000E+00  0.93827000000E+00 0. -1.
     999902    2    1    2    0    0 -0.20351074483E-02  0.20110367500E-01 -0.11871974577E-01  0.10204883208E+01  0.10202190454E+01 0.  0.
     999903    2    3    3    0    0  0.59072957796E-01  0.44267429154E-01  0.10547217929E+00  0.13027070150E+00  0.19921230837E-01 0.  0.
         14    1    1    2    0    0  0.20351074483E-02 -0.20110367500E-01  0.11871974577E-01  0.23441679199E-01  0.00000000000E+00 0. -1.
     999901    1    3    3    0    0 -0.61108065245E-01 -0.24157061653E-01 -0.11734415387E+00  0.89021761930E+00  0.88000000000E+00 0.  1.
        -11    1    4    4    0    0  0.21152065937E-01  0.27678856663E-01  0.43237788055E-01  0.55527438591E-01  0.51100000000E-03 0. -1.
         11    1    4    4    0    0  0.37920891859E-01  0.16588572490E-01  0.62234391237E-01  0.74743262909E-01  0.51100000000E-03 0.  1.
</event>
<event>
 8    1  0.1088088E+005  0.1043930E+01  0.7957747E-01            NaN
         13   -1    0    0    0    0  0.00000000000E+00  0.00000000000E+00  0.74505805969E-08  0.10566000000E+00  0.10566000000E+00 0. -1.
     999900   -1    0    0    0    0 -0.00000000000E+00 -0.00000000000E+00 -0.74505805969E-08  0.93827000000E+00  0.93827000000E+00 0. -1.
     999902    2    1    2    0    0 -0.18445080361E-02 -0.23496331292E-01  0.73174861615E-02  0.10192515601E+01  0.10189527552E+01 0.  0.
     999903    2    3    3    0    0  0.46721748620E-01  0.48674988817E-01 -0.10659449607E+00  0.12765561995E+00  0.19529321090E-01 0.  0.
         14    1    1    2    0    0  0.18445080361E-02  0.23496331292E-01 -0.73174861615E-02  0.24678439939E-01  0.00000000000E+00 0. -1.
     999901    1    3    3    0    0 -0.48566256656E-01 -0.72171320109E-01  0.11391198223E+00  0.89159594011E+00  0.88000000000E+00 0.  1.
        -11    1    4    4    0    0  0.25923110451E-01  0.13675456709E-01 -0.49532149354E-01  0.57556239560E-01  0.51100000000E-03 0.  1.
         11    1    4    4    0    0  0.20798638169E-01  0.34999532108E-01 -0.57062346711E-01  0.70099380387E-01  0.51100000000E-03 0. -1.
</event>
<event>
 8    1  0.1088088E+005  0.1043930E+01  0.7957747E-01            NaN
         13   -1    0    0    0    0  0.00000000000E+00  0.00000000000E+00  0.74505805969E-08  0.10566000000E+00  0.10566000000E+00 0. -1.
     999900   -1    0    0    0    0 -0.00000000000E+00 -0.00000000000E+00 -0.74505805969E-08  0.93827000000E+00  0.93827000000E+00 0.  1.
     999902    2    1    2    0    0 -0.97453799660E-02  0.18627702442E-01 -0.11055163794E-01  0.10201775185E+01  0.10199009702E+01 0.  0.
     999903    2    3    3    0    0 -0.26690888689E-02  0.75402505163E-01 -0.10767513516E+00  0.13304231408E+00  0.20338652484E-01 0.  0.
         14    1    1    2    0    0  0.97453799660E-02 -0.18627702442E-01  0.11055163794E-01  0.23752481459E-01  0.00000000000E+00 0. -1.
     999901    1    3    3    0    0 -0.70762910971E-02 -0.56774802721E-01  0.96619971365E-01  0.88713520446E+00  0.88000000000E+00 0. -1.
        -11    1    4    4    0    0 -0.70576496555E-03  0.32997403975E-01 -0.64700483847E-01  0.72634292895E-01  0.51100000000E-03 0.  1.
         11    1    4    4    0    0 -0.19633239033E-02  0.42405101189E-01 -0.42974651312E-01  0.60408021189E-01  0.51100000000E-03 0. -1.
</event>
<event>
 8    1  0.1136263E+005  0.1043930E+01  0.7957747E-01            NaN
         13   -1    0    0    0    0  0.00000000000E+00  0.00000000000E+00  0.74505805969E-08  0.10566000000E+00  0.10566000000E+00 0.  1.
     999900   -1    0    0    0    0 -0.00000000000E+00 -0.00000000000E+00 -0.74505805969E-08  0.93827000000E+00  0.93827000000E+00 0. -1.
     999902    2    1    2    0    0 -0.19173645664E-01 -0.12719644020E-01 -0.25891918014E-03  0.10209194574E+01  0.10206601067E+01 0.  0.
     999903    2    3    3    0    0 -0.99804728148E-01 -0.27144498056E-01 -0.81762943979E-01  0.13336531598E+00  0.20082852459E-01 0.  0.
         14    1    1    2    0    0  0.19173645664E-01  0.12719644020E-01  0.25891918014E-03  0.23010542610E-01  0.00000000000E+00 0.  1.
     999901    1    3    3    0    0  0.80631082484E-01  0.14424854036E-01  0.81504024799E-01  0.88755414141E+00  0.88000000000E+00 0.  1.
        -11    1    4    4    0    0 -0.76265871616E-01 -0.18825065699E-01 -0.50644316167E-01  0.93466433295E-01  0.51100000000E-03 0. -1.
         11    1    4    4    0    0 -0.23538856532E-01 -0.83194323566E-02 -0.31118627812E-01  0.39898882684E-01  0.51100000000E-03 0.  1.
</event>
<event>
 8    1  0.1088088E+005  0.1043930E+01  0.7957747E-01            NaN
         13   -1    0    0    0    0  0.00000000000E+00  0.00000000000E+00  0.74505805969E-08  0.10566000000E+00  0.10566000000E+00 0. -1.
     999900   -1    0    0    0    0 -0.00000000000E+00 -0.00000000000E+00 -0.74505805969E-08  0.93827000000E+00  0.93827000000E+00 0.  1.
     999902    2    1    2    0    0  0.60174403969E-02 -0.13325934539E-01 -0.18130185513E-01  0.10206385048E+01  0.10203727083E+01 0.  0.
     999903    2    3    3    0    0 -0.21775276156E-01  0.11181345991E+00 -0.60576030563E-01  0.13033858183E+00  0.18500755874E-01 0.  0.
         14    1    1    2    0    0 -0.60174403969E-02  0.13325934539E-01  0.18130185513E-01  0.23291495165E-01  0.00000000000E+00 0. -1.
     999901    1    3    3    0    0  0.27792716553E-01 -0.12513939444E+00  0.42445845050E-01  0.89029992300E+00  0.88000000000E+00 0.  1.
        -11    1    4    4    0    0 -0.18269825334E-01  0.75022969088E-01 -0.31851735749E-01  0.83528597497E-01  0.51100000000E-03 0.  1.
         11    1    4    4    0    0 -0.35054508218E-02  0.36790490817E-01 -0.28724294814E-01  0.46809984337E-01  0.51100000000E-03 0. -1.
</event>
<event>
 8    1  0.1088088E+005  0.1043930E+01  0.7957747E-01            NaN
         13   -1    0    0    0    0  0.00000000000E+00  0.00000000000E+00  0.74505805969E-08  0.10566000000E+00  0.10566000000E+00 0.  1.
     999900   -1    0    0    0    0 -0.00000000000E+00 -0.00000000000E+00 -0.74505805969E-08  0.93827000000E+00  0.93827000000E+00 0. -1.
     999902    2    1    2    0    0  0.44035849531E-02 -0.14366686108E-01 -0.18345896658E-01  0.10202157605E+01  0.10199401124E+01 0.  0.
     999903    2    3    3    0    0  0.66831368953E-01  0.86323944609E-01 -0.69161897044E-01  0.13082377875E+00  0.20328251165E-01 0.  0.
         14    1    1    2    0    0 -0.44035849531E-02  0.14366686108E-01  0.18345896658E-01  0.23714239484E-01  0.00000000000E+00 0.  1.
     999901    1    3    3    0    0 -0.62427783999E-01 -0.10069063072E+00  0.50816000386E-01  0.88939198176E+00  0.88000000000E+00 0. -1.
        -11    1    4    4    0    0  0.56603185468E-01  0.82293195228E-01 -0.64321830796E-01  0.11880088225E+00  0.51100000000E-03 0.  1.
         11    1    4    4    0    0  0.10228183485E-01  0.40307493814E-02 -0.48400662474E-02  0.12022896500E-01  0.51100000000E-03 0. -1.
</event>
<event>
 8    1  0.1088088E+005  0.1043930E+01  0.7957747E-01            NaN
         13   -1    0    0    0    0  0.00000000000E+00  0.00000000000E+00  0.74505805969E-08  0.10566000000E+00  0.10566000000E+00 0.  1.
     999900   -1    0    0    0    0 -0.00000000000E+00 -0.00000000000E+00 -0.74505805969E-08  0.93827000000E+00  0.93827000000E+00 0.  1.
     999902    2    1    2    0    0 -0.11764561848E-01 -0.19741909215E-01 -0.39662091516E-02  0.10206087927E+01  0.10203423097E+01 0.  0.
     999903    2    3    3    0    0 -0.41343254365E-02 -0.13151356046E+00  0.96891873167E-02  0.13340104229E+00  0.19724312466E-01 0.  0.
         14    1    1    2    0    0  0.11764561848E-01  0.19741909215E-01  0.39662091516E-02  0.23321207301E-01  0.00000000000E+00 0. -1.
     999901    1    3    3    0    0 -0.76302364119E-02  0.11177165125E+00 -0.13655396468E-01  0.88720775041E+00  0.88000000000E+00 0.  1.
        -11    1    4    4    0    0 -0.85411765694E-02 -0.52079563509E-01 -0.28808892947E-02  0.52856345660E-01  0.51100000000E-03 0.  1.
         11    1    4    4    0    0  0.44068511329E-02 -0.79433996951E-01  0.12570076611E-01  0.80544696632E-01  0.51100000000E-03 0. -1.
</event>
<event>
 8    1  0.1088088E+005  0.1043930E+01  0.7957747E-01            NaN
         13   -1    0    0    0    0  0.00000000000E+00  0.00000000000E+00  0.74505805969E-08  0.10566000000E+00  0.10566000000E+00 0.  1.
     999900   -1    0    0    0    0 -0.00000000000E+00 -0.00000000000E+00 -0.74505805969E-08  0.93827000000E+00  0.93827000000E+00 0. -1.
     999902    2    1    2    0    0  0.22318362373E-01  0.26686109877E-02 -0.71444747558E-02  0.10203445319E+01  0.10200719041E+01 0.  0.
     999903    2    3    3    0    0 -0.57990736020E-01  0.11364893258E+00  0.11666501850E-01  0.12954711620E+00  0.19166186609E-01 0.  0.
         14    1    1    2    0    0 -0.22318362373E-01 -0.26686109877E-02  0.71444747558E-02  0.23585468050E-01  0.00000000000E+00 0. -1.
     999901    1    3    3    0    0  0.80309098393E-01 -0.11098032159E+00 -0.18810976606E-01  0.89079741575E+00  0.88000000000E+00 0. -1.
        -11    1    4    4    0    0 -0.48187252807E-01  0.81964076868E-01  0.24200345681E-02  0.95111718091E-01  0.51100000000E-03 0.  1.
         11    1    4    4    0    0 -0.98034832127E-02  0.31684855714E-01  0.92464672817E-02  0.34435398109E-01  0.51100000000E-03 0. -1.
</event>
<event>
 8    1  0.1088088E+005  0.1043930E+01  0.7957747E-01            NaN
         13   -1    0    0    0    0  0.00000000000E+00  0.00000000000E+00  0.74505805969E-08  0.10566000000E+00  0.10566000000E+00 0. -1.
     999900   -1    0    0    0    0 -0.00000000000E+00 -0.00000000000E+00 -0.74505805969E-08  0.93827000000E+00  0.93827000000E+00 0.  1.
     999902    2    1    2    0    0 -0.19745691044E-01  0.50406638542E-02 -0.11634374191E-01  0.10204638697E+01  0.10201940257E+01 0.  0.
     999903    2    3    3    0    0  0.10386299269E+00 -0.45425159943E-01  0.55968494208E-01  0.12782953593E+00  0.18893160306E-01 0.  0.
         14    1    1    2    0    0  0.19745691044E-01 -0.50406638542E-02  0.11634374191E-01  0.23466130267E-01  0.00000000000E+00 0. -1.
     999901    1    3    3    0    0 -0.12360868373E+00  0.50465823797E-01 -0.67602868399E-01  0.89263433380E+00  0.88000000000E+00 0.  1.
        -11    1    4    4    0    0  0.80928232927E-01 -0.42241572466E-01  0.49178961728E-01  0.10369455495E+00  0.51100000000E-03 0.  1.
         11    1    4    4    0    0  0.22934759762E-01 -0.31835874772E-02  0.67895324798E-02  0.24134980979E-01  0.51100000000E-03 0. -1.
</event>
<event>
 8    1  0.1088088E+005  0.1043930E+01  0.7957747E-01            NaN
         13   -1    0    0    0    0  0.00000000000E+00  0.00000000000E+00  0.74505805969E-08  0.10566000000E+00  0.10566000000E+00 0. -1.
     999900   -1    0    0    0    0 -0.00000000000E+00 -0.00000000000E+00 -0.74505805969E-08  0.93827000000E+00  0.93827000000E+00 0. -1.
     999902    2    1    2    0    0  0.12095599309E-01  0.79000968439E-03 -0.21368515662E-01  0.10193629265E+01  0.10190668451E+01 0.  0.
     999903    2    3    3    0    0 -0.22285801229E-01  0.91089201739E-01 -0.89997695682E-01  0.13141811453E+00  0.19422563880E-01 0.  0.
         14    1    1    2    0    0 -0.12095599309E-01 -0.79000968439E-03  0.21368515662E-01  0.24567073484E-01  0.00000000000E+00 0. -1.
     999901    1    3    3    0    0  0.34381400539E-01 -0.90299192055E-01  0.68629180020E-01  0.88794481199E+00  0.88000000000E+00 0.  1.
        -11    1    4    4    0    0  0.14664471383E-02  0.26094716735E-01 -0.19334617600E-01  0.32514201012E-01  0.51100000000E-03 0.  1.
         11    1    4    4    0    0 -0.23752248368E-01  0.64994485004E-01 -0.70663078082E-01  0.98903913515E-01  0.51100000000E-03 0. -1.
</event>
<event>
 8    1  0.1088088E+005  0.1043930E+01  0.7957747E-01            NaN
         13   -1    0    0    0    0  0.00000000000E+00  0.00000000000E+00  0.74505805969E-08  0.10566000000E+00  0.10566000000E+00 0. -1.
     999900   -1    0    0    0    0 -0.00000000000E+00 -0.00000000000E+00 -0.74505805969E-08  0.93827000000E+00  0.93827000000E+00 0.  1.
     999902    2    1    2    0    0 -0.10129174986E-01 -0.21062556572E-01  0.27583302287E-02  0.10203961975E+01  0.10201247767E+01 0.  0.
     999903    2    3    3    0    0 -0.10845260252E+00  0.35541099271E-01  0.61070847720E-01  0.13119890782E+00  0.21409536192E-01 0.  0.
         14    1    1    2    0    0  0.10129174986E-01  0.21062556572E-01 -0.27583302287E-02  0.23533802516E-01  0.00000000000E+00 0.  1.
     999901    1    3    3    0    0  0.98323427534E-01 -0.56603655843E-01 -0.58312517491E-01  0.88919728967E+00  0.88000000000E+00 0.  1.
        -11    1    4    4    0    0 -0.77326522940E-01  0.35036328918E-01  0.42386900059E-01  0.94888597374E-01  0.51100000000E-03 0. -1.
         11    1    4    4    0    0 -0.31126079580E-01  0.50477035325E-03  0.18683947661E-01  0.36310310442E-01  0.51100000000E-03 0.  1.
</event>
<event>
 8    1  0.1088088E+005  0.1043930E+01  0.7957747E-01            NaN
         13   -1    0    0    0    0  0.00000000000E+00  0.00000000000E+00  0.74505805969E-08  0.10566000000E+00  0.10566000000E+00 0.  1.
     999900   -1    0    0    0    0 -0.00000000000E+00 -0.00000000000E+00 -0.74505805969E-08  0.93827000000E+00  0.93827000000E+00 0.  1.
     999902    2    1    2    0    0  0.10079512919E-01  0.85015859462E-02 -0.20084853241E-01  0.10199034548E+01  0.10196204109E+01 0.  0.
     999903    2    3    3    0    0 -0.12104978346E+00  0.30799527532E-02 -0.42782981502E-01  0.12988126885E+00  0.19396502445E-01 0.  0.
         14    1    1    2    0    0 -0.10079512919E-01 -0.85015859462E-02  0.20084853241E-01  0.24026545195E-01  0.00000000000E+00 0. -1.
     999901    1    3    3    0    0  0.13112929637E+00  0.54216331931E-02  0.22698128261E-01  0.89002218596E+00  0.88000000000E+00 0. -1.
        -11    1    4    4    0    0 -0.98060556281E-01 -0.51605369107E-02 -0.34858245320E-01  0.10420106634E+00  0.51100000000E-03 0.  1.
         11    1    4    4    0    0 -0.22989227175E-01  0.82404896639E-02 -0.79247361820E-02  0.25680202502E-01  0.51100000000E-03 0. -1.
</event>
<event>
 8    1  0.1088088E+005  0.1043930E+01  0.7957747E-01            NaN
         13   -1    0    0    0    0  0.00000000000E+00  0.00000000000E+00  0.74505805969E-08  0.10566000000E+00  0.10566000000E+00 0. -1.
     999900   -1    0    0    0    0 -0.00000000000E+00 -0.00000000000E+00 -0.74505805969E-08  0.93827000000E+00  0.93827000000E+00 0.  1.
     999902    2    1    2    0    0 -0.14121720211E-01 -0.12860253113E-01 -0.12645502030E-01  0.10210232802E+01  0.10207662910E+01 0.  0.
     999903    2    3    3    0    0 -0.10366089108E+00  0.75379775182E-01 -0.23522276456E-01  0.13202279089E+00  0.21190303888E-01 0.  0.
         14    1    1    2    0    0  0.14121720211E-01  0.12860253113E-01  0.12645502030E-01  0.22906719832E-01  0.00000000000E+00 0.  1.
     999901    1    3    3    0    0  0.89539170869E-01 -0.88240028296E-01  0.10876774426E-01  0.88900048928E+00  0.88000000000E+00 0. -1.
        -11    1    4    4    0    0 -0.41098239381E-01  0.23964871372E-01  0.41152791005E-03  0.47579520976E-01  0.51100000000E-03 0.  1.
         11    1    4    4    0    0 -0.62562651699E-01  0.51414903810E-01 -0.23933804366E-01  0.84443269915E-01  0.51100000000E-03 0. -1.
</event>
<event>
 8    1  0.1088088E+005  0.1043930E+01  0.7957747E-01            NaN
         13   -1    0    0    0    0  0.00000000000E+00  0.00000000000E+00  0.74505805969E-08  0.10566000000E+00  0.10566000000E+00 0.  1.
     999900   -1    0    0    0    0 -0.00000000000E+00 -0.00000000000E+00 -0.74505805969E-08  0.93827000000E+00  0.93827000000E+00 0. -1.
     999902    2    1    2    0    0 -0.75719088776E-02  0.27125516118E-02  0.23967649483E-01  0.10186487824E+01  0.10183350146E+01 0.  0.
     999903    2    3    3    0    0 -0.53434719036E-01 -0.63414611847E-01  0.10045440027E+00  0.13167278379E+00  0.19234169215E-01 0.  0.
         14    1    1    2    0    0  0.75719088776E-02 -0.27125516118E-02 -0.23967649483E-01  0.25281217574E-01  0.00000000000E+00 0. -1.
     999901    1    3    3    0    0  0.45862810159E-01  0.66127163458E-01 -0.76486750783E-01  0.88697599863E+00  0.88000000000E+00 0.  1.
        -11    1    4    4    0    0 -0.54092135197E-02 -0.44923544734E-02  0.18959914324E-01  0.20228205847E-01  0.51100000000E-03 0.  1.
         11    1    4    4    0    0 -0.48025505517E-01 -0.58922257373E-01  0.81494485942E-01  0.11144457795E+00  0.51100000000E-03 0. -1.
</event>
<event>
 8    1  0.1088088E+005  0.1043930E+01  0.7957747E-01            NaN
         13   -1    0    0    0    0  0.00000000000E+00  0.00000000000E+00  0.74505805969E-08  0.10566000000E+00  0.10566000000E+00 0.  1.
     999900   -1    0    0    0    0 -0.00000000000E+00 -0.00000000000E+00 -0.74505805969E-08  0.93827000000E+00  0.93827000000E+00 0.  1.
     999902    2    1    2    0    0 -0.82227164915E-02  0.13843494473E-01 -0.17444345727E-01  0.10201905686E+01  0.10199143276E+01 0.  0.
     999903    2    3    3    0    0 -0.17130945562E-01 -0.65089993314E-03 -0.13021685897E+00  0.13283095504E+00  0.19842864984E-01 0.  0.
         14    1    1    2    0    0  0.82227164915E-02 -0.13843494473E-01  0.17444345727E-01  0.23739431408E-01  0.00000000000E+00 0.  1.
     999901    1    3    3    0    0  0.89082290706E-02  0.14494394406E-01  0.11277251324E+00  0.88735961355E+00  0.88000000000E+00 0. -1.
        -11    1    4    4    0    0 -0.19588154240E-01 -0.53562598786E-02 -0.11285116206E+00  0.11466486474E+00  0.51100000000E-03 0. -1.
         11    1    4    4    0    0  0.24572086783E-02  0.47053599454E-02 -0.17365696908E-01  0.18166090301E-01  0.51100000000E-03 0.  1.
</event>
<event>
 8    1  0.1088088E+005  0.1043930E+01  0.7957747E-01            NaN
         13   -1    0    0    0    0  0.00000000000E+00  0.00000000000E+00  0.74505805969E-08  0.10566000000E+00  0.10566000000E+00 0.  1.
     999900   -1    0    0    0    0 -0.00000000000E+00 -0.00000000000E+00 -0.74505805969E-08  0.93827000000E+00  0.93827000000E+00 0. -1.
     999902    2    1    2    0    0 -0.10719099503E-01  0.54868180403E-02  0.20997964341E-01  0.10197242409E+01  0.10194369077E+01 0.  0.
     999903    2    3    3    0    0 -0.11451939273E+00  0.42828713387E-01  0.46644037114E-01  0.13246630825E+00  0.20558857531E-01 0.  0.
         14    1    1    2    0    0  0.10719099503E-01 -0.54868180403E-02 -0.20997964341E-01  0.24205759084E-01  0.00000000000E+00 0. -1.
     999901    1    3    3    0    0  0.10380029323E+00 -0.37341895347E-01 -0.25646072774E-01  0.88725793266E+00  0.88000000000E+00 0.  1.
        -11    1    4    4    0    0 -0.78980642997E-01  0.28478894749E-01  0.41929997203E-01  0.93847616916E-01  0.51100000000E-03 0. -1.
         11    1    4    4    0    0 -0.35538749732E-01  0.14349818638E-01  0.47140399112E-02  0.38618691339E-01  0.51100000000E-03 0.  1.
</event>
<event>
 8    1  0.1088088E+005  0.1043930E+01  0.7957747E-01            NaN
         13   -1    0    0    0    0  0.00000000000E+00  0.00000000000E+00  0.74505805969E-08  0.10566000000E+00  0.10566000000E+00 0. -1.
     999900   -1    0    0    0    0 -0.00000000000E+00 -0.00000000000E+00 -0.74505805969E-08  0.93827000000E+00  0.93827000000E+00 0. -1.
     999902    2    1    2    0    0 -0.29656000127E-01  0.14424966853E-01  0.12434899744E-01  0.10086853587E+01  0.10080694262E+01 0.  0.
     999903    2    3    3    0    0 -0.49184655852E-01 -0.76229624432E-01  0.78559557590E-01  0.12134546115E+00  0.17973058761E-01 0.  0.
         14    1    1    2    0    0  0.29656000127E-01 -0.14424966853E-01 -0.12434899744E-01  0.35244641350E-01  0.00000000000E+00 0.  1.
     999901    1    3    3    0    0  0.19528655725E-01  0.90654591285E-01 -0.66124657846E-01  0.88733989750E+00  0.88000000000E+00 0. -1.
        -11    1    4    4    0    0 -0.41897509541E-01 -0.69142873833E-01  0.75742609397E-01  0.11078511771E+00  0.51100000000E-03 0.  1.
         11    1    4    4    0    0 -0.72871463117E-02 -0.70867505991E-02  0.28169481928E-02  0.10560343439E-01  0.51100000000E-03 0. -1.
</event>
<event>
 8    1  0.1088088E+005  0.1043930E+01  0.7957747E-01            NaN
         13   -1    0    0    0    0  0.00000000000E+00  0.00000000000E+00  0.74505805969E-08  0.10566000000E+00  0.10566000000E+00 0.  1.
     999900   -1    0    0    0    0 -0.00000000000E+00 -0.00000000000E+00 -0.74505805969E-08  0.93827000000E+00  0.93827000000E+00 0.  1.
     999902    2    1    2    0    0  0.16256254081E-01 -0.16878718967E-01 -0.12684159224E-02  0.10204615993E+01  0.10201917025E+01 0.  0.
     999903    2    3    3    0    0  0.77224293132E-01  0.47751341298E-01  0.92277045811E-01  0.13105454973E+00  0.20407346141E-01 0.  0.
         14    1    1    2    0    0 -0.16256254081E-01  0.16878718967E-01  0.12684159224E-02  0.23468400663E-01  0.00000000000E+00 0.  1.
     999901    1    3    3    0    0 -0.60968039051E-01 -0.64630060265E-01 -0.93545461734E-01  0.88940704960E+00  0.88000000000E+00 0.  1.
        -11    1    4    4    0    0  0.33102967995E-01  0.12473432725E-01  0.45970614858E-01  0.58008202571E-01  0.51100000000E-03 0.  1.
         11    1    4    4    0    0  0.44121325136E-01  0.35277908573E-01  0.46306430953E-01  0.73046347162E-01  0.51100000000E-03 0. -1.
</event>
<event>
 8    1  0.1088088E+005  0.1043930E+01  0.7957747E-01            NaN
         13   -1    0    0    0    0  0.00000000000E+00  0.00000000000E+00  0.74505805969E-08  0.10566000000E+00  0.10566000000E+00 0.  1.
     999900   -1    0    0    0    0 -0.00000000000E+00 -0.00000000000E+00 -0.74505805969E-08  0.93827000000E+00  0.93827000000E+00 0.  1.
     999902    2    1    2    0    0  0.53616984684E-02 -0.19884268462E-01  0.20718968966E-01  0.10147168588E+01  0.10142962565E+01 0.  0.
     999903    2    3    3    0    0  0.10343913001E+00 -0.49247502809E-01 -0.48003654647E-01  0.12612011051E+00  0.21839442886E-01 0.  0.
         14    1    1    2    0    0 -0.53616984684E-02  0.19884268462E-01 -0.20718968966E-01  0.29213141182E-01  0.00000000000E+00 0. -1.
     999901    1    3    3    0    0 -0.98077431540E-01  0.29363234347E-01  0.68722623613E-01  0.88859674831E+00  0.88000000000E+00 0.  1.
        -11    1    4    4    0    0  0.32757342143E-01 -0.77862188272E-02 -0.21680565521E-01  0.40049678029E-01  0.51100000000E-03 0. -1.
         11    1    4    4    0    0  0.70681787865E-01 -0.41461283981E-01 -0.26323089126E-01  0.86070432480E-01  0.51100000000E-03 0.  1.
</event>
<event>
 8    1  0.1088088E+005  0.1043930E+01  0.7957747E-01            NaN
         13   -1    0    0    0    0  0.00000000000E+00  0.00000000000E+00  0.74505805969E-08  0.10566000000E+00  0.10566000000E+00 0. -1.
     999900   -1    0    0    0    0 -0.00000000000E+00 -0.00000000000E+00 -0.74505805969E-08  0.93827000000E+00  0.93827000000E+00 0. -1.
     999902    2    1    2    0    0  0.19553868436E-01  0.12892052098E-01 -0.73122373504E-02  0.10193937494E+01  0.10190984196E+01 0.  0.
     999903    2    3    3    0    0 -0.14775037022E-01 -0.12312730894E+00  0.22651912433E-01  0.12777859106E+00  0.20871590045E-01 0.  0.
         14    1    1    2    0    0 -0.19553868436E-01 -0.12892052098E-01  0.73122373504E-02  0.24536250593E-01  0.00000000000E+00 0. -1.
     999901    1    3    3    0    0  0.34328905458E-01  0.13601936103E+00 -0.29964149784E-01  0.89161515835E+00  0.88000000000E+00 0. -1.
        -11    1    4    4    0    0 -0.20957483215E-02 -0.44903718621E-01  0.17906405628E-01  0.48390459705E-01  0.51100000000E-03 0.  1.
         11    1    4    4    0    0 -0.12679288701E-01 -0.78223590315E-01  0.47455068051E-02  0.79388131352E-01  0.51100000000E-03 0. -1.
</event>
<event>
 7    1  0.1088088E+005  0.1043930E+01  0.7957747E-01            NaN
         13   -1    0    0    0    0  0.00000000000E+00  0.00000000000E+00  0.74505805969E-08  0.10566000000E+00  0.10566000000E+00 0. -1.
     999900   -1    0    0    0    0 -0.00000000000E+00 -0.00000000000E+00 -0.74505805969E-08  0.93827000000E+00  0.93827000000E+00 0. -1.
     999903    2    1    2    0    0 -0.10254889491E+00  0.33625131383E-01 -0.23010133520E-01  0.11267757033E+00  0.22800072451E-01 0.  0.
         14    1    1    2    0    0  0.64779552090E-02 -0.41145962525E-01 -0.17234717742E-01  0.45077595670E-01  0.00000000000E+00 0.  1.
     999901    1    1    2    0    0  0.96070939701E-01  0.75208311417E-02  0.40244851262E-01  0.88617483400E+00  0.88000000000E+00 0.  1.
        -11    1    3    3    0    0 -0.65057948477E-01  0.16688094810E-01 -0.24534747736E-01  0.71506951662E-01  0.51100000000E-03 0.  1.
         11    1    3    3    0    0 -0.37490946432E-01  0.16937036573E-01  0.15246142160E-02  0.41170618671E-01  0.51100000000E-03 0. -1.
</event>
<event>
 8    1  0.1088088E+005  0.1043930E+01  0.7957747E-01            NaN
         13   -1    0    0    0    0  0.00000000000E+00  0.00000000000E+00  0.74505805969E-08  0.10566000000E+00  0.10566000000E+00 0.  1.
     999900   -1    0    0    0    0 -0.00000000000E+00 -0.00000000000E+00 -0.74505805969E-08  0.93827000000E+00  0.93827000000E+00 0. -1.
     999902    2    1    2    0    0  0.12940826939E-01 -0.19106109525E-01  0.49788341158E-02  0.10203228568E+01  0.10200497217E+01 0.  0.
     999903    2    3    3    0    0 -0.20595613039E-01  0.16220807765E-01 -0.12518160137E+00  0.12941633929E+00  0.19770221853E-01 0.  0.
         14    1    1    2    0    0 -0.12940826939E-01  0.19106109525E-01 -0.49788341158E-02  0.23607143245E-01  0.00000000000E+00 0.  1.
     999901    1    3    3    0    0  0.33536439978E-01 -0.35326917291E-01  0.13016043549E+00  0.89090651746E+00  0.88000000000E+00 0.  1.
        -11    1    4    4    0    0 -0.14453197691E-01  0.14510351685E-01 -0.51021762240E-01  0.54981147429E-01  0.51100000000E-03 0. -1.
         11    1    4    4    0    0 -0.61424153483E-02  0.17104560804E-02 -0.74159839134E-01  0.74435191863E-01  0.51100000000E-03 0.  1.
</event>
<event>
 8    1  0.1088088E+005  0.1043930E+01  0.7957747E-01            NaN
         13   -1    0    0    0    0  0.00000000000E+00  0.00000000000E+00  0.74505805969E-08  0.10566000000E+00  0.10566000000E+00 0. -1.
     999900   -1    0    0    0    0 -0.00000000000E+00 -0.00000000000E+00 -0.74505805969E-08  0.93827000000E+00  0.93827000000E+00 0. -1.
     999902    2    1    2    0    0  0.15360538622E-01  0.12962963369E-01  0.12360619542E-01  0.10203340368E+01  0.10200611634E+01 0.  0.
     999903    2    3    3    0    0  0.95656341535E-01  0.72878451245E-01 -0.51484576768E-01  0.13235121555E+00  0.20119102415E-01 0.  0.
         14    1    1    2    0    0 -0.15360538622E-01 -0.12962963369E-01 -0.12360619542E-01  0.23595963246E-01  0.00000000000E+00 0.  1.
     999901    1    3    3    0    0 -0.80295802913E-01 -0.59915487876E-01  0.63845196310E-01  0.88798282120E+00  0.88000000000E+00 0.  1.
        -11    1    4    4    0    0  0.88952463645E-01  0.72716730204E-01 -0.46352242711E-01  0.12389130383E+00  0.51100000000E-03 0.  1.
         11    1    4    4    0    0  0.67038778907E-02  0.16172104118E-03 -0.51323340577E-02  0.84599117222E-02  0.51100000000E-03 0. -1.
</event>
<event>
 8    1  0.1088088E+005  0.1043930E+01  0.7957747E-01            NaN
         13   -1    0    0    0    0  0.00000000000E+00  0.00000000000E+00  0.74505805969E-08  0.10566000000E+00  0.10566000000E+00 0. -1.
     999900   -1    0    0    0    0 -0.00000000000E+00 -0.00000000000E+00 -0.74505805969E-08  0.93827000000E+00  0.93827000000E+00 0.  1.
     999902    2    1    2    0    0  0.18034772875E-01 -0.79753080319E-02 -0.12834026984E-01  0.10204019142E+01  0.10201306268E+01 0.  0.
     999903    2    3    3    0    0 -0.68300776774E-01  0.88810524804E-01  0.58274103530E-01  0.12805798346E+00  0.21229002865E-01 0.  0.
         14    1    1    2    0    0 -0.18034772875E-01  0.79753080319E-02  0.12834026984E-01  0.23528085759E-01  0.00000000000E+00 0. -1.
     999901    1    3    3    0    0  0.86335549648E-01 -0.96785832836E-01 -0.71108130514E-01  0.89234393078E+00  0.88000000000E+00 0.  1.
        -11    1    4    4    0    0 -0.26325182081E-01  0.26809540322E-01  0.29770273733E-01  0.47940556766E-01  0.51100000000E-03 0. -1.
         11    1    4    4    0    0 -0.41975594693E-01  0.62000984483E-01  0.28503829797E-01  0.80117426698E-01  0.51100000000E-03 0.  1.
</event>
<event>
 8    1  0.1088088E+005  0.1043930E+01  0.7957747E-01            NaN
         13   -1    0    0    0    0  0.00000000000E+00  0.00000000000E+00  0.74505805969E-08  0.10566000000E+00  0.10566000000E+00 0.  1.
     999900   -1    0    0    0    0 -0.00000000000E+00 -0.00000000000E+00 -0.74505805969E-08  0.93827000000E+00  0.93827000000E+00 0.  1.
     999902    2    1    2    0    0  0.14609426580E-01 -0.17424269791E-01  0.32041838793E-03  0.10211892175E+01  0.10209359797E+01 0.  0.
     999903    2    3    3    0    0  0.42479666406E-01  0.11858168142E+00  0.24090464281E-01  0.12998812673E+00  0.21223227743E-01 0.  0.
         14    1    1    2    0    0 -0.14609426580E-01  0.17424269791E-01 -0.32041838793E-03  0.22740782543E-01  0.00000000000E+00 0.  1.
     999901    1    3    3    0    0 -0.27870239827E-01 -0.13600595121E+00 -0.23770045893E-01  0.89120109073E+00  0.88000000000E+00 0.  1.
        -11    1    4    4    0    0  0.25436135545E-01  0.55794099102E-01  0.22627408410E-02  0.61362526050E-01  0.51100000000E-03 0. -1.
         11    1    4    4    0    0  0.17043530861E-01  0.62787582314E-01  0.21827723440E-01  0.68625600679E-01  0.51100000000E-03 0.  1.
</event>
<event>
 8    1  0.1088088E+005  0.1043930E+01  0.7957747E-01            NaN
         13   -1    0    0    0    0  0.00000000000E+00  0.00000000000E+00  0.74505805969E-08  0.10566000000E+00  0.10566000000E+00 0.  1.
     999900   -1    0    0    0    0 -0.00000000000E+00 -0.00000000000E+00 -0.74505805969E-08  0.93827000000E+00  0.93827000000E+00 0.  1.
     999902    2    1    2    0    0  0.60977258640E-02 -0.20022854686E-01 -0.10632802217E-01  0.10204533424E+01  0.10201832534E+01 0.  0.
     999903    2    3    3    0    0 -0.37268765471E-01 -0.21217521032E-01 -0.12339371294E+00  0.13219825357E+00  0.20278702450E-01 0.  0.
         14    1    1    2    0    0 -0.60977258640E-02  0.20022854686E-01  0.10632802217E-01  0.23476657630E-01  0.00000000000E+00 0.  1.
     999901    1    3    3    0    0  0.43366491335E-01  0.11946663456E-02  0.11276091073E+00  0.88825508880E+00  0.88000000000E+00 0. -1.
        -11    1    4    4    0    0 -0.21849966594E-01 -0.15927331272E-02 -0.67897942152E-01  0.71346685336E-01  0.51100000000E-03 0. -1.
         11    1    4    4    0    0 -0.15418798878E-01 -0.19624787905E-01 -0.55495770792E-01  0.60851568229E-01  0.51100000000E-03 0.  1.
</event>
<event>
 8    1  0.1088088E+005  0.1043930E+01  0.7957747E-01            NaN
         13   -1    0    0    0    0  0.00000000000E+00  0.00000000000E+00  0.74505805969E-08  0.10566000000E+00  0.10566000000E+00 0.  1.
     999900   -1    0    0    0    0 -0.00000000000E+00 -0.00000000000E+00 -0.74505805969E-08  0.93827000000E+00  0.93827000000E+00 0. -1.
     999902    2    1    2    0    0  0.11828193941E-01 -0.19867649720E-01 -0.37672610848E-02  0.10205030511E+01  0.10202341180E+01 0.  0.
     999903    2    3    3    0    0  0.15176178652E-01  0.26504155947E-01 -0.12523685995E+00  0.13094337533E+00  0.23002386207E-01 0.  0.
         14    1    1    2    0    0 -0.11828193941E-01  0.19867649720E-01  0.37672610848E-02  0.23426948870E-01  0.00000000000E+00 0. -1.
     999901    1    3    3    0    0 -0.33479847109E-02 -0.46371805667E-01  0.12146959887E+00  0.88955967580E+00  0.88000000000E+00 0.  1.
        -11    1    4    4    0    0  0.14425097125E-03 -0.40638331872E-02 -0.16056355682E-01  0.16571156486E-01  0.51100000000E-03 0. -1.
         11    1    4    4    0    0  0.15031927681E-01  0.30567989134E-01 -0.10918050427E+00  0.11437221884E+00  0.51100000000E-03 0.  1.
</event>
<event>
 8    1  0.1088088E+005  0.1043930E+01  0.7957747E-01            NaN
         13   -1    0    0    0    0  0.00000000000E+00  0.00000000000E+00  0.74505805969E-08  0.10566000000E+00  0.10566000000E+00 0. -1.
     999900   -1    0    0    0    0 -0.00000000000E+00 -0.00000000000E+00 -0.74505805969E-08  0.93827000000E+00  0.93827000000E+00 0. -1.
     999902    2    1    2    0    0  0.12552104866E-02  0.13776434612E-01 -0.19553094338E-01  0.10199781900E+01  0.10196969250E+01 0.  0.
     999903    2    3    3    0    0  0.45325010313E-02  0.37015393721E-01  0.12118799322E+00  0.12848570906E+00  0.20769323393E-01 0.  0.
         14    1    1    2    0    0 -0.12552104866E-02 -0.13776434612E-01  0.19553094338E-01  0.23951809998E-01  0.00000000000E+00 0. -1.
     999901    1    3    3    0    0 -0.32772905447E-02 -0.23238959109E-01 -0.14074108755E+00  0.89149248094E+00  0.88000000000E+00 0. -1.
        -11    1    4    4    0    0 -0.82159953534E-02  0.17203739586E-01  0.51158572336E-01  0.54597910948E-01  0.51100000000E-03 0.  1.
         11    1    4    4    0    0  0.12748496385E-01  0.19811654135E-01  0.70029420881E-01  0.73887798110E-01  0.51100000000E-03 0. -1.
</event>
<event>
 8    1  0.1088088E+005  0.1043930E+01  0.7957747E-01            NaN
         13   -1    0    0    0    0  0.00000000000E+00  0.00000000000E+00  0.74505805969E-08  0.10566000000E+00  0.10566000000E+00 0.  1.
     999900   -1    0    0    0    0 -0.00000000000E+00 -0.00000000000E+00 -0.74505805969E-08  0.93827000000E+00  0.93827000000E+00 0.  1.
     999902    2    1    2    0    0 -0.17241996408E-01 -0.17038779328E-01  0.30199334509E-02  0.10195020152E+01  0.10192093174E+01 0.  0.
     999903    2    3    3    0    0  0.42621350655E-01  0.56952271708E-01  0.10519084417E+00  0.12849292946E+00  0.19625963435E-01 0.  0.
         14    1    1    2    0    0  0.17241996408E-01  0.17038779328E-01 -0.30199334509E-02  0.24427984754E-01  0.00000000000E+00 0.  1.
     999901    1    3    3    0    0 -0.59863347062E-01 -0.73991051036E-01 -0.10217091072E+00  0.89100908578E+00  0.88000000000E+00 0.  1.
        -11    1    4    4    0    0  0.38000721121E-01  0.42595761376E-01  0.92869321566E-01  0.10901112651E+00  0.51100000000E-03 0.  1.
         11    1    4    4    0    0  0.46206295335E-02  0.14356510332E-01  0.12321522600E-01  0.19481802955E-01  0.51100000000E-03 0. -1.
</event>
<event>
 8    1  0.1088088E+005  0.1043930E+01  0.7957747E-01            NaN
         13   -1    0    0    0    0  0.00000000000E+00  0.00000000000E+00  0.74505805969E-08  0.10566000000E+00  0.10566000000E+00 0. -1.
     999900   -1    0    0    0    0 -0.00000000000E+00 -0.00000000000E+00 -0.74505805969E-08  0.93827000000E+00  0.93827000000E+00 0. -1.
     999902    2    1    2    0    0 -0.19188508906E-02 -0.86678887632E-02  0.21606675126E-01  0.10205705759E+01  0.10203032087E+01 0.  0.
     999903    2    3    3    0    0 -0.39521874186E-01 -0.10593717472E+00  0.67471013711E-01  0.13322687760E+00  0.20307626609E-01 0.  0.
         14    1    1    2    0    0  0.19188508906E-02  0.86678887632E-02 -0.21606675126E-01  0.23359424101E-01  0.00000000000E+00 0.  1.
     999901    1    3    3    0    0  0.37603023295E-01  0.97269285954E-01 -0.45864338585E-01  0.88734369830E+00  0.88000000000E+00 0. -1.
        -11    1    4    4    0    0 -0.12529428202E-01 -0.54112027171E-01  0.41199299491E-01  0.69157367324E-01  0.51100000000E-03 0.  1.
         11    1    4    4    0    0 -0.26992445984E-01 -0.51825147546E-01  0.26271714220E-01  0.64069510279E-01  0.51100000000E-03 0. -1.
</event>
<event>
 8    1  0.1088088E+005  0.1043930E+01  0.7957747E-01            NaN
         13   -1    0    0    0    0  0.00000000000E+00  0.00000000000E+00  0.74505805969E-08  0.10566000000E+00  0.10566000000E+00 0. -1.
     999900   -1    0    0    0    0 -0.00000000000E+00 -0.00000000000E+00 -0.74505805969E-08  0.93827000000E+00  0.93827000000E+00 0. -1.
     999902    2    1    2    0    0  0.12269304087E-01  0.18157366701E-01  0.89885674296E-02  0.10202441364E+01  0.10199691553E+01 0.  0.
     999903    2    3    3    0    0  0.65306158137E-02  0.55379799024E-01 -0.11621545144E+00  0.13058437656E+00  0.20896821880E-01 0.  0.
         14    1    1    2    0    0 -0.12269304087E-01 -0.18157366701E-01 -0.89885674296E-02  0.23685863563E-01  0.00000000000E+00 0. -1.
     999901    1    3    3    0    0  0.57386882728E-02 -0.37222432322E-01  0.12520401887E+00  0.88965975988E+00  0.88000000000E+00 0.  1.
        -11    1    4    4    0    0  0.12196552472E-01  0.19577581078E-01 -0.50855513553E-01  0.55844265173E-01  0.51100000000E-03 0. -1.
         11    1    4    4    0    0 -0.56659366582E-02  0.35802217946E-01 -0.65359937886E-01  0.74740111382E-01  0.51100000000E-03 0.  1.
</event>
<event>
 8    1  0.1088088E+005  0.1043930E+01  0.7957747E-01            NaN
         13   -1    0    0    0    0  0.00000000000E+00  0.00000000000E+00  0.74505805969E-08  0.10566000000E+00  0.10566000000E+00 0. -1.
     999900   -1    0    0    0    0 -0.00000000000E+00 -0.00000000000E+00 -0.74505805969E-08  0.93827000000E+00  0.93827000000E+00 0. -1.
     999902    2    1    2    0    0 -0.25290314943E-01  0.27188144381E-02  0.55588383707E-02  0.10178936280E+01  0.10175605856E+01 0.  0.
     999903    2    3    3    0    0 -0.27123536220E-01  0.10886135754E+00  0.61924800137E-01  0.12972319291E+00  0.20172866017E-01 0.  0.
         14    1    1    2    0    0  0.25290314943E-01 -0.27188144381E-02 -0.55588383707E-02  0.26036371981E-01  0.00000000000E+00 0.  1.
     999901    1    3    3    0    0  0.18332212763E-02 -0.10614254311E+00 -0.56365961767E-01  0.88817043511E+00  0.88000000000E+00 0. -1.
        -11    1    4    4    0    0 -0.14341438363E-01  0.31889464638E-01  0.27271941749E-01  0.44346755653E-01  0.51100000000E-03 0. -1.
         11    1    4    4    0    0 -0.12782097857E-01  0.76971892906E-01  0.34652858388E-01  0.85376437256E-01  0.51100000000E-03 0.  1.
</event>
<event>
 8    1  0.1088088E+005  0.1043930E+01  0.7957747E-01            NaN
         13   -1    0    0    0    0  0.00000000000E+00  0.00000000000E+00  0.74505805969E-08  0.10566000000E+00  0.10566000000E+00 0.  1.
     999900   -1    0    0    0    0 -0.00000000000E+00 -0.00000000000E+00 -0.74505805969E-08  0.93827000000E+00  0.93827000000E+00 0. -1.
     999902    2    1    2    0    0  0.20080539756E-01 -0.91180293152E-02  0.33812593440E-03  0.10218736888E+01  0.10216356273E+01 0.  0.
     999903    2    3    3    0    0 -0.11069743225E+00 -0.17718727758E-01  0.63565181197E-01  0.12992385247E+00  0.16486368930E-01 0.  0.
         14    1    1    2    0    0 -0.20080539756E-01  0.91180293152E-02 -0.33812593440E-03  0.22056311220E-01  0.00000000000E+00 0.  1.
     999901    1    3    3    0    0  0.13077797200E+00  0.86006984425E-02 -0.63227055263E-01  0.89194983631E+00  0.88000000000E+00 0. -1.
        -11    1    4    4    0    0 -0.53850056753E-01 -0.13128166714E-01  0.23403887920E-01  0.60167935517E-01  0.51100000000E-03 0. -1.
         11    1    4    4    0    0 -0.56847375495E-01 -0.45905610441E-02  0.40161293278E-01  0.69755916954E-01  0.51100000000E-03 0.  1.
</event>
<event>
 8    1  0.1088088E+005  0.1043930E+01  0.7957747E-01            NaN
         13   -1    0    0    0    0  0.00000000000E+00  0.00000000000E+00  0.74505805969E-08  0.10566000000E+00  0.10566000000E+00 0.  1.
     999900   -1    0    0    0    0 -0.00000000000E+00 -0.00000000000E+00 -0.74505805969E-08  0.93827000000E+00  0.93827000000E+00 0.  1.
     999902    2    1    2    0    0  0.17822533358E-01  0.14443858212E-01  0.27040514889E-02  0.10208306574E+01  0.10205692781E+01 0.  0.
     999903    2    3    3    0    0 -0.89336429166E-01  0.18802947572E-01  0.90468641354E-01  0.12998573925E+00  0.19420837429E-01 0.  0.
         14    1    1    2    0    0 -0.17822533358E-01 -0.14443858212E-01 -0.27040514889E-02  0.23099342627E-01  0.00000000000E+00 0.  1.
     999901    1    3    3    0    0  0.10715896252E+00 -0.43590893603E-02 -0.87764589866E-01  0.89084491812E+00  0.88000000000E+00 0. -1.
        -11    1    4    4    0    0 -0.10252948229E-01  0.32129747227E-02  0.20913946318E-01  0.23518087200E-01  0.51100000000E-03 0. -1.
         11    1    4    4    0    0 -0.79083480937E-01  0.15589972850E-01  0.69554695037E-01  0.10646765205E+00  0.51100000000E-03 0.  1.
</event>
<event>
 8    1  0.1088088E+005  0.1043930E+01  0.7957747E-01            NaN
         13   -1    0    0    0    0  0.00000000000E+00  0.00000000000E+00  0.74505805969E-08  0.10566000000E+00  0.10566000000E+00 0.  1.
     999900   -1    0    0    0    0 -0.00000000000E+00 -0.00000000000E+00 -0.74505805969E-08  0.93827000000E+00  0.93827000000E+00 0.  1.
     999902    2    1    2    0    0 -0.14923225421E-01 -0.15276981973E-01 -0.10315414074E-01  0.10202129892E+01  0.10199372759E+01 0.  0.
     999903    2    3    3    0    0 -0.13757056921E-01 -0.75725317429E-01  0.10386889212E+00  0.13077866501E+00  0.19766946063E-01 0.  0.
         14    1    1    2    0    0  0.14923225421E-01  0.15276981973E-01  0.10315414074E-01  0.23717010829E-01  0.00000000000E+00 0.  1.
     999901    1    3    3    0    0 -0.11661685006E-02  0.60448335456E-01 -0.11418430620E+00  0.88943432416E+00  0.88000000000E+00 0.  1.
        -11    1    4    4    0    0 -0.81157815739E-02 -0.93455956344E-02  0.21790503746E-01  0.25065778320E-01  0.51100000000E-03 0.  1.
         11    1    4    4    0    0 -0.56412753466E-02 -0.66379721795E-01  0.82078388378E-01  0.10571288669E+00  0.51100000000E-03 0. -1.
</event>
<event>
 8    1  0.1088088E+005  0.1043930E+01  0.7957747E-01            NaN
         13   -1    0    0    0    0  0.00000000000E+00  0.00000000000E+00  0.74505805969E-08  0.10566000000E+00  0.10566000000E+00 0. -1.
     999900   -1    0    0    0    0 -0.00000000000E+00 -0.00000000000E+00 -0.74505805969E-08  0.93827000000E+00  0.93827000000E+00 0.  1.
     999902    2    1    2    0    0 -0.10561788903E-01 -0.17378109351E-01 -0.12523984164E-01  0.10200469464E+01  0.10197673130E+01 0.  0.
     999903    2    3    3    0    0  0.96986361768E-01  0.46078731865E-01 -0.69480224259E-01  0.12940819321E+00  0.19732587475E-01 0.  0.
         14    1    1    2    0    0  0.10561788903E-01  0.17378109351E-01  0.12523984164E-01  0.23883053590E-01  0.00000000000E+00 0. -1.
     999901    1    3    3    0    0 -0.10754815067E+00 -0.63456841216E-01  0.56956240095E-01  0.89063875320E+00  0.88000000000E+00 0. -1.
        -11    1    4    4    0    0  0.96339602430E-01  0.42591450179E-01 -0.65441178160E-01  0.12400870754E+00  0.51100000000E-03 0.  1.
         11    1    4    4    0    0  0.64675933821E-03  0.34872816859E-02 -0.40390460984E-02  0.53994856777E-02  0.51100000000E-03 0. -1.
</event>
<event>
 8    1  0.1088088E+005  0.1043930E+01  0.7957747E-01            NaN
         13   -1    0    0    0    0  0.00000000000E+00  0.00000000000E+00  0.74505805969E-08  0.10566000000E+00  0.10566000000E+00 0. -1.
     999900   -1    0    0    0    0 -0.00000000000E+00 -0.00000000000E+00 -0.74505805969E-08  0.93827000000E+00  0.93827000000E+00 0. -1.
     999902    2    1    2    0    0  0.22968180017E-01  0.45855854475E-02 -0.19921688566E-02  0.10204239662E+01  0.10201531930E+01 0.  0.
     999903    2    3    3    0    0  0.11125880645E+00 -0.64936128809E-01 -0.25924935056E-01  0.13295493535E+00  0.20240793919E-01 0.  0.
         14    1    1    2    0    0 -0.22968180017E-01 -0.45855854475E-02  0.19921688566E-02  0.23506033777E-01  0.00000000000E+00 0. -1.
     999901    1    3    3    0    0 -0.88290626430E-01  0.69521714257E-01  0.23932766199E-01  0.88746903088E+00  0.88000000000E+00 0.  1.
        -11    1    4    4    0    0  0.56674297460E-02 -0.78816187132E-02 -0.56194182907E-02  0.11228475248E-01  0.51100000000E-03 0.  1.
         11    1    4    4    0    0  0.10559137670E+00 -0.57054510096E-01 -0.20305516765E-01  0.12172646010E+00  0.51100000000E-03 0. -1.
</event>
<event>
 8    1  0.1088088E+005  0.1043930E+01  0.7957747E-01            NaN
         13   -1    0    0    0    0  0.00000000000E+00  0.00000000000E+00  0.74505805969E-08  0.10566000000E+00  0.10566000000E+00 0. -1.
     999900   -1    0    0    0    0 -0.00000000000E+00 -0.00000000000E+00 -0.74505805969E-08  0.93827000000E+00  0.93827000000E+00 0.  1.
     999902    2    1    2    0    0 -0.21199104738E-01  0.86179696875E-02  0.35640084053E-02  0.10207702591E+01  0.10205074954E+01 0.  0.
     999903    2    3    3    0    0  0.84528958401E-03  0.10311795608E+00 -0.79150556969E-01  0.13158079555E+00  0.20363391378E-01 0.  0.
         14    1    1    2    0    0  0.21199104738E-01 -0.86179696875E-02 -0.35640084053E-02  0.23159740912E-01  0.00000000000E+00 0.  1.
     999901    1    3    3    0    0 -0.22044394322E-01 -0.94499986388E-01  0.82714565374E-01  0.88918946354E+00  0.88000000000E+00 0. -1.
        -11    1    4    4    0    0  0.24833656107E-02  0.97445351368E-02 -0.15787358677E-01  0.18724980235E-01  0.51100000000E-03 0.  1.
         11    1    4    4    0    0 -0.16380760266E-02  0.93373420939E-01 -0.63363198292E-01  0.11285581531E+00  0.51100000000E-03 0. -1.
</event>
<event>
 8    1  0.1088088E+005  0.1043930E+01  0.7957747E-01            NaN
         13   -1    0    0    0    0  0.00000000000E+00  0.00000000000E+00  0.74505805969E-08  0.10566000000E+00  0.10566000000E+00 0. -1.
     999900   -1    0    0    0    0 -0.00000000000E+00 -0.00000000000E+00 -0.74505805969E-08  0.93827000000E+00  0.93827000000E+00 0.  1.
     999902    2    1    2    0    0 -0.13669011904E-01  0.84101070970E-02  0.14606303055E-01  0.10222294038E+01  0.10219990401E+01 0.  0.
     999903    2    3    3    0    0 -0.14886266374E-01  0.45907708828E-01  0.12415160648E+00  0.13464406965E+00  0.19654145717E-01 0.  0.
         14    1    1    2    0    0  0.13669011904E-01 -0.84101070970E-02 -0.14606303055E-01  0.21700596230E-01  0.00000000000E+00 0. -1.
     999901    1    3    3    0    0  0.12172544705E-02 -0.37497601731E-01 -0.10954530342E+00  0.88758533412E+00  0.88000000000E+00 0.  1.
        -11    1    4    4    0    0 -0.26272761975E-02  0.33326988039E-01  0.67452204652E-01  0.75283807989E-01  0.51100000000E-03 0.  1.
         11    1    4    4    0    0 -0.12258990177E-01  0.12580720789E-01  0.56699401827E-01  0.59360261659E-01  0.51100000000E-03 0. -1.
</event>
<event>
 8    1  0.1088088E+005  0.1043930E+01  0.7957747E-01            NaN
         13   -1    0    0    0    0  0.00000000000E+00  0.00000000000E+00  0.74505805969E-08  0.10566000000E+00  0.10566000000E+00 0. -1.
     999900   -1    0    0    0    0 -0.00000000000E+00 -0.00000000000E+00 -0.74505805969E-08  0.93827000000E+00  0.93827000000E+00 0.  1.
     999902    2    1    2    0    0  0.20643341448E-01 -0.63795141244E-02 -0.89486192470E-02  0.10205436037E+01  0.10202756115E+01 0.  0.
     999903    2    3    3    0    0  0.10827518412E+00  0.65983943016E-01 -0.35700705564E-01  0.13283222947E+00  0.17101595681E-01 0.  0.
         14    1    1    2    0    0 -0.20643341448E-01  0.63795141244E-02  0.89486192470E-02  0.23386396324E-01  0.00000000000E+00 0.  1.
     999901    1    3    3    0    0 -0.87631842673E-01 -0.72363457141E-01  0.26752086317E-01  0.88771137421E+00  0.88000000000E+00 0.  1.
        -11    1    4    4    0    0  0.64038919486E-01  0.32883341948E-01 -0.13279770353E-01  0.73204581880E-01  0.51100000000E-03 0. -1.
         11    1    4    4    0    0  0.44236264635E-01  0.33100601069E-01 -0.22420935211E-01  0.59627647586E-01  0.51100000000E-03 0.  1.
</event>
<event>
 8    1  0.1088088E+005  0.1043930E+01  0.7957747E-01            NaN
         13   -1    0    0    0    0  0.00000000000E+00  0.00000000000E+00  0.74505805969E-08  0.10566000000E+00  0.10566000000E+00 0.  1.
     999900   -1    0    0    0    0 -0.00000000000E+00 -0.00000000000E+00 -0.74505805969E-08  0.93827000000E+00  0.93827000000E+00 0.  1.
     999902    2    1    2    0    0  0.23667629527E-01  0.49735646848E-02 -0.28426969801E-03  0.10197437675E+01  0.10194569032E+01 0.  0.
     999903    2    3    3    0    0 -0.44379829251E-01  0.35859673293E-01  0.11401507308E+00  0.12921092246E+00  0.20989049029E-01 0.  0.
         14    1    1    2    0    0 -0.23667629527E-01 -0.49735646848E-02  0.28426969801E-03  0.24186232496E-01  0.00000000000E+00 0. -1.
     999901    1    3    3    0    0  0.68047458778E-01 -0.30886108608E-01 -0.11429934278E+00  0.89053284505E+00  0.88000000000E+00 0.  1.
        -11    1    4    4    0    0 -0.20625293650E-01  0.10338621441E-01  0.65641334392E-01  0.69579707769E-01  0.51100000000E-03 0. -1.
         11    1    4    4    0    0 -0.23754535601E-01  0.25521051852E-01  0.48373738689E-01  0.59631214686E-01  0.51100000000E-03 0.  1.
</event>
<event>
 8    1  0.1088088E+005  0.1043930E+01  0.7957747E-01            NaN
         13   -1    0    0    0    0  0.00000000000E+00  0.00000000000E+00  0.74505805969E-08  0.10566000000E+00  0.10566000000E+00 0.  1.
     999900   -1    0    0    0    0 -0.00000000000E+00 -0.00000000000E+00 -0.74505805969E-08  0.93827000000E+00  0.93827000000E+00 0. -1.
     999902    2    1    2    0    0 -0.97463172216E-03 -0.13048334580E-01  0.19450349039E-01  0.10204880500E+01  0.10202187683E+01 0.  0.
     999903    2    3    3    0    0  0.79716091287E-01 -0.10248523182E+00 -0.17035451620E-01  0.13153295269E+00  0.12362567722E-01 0.  0.
         14    1    1    2    0    0  0.97463172216E-03  0.13048334580E-01 -0.19450349039E-01  0.23441950005E-01  0.00000000000E+00 0. -1.
     999901    1    3    3    0    0 -0.80690723009E-01  0.89436897243E-01  0.36485800659E-01  0.88895509730E+00  0.88000000000E+00 0.  1.
        -11    1    4    4    0    0  0.48503678311E-01 -0.62264433776E-01 -0.16405288174E-01  0.80615514166E-01  0.51100000000E-03 0. -1.
         11    1    4    4    0    0  0.31212412975E-01 -0.40220798046E-01 -0.63016344572E-03  0.50917438527E-01  0.51100000000E-03 0.  1.
</event>
<event>
 8    1  0.1088088E+005  0.1043930E+01  0.7957747E-01            NaN
         13   -1    0    0    0    0  0.00000000000E+00  0.00000000000E+00  0.74505805969E-08  0.10566000000E+00  0.10566000000E+00 0.  1.
     999900   -1    0    0    0    0 -0.00000000000E+00 -0.00000000000E+00 -0.74505805969E-08  0.93827000000E+00  0.93827000000E+00 0.  1.
     999902    2    1    2    0    0 -0.48503219726E-02 -0.18864291527E-01 -0.11783068109E-01  0.10211653825E+01  0.10209116076E+01 0.  0.
     999903    2    3    3    0    0  0.10314520273E-01 -0.10379021872E+00  0.78957608452E-01  0.13230304444E+00  0.19773538002E-01 0.  0.
         14    1    1    2    0    0  0.48503219726E-02  0.18864291527E-01  0.11783068109E-01  0.22764617549E-01  0.00000000000E+00 0.  1.
     999901    1    3    3    0    0 -0.15164842246E-01  0.84925927195E-01 -0.90740676561E-01  0.88886233801E+00  0.88000000000E+00 0. -1.
        -11    1    4    4    0    0 -0.16797104212E-02 -0.72756348612E-01  0.56907525814E-01  0.92385254807E-01  0.51100000000E-03 0. -1.
         11    1    4    4    0    0  0.11994230694E-01 -0.31033870110E-01  0.22050082638E-01  0.39917789634E-01  0.51100000000E-03 0.  1.
</event>
<event>
 8    1  0.1088088E+005  0.1043930E+01  0.7957747E-01            NaN
         13   -1    0    0    0    0  0.00000000000E+00  0.00000000000E+00  0.74505805969E-08  0.10566000000E+00  0.10566000000E+00 0. -1.
     999900   -1    0    0    0    0 -0.00000000000E+00 -0.00000000000E+00 -0.74505805969E-08  0.93827000000E+00  0.93827000000E+00 0.  1.
     999902    2    1    2    0    0 -0.12046388282E-01 -0.16842722590E-01 -0.22548206376E-01  0.10133160426E+01  0.10128534879E+01 0.  0.
     999903    2    3    3    0    0  0.66626049159E-01  0.20058979056E-01 -0.10240478821E+00  0.12543758155E+00  0.20160683222E-01 0.  0.
         14    1    1    2    0    0  0.12046388282E-01  0.16842722590E-01  0.22548206376E-01  0.30613957367E-01  0.00000000000E+00 0. -1.
     999901    1    3    3    0    0 -0.78672437441E-01 -0.36901701646E-01  0.79856581838E-01  0.88787846109E+00  0.88000000000E+00 0. -1.
        -11    1    4    4    0    0  0.17042735295E-01  0.66479625890E-02 -0.13431091894E-01  0.22700343243E-01  0.51100000000E-03 0. -1.
         11    1    4    4    0    0  0.49583313865E-01  0.13411016467E-01 -0.88973696320E-01  0.10273723830E+00  0.51100000000E-03 0.  1.
</event>
<event>
 8    1  0.1088088E+005  0.1043930E+01  0.7957747E-01            NaN
         13   -1    0    0    0    0  0.00000000000E+00  0.00000000000E+00  0.74505805969E-08  0.10566000000E+00  0.10566000000E+00 0.  1.
     999900   -1    0    0    0    0 -0.00000000000E+00 -0.00000000000E+00 -0.74505805969E-08  0.93827000000E+00  0.93827000000E+00 0. -1.
     999902    2    1    2    0    0 -0.34247410637E-02  0.11363173364E-01 -0.20567836983E-01  0.10201837060E+01  0.10199073034E+01 0.  0.
     999903    2    3    3    0    0 -0.57565955911E-01 -0.50877342684E-01 -0.10577452900E+00  0.13222800140E+00  0.19840617153E-01 0.  0.
         14    1    1    2    0    0  0.34247410637E-02 -0.11363173364E-01  0.20567836983E-01  0.23746293994E-01  0.00000000000E+00 0.  1.
     999901    1    3    3    0    0  0.54141214847E-01  0.62240516048E-01  0.85206692020E-01  0.88795570461E+00  0.88000000000E+00 0.  1.
        -11    1    4    4    0    0 -0.25834156205E-01 -0.35256496664E-01 -0.63785039202E-01  0.77325393829E-01  0.51100000000E-03 0. -1.
         11    1    4    4    0    0 -0.31731799706E-01 -0.15620846020E-01 -0.41989489802E-01  0.54902607568E-01  0.51100000000E-03 0.  1.
</event>
<event>
 8    1  0.1088088E+005  0.1043930E+01  0.7957747E-01            NaN
         13   -1    0    0    0    0  0.00000000000E+00  0.00000000000E+00  0.74505805969E-08  0.10566000000E+00  0.10566000000E+00 0. -1.
     999900   -1    0    0    0    0 -0.00000000000E+00 -0.00000000000E+00 -0.74505805969E-08  0.93827000000E+00  0.93827000000E+00 0. -1.
     999902    2    1    2    0    0  0.22459004694E-01 -0.54276930471E-02 -0.86389104362E-02  0.10192622576E+01  0.10189637148E+01 0.  0.
     999903    2    3    3    0    0 -0.21875235394E-01  0.12127855148E+00  0.29359062536E-01  0.12827188545E+00  0.20117382316E-01 0.  0.
         14    1    1    2    0    0 -0.22459004694E-01  0.54276930471E-02  0.86389104362E-02  0.24667742442E-01  0.00000000000E+00 0. -1.
     999901    1    3    3    0    0  0.44334240088E-01 -0.12670624452E+00 -0.37997972972E-01  0.89099037211E+00  0.88000000000E+00 0. -1.
        -11    1    4    4    0    0 -0.25749411510E-01  0.10717304763E+00  0.26317991370E-01  0.11332251375E+00  0.51100000000E-03 0.  1.
         11    1    4    4    0    0  0.38741761162E-02  0.14105503850E-01  0.30410711651E-02  0.14949371701E-01  0.51100000000E-03 0. -1.
</event>
<event>
 8    1  0.1088088E+005  0.1043930E+01  0.7957747E-01            NaN
         13   -1    0    0    0    0  0.00000000000E+00  0.00000000000E+00  0.74505805969E-08  0.10566000000E+00  0.10566000000E+00 0.  1.
     999900   -1    0    0    0    0 -0.00000000000E+00 -0.00000000000E+00 -0.74505805969E-08  0.93827000000E+00  0.93827000000E+00 0.  1.
     999902    2    1    2    0    0  0.58574521253E-02  0.17267905874E-01 -0.14941756046E-01  0.10203557260E+01  0.10200833600E+01 0.  0.
     999903    2    3    3    0    0 -0.15073906933E-01  0.86135752016E-01  0.94893133894E-01  0.13061160268E+00  0.20201322929E-01 0.  0.
         14    1    1    2    0    0 -0.58574521253E-02 -0.17267905874E-01  0.14941756046E-01  0.23574273953E-01  0.00000000000E+00 0.  1.
     999901    1    3    3    0    0  0.20931359058E-01 -0.68867846141E-01 -0.10983488994E+00  0.88974412337E+00  0.88000000000E+00 0.  1.
        -11    1    4    4    0    0 -0.10628969329E-02  0.60606208102E-01  0.64682626942E-01  0.88647309940E-01  0.51100000000E-03 0.  1.
         11    1    4    4    0    0 -0.14011010000E-01  0.25529543914E-01  0.30210506951E-01  0.41964292737E-01  0.51100000000E-03 0. -1.
</event>
<event>
 8    1  0.1088088E+005  0.1043930E+01  0.7957747E-01            NaN
         13   -1    0    0    0    0  0.00000000000E+00  0.00000000000E+00  0.74505805969E-08  0.10566000000E+00  0.10566000000E+00 0.  1.
     999900   -1    0    0    0    0 -0.00000000000E+00 -0.00000000000E+00 -0.74505805969E-08  0.93827000000E+00  0.93827000000E+00 0.  1.
     999902    2    1    2    0    0 -0.30937223368E-02 -0.22112682989E-01 -0.41754085045E-02  0.10212148970E+01  0.10209622373E+01 0.  0.
     999903    2    3    3    0    0 -0.34380292966E-01  0.85251556487E-01  0.88670991720E-01  0.12929203968E+00  0.20101102581E-01 0.  0.
         14    1    1    2    0    0  0.30937223368E-02  0.22112682989E-01  0.41754085045E-02  0.22715102972E-01  0.00000000000E+00 0.  1.
     999901    1    3    3    0    0  0.31286570629E-01 -0.10736423948E+00 -0.92846400224E-01  0.89192285735E+00  0.88000000000E+00 0.  1.
        -11    1    4    4    0    0 -0.18742890749E-01  0.22245950659E-01  0.24970263350E-01  0.38339971924E-01  0.51100000000E-03 0.  1.
         11    1    4    4    0    0 -0.15637402216E-01  0.63005605828E-01  0.63700728370E-01  0.90952067759E-01  0.51100000000E-03 0. -1.
</event>
<event>
 8    1  0.1088088E+005  0.1043930E+01  0.7957747E-01            NaN
         13   -1    0    0    0    0  0.00000000000E+00  0.00000000000E+00  0.74505805969E-08  0.10566000000E+00  0.10566000000E+00 0.  1.
     999900   -1    0    0    0    0 -0.00000000000E+00 -0.00000000000E+00 -0.74505805969E-08  0.93827000000E+00  0.93827000000E+00 0. -1.
     999902    2    1    2    0    0  0.23960664836E-01  0.97680957234E-02  0.34091595164E-02  0.10178311203E+01  0.10174964560E+01 0.  0.
     999903    2    3    3    0    0  0.58512793462E-01 -0.12291120220E-01 -0.11272527441E+00  0.12925491909E+00  0.20616206803E-01 0.  0.
         14    1    1    2    0    0 -0.23960664836E-01 -0.97680957234E-02 -0.34091595164E-02  0.26098879708E-01  0.00000000000E+00 0.  1.
     999901    1    3    3    0    0 -0.34552128627E-01  0.22059215943E-01  0.11613443393E+00  0.88857620120E+00  0.88000000000E+00 0.  1.
        -11    1    4    4    0    0  0.18854606865E-01 -0.32841912857E-03 -0.55429950373E-01  0.58552067243E-01  0.51100000000E-03 0. -1.
         11    1    4    4    0    0  0.39658186597E-01 -0.11962701091E-01 -0.57295324037E-01  0.70702851846E-01  0.51100000000E-03 0.  1.
</event>
<event>
 8    1  0.1088088E+005  0.1043930E+01  0.7957747E-01            NaN
         13   -1    0    0    0    0  0.00000000000E+00  0.00000000000E+00  0.74505805969E-08  0.10566000000E+00  0.10566000000E+00 0.  1.
     999900   -1    0    0    0    0 -0.00000000000E+00 -0.00000000000E+00 -0.74505805969E-08  0.93827000000E+00  0.93827000000E+00 0.  1.
     999902    2    1    2    0    0 -0.22850490798E-01 -0.89636745120E-02  0.59521226090E-03  0.10193770640E+01  0.10190813274E+01 0.  0.
     999903    2    3    3    0    0  0.11676362680E+00  0.33992985405E-01 -0.29429718198E-01  0.12683077782E+00  0.20752597119E-01 0.  0.
         14    1    1    2    0    0  0.22850490798E-01  0.89636745120E-02 -0.59521226090E-03  0.24552936038E-01  0.00000000000E+00 0.  1.
     999901    1    3    3    0    0 -0.13961411760E+00 -0.42956659917E-01  0.30024930459E-01  0.89254628615E+00  0.88000000000E+00 0. -1.
        -11    1    4    4    0    0  0.57631819108E-01  0.96665536979E-02 -0.22064533370E-01  0.62465779335E-01  0.51100000000E-03 0.  1.
         11    1    4    4    0    0  0.59131807695E-01  0.24326431707E-01 -0.73651848283E-02  0.64364998481E-01  0.51100000000E-03 0. -1.
</event>
<event>
 8    1  0.1088088E+005  0.1043930E+01  0.7957747E-01            NaN
         13   -1    0    0    0    0  0.00000000000E+00  0.00000000000E+00  0.74505805969E-08  0.10566000000E+00  0.10566000000E+00 0. -1.
     999900   -1    0    0    0    0 -0.00000000000E+00 -0.00000000000E+00 -0.74505805969E-08  0.93827000000E+00  0.93827000000E+00 0.  1.
     999902    2    1    2    0    0 -0.15761497774E-01  0.15839431796E-01  0.64468244644E-02  0.10206733030E+01  0.10204083092E+01 0.  0.
     999903    2    3    3    0    0 -0.12225047374E+00  0.27884190492E-01  0.40377045712E-01  0.13352267419E+00  0.21801199353E-01 0.  0.
         14    1    1    2    0    0  0.15761497774E-01 -0.15839431796E-01 -0.64468244644E-02  0.23256697044E-01  0.00000000000E+00 0.  1.
     999901    1    3    3    0    0  0.10648897596E+00 -0.12044758696E-01 -0.33930221248E-01  0.88715062877E+00  0.88000000000E+00 0.  1.
        -11    1    4    4    0    0 -0.34727733280E-01 -0.14644183805E-02  0.77764177679E-02  0.35621535260E-01  0.51100000000E-03 0.  1.
         11    1    4    4    0    0 -0.87522740456E-01  0.29348608873E-01  0.32600627944E-01  0.97901138926E-01  0.51100000000E-03 0. -1.
</event>
<event>
 8    1  0.1088088E+005  0.1043930E+01  0.7957747E-01            NaN
         13   -1    0    0    0    0  0.00000000000E+00  0.00000000000E+00  0.74505805969E-08  0.10566000000E+00  0.10566000000E+00 0. -1.
     999900   -1    0    0    0    0 -0.00000000000E+00 -0.00000000000E+00 -0.74505805969E-08  0.93827000000E+00  0.93827000000E+00 0. -1.
     999902    2    1    2    0    0  0.12272982082E-01  0.18666635530E-01 -0.26595862979E-02  0.10214323830E+01  0.10211845917E+01 0.  0.
     999903    2    3    3    0    0 -0.66357344891E-01  0.19555609350E-02 -0.11075038644E+00  0.13118207584E+00  0.23150971568E-01 0.  0.
         14    1    1    2    0    0 -0.12272982082E-01 -0.18666635530E-01  0.26595862979E-02  0.22497616995E-01  0.00000000000E+00 0.  1.
     999901    1    3    3    0    0  0.78630326973E-01  0.16711074595E-01  0.10809080014E+00  0.89025030717E+00  0.88000000000E+00 0.  1.
        -11    1    4    4    0    0 -0.45406925605E-01 -0.66210011134E-02 -0.87038134901E-01  0.98394738664E-01  0.51100000000E-03 0.  1.
         11    1    4    4    0    0 -0.20950419287E-01  0.85765620484E-02 -0.23712251541E-01  0.32787337175E-01  0.51100000000E-03 0. -1.
</event>
<event>
 8    1  0.1088088E+005  0.1043930E+01  0.7957747E-01            NaN
         13   -1    0    0    0    0  0.00000000000E+00  0.00000000000E+00  0.74505805969E-08  0.10566000000E+00  0.10566000000E+00 0. -1.
     999900   -1    0    0    0    0 -0.00000000000E+00 -0.00000000000E+00 -0.74505805969E-08  0.93827000000E+00  0.93827000000E+00 0.  1.
     999902    2    1    2    0    0 -0.20716073608E-01 -0.12247925074E-01 -0.59498176375E-02  0.10191395239E+01  0.10188379663E+01 0.  0.
     999903    2    3    3    0    0  0.13182298017E-01  0.72549120102E-01  0.10262617195E+00  0.12777630728E+00  0.18907821780E-01 0.  0.
         14    1    1    2    0    0  0.20716073608E-01  0.12247925074E-01  0.59498176375E-02  0.24790476080E-01  0.00000000000E+00 0.  1.
     999901    1    3    3    0    0 -0.33898371624E-01 -0.84797045176E-01 -0.10857598958E+00  0.89136321664E+00  0.88000000000E+00 0.  1.
        -11    1    4    4    0    0  0.12017353288E-01  0.29518223406E-01  0.32730664736E-01  0.45686976570E-01  0.51100000000E-03 0. -1.
         11    1    4    4    0    0  0.11649447287E-02  0.43030896696E-01  0.69895507211E-01  0.82089330708E-01  0.51100000000E-03 0.  1.
</event>
<event>
 8    1  0.1088088E+005  0.1043930E+01  0.7957747E-01            NaN
         13   -1    0    0    0    0  0.00000000000E+00  0.00000000000E+00  0.74505805969E-08  0.10566000000E+00  0.10566000000E+00 0.  1.
     999900   -1    0    0    0    0 -0.00000000000E+00 -0.00000000000E+00 -0.74505805969E-08  0.93827000000E+00  0.93827000000E+00 0. -1.
     999902    2    1    2    0    0  0.23269295001E-01  0.29252726388E-02  0.43708538091E-02  0.10200737289E+01  0.10197947297E+01 0.  0.
     999903    2    3    3    0    0 -0.10296508352E+00  0.37175212368E-01 -0.63517443801E-01  0.12781984254E+00  0.17878524572E-01 0.  0.
         14    1    1    2    0    0 -0.23269295001E-01 -0.29252726388E-02 -0.43708538091E-02  0.23856271143E-01  0.00000000000E+00 0. -1.
     999901    1    3    3    0    0  0.12623437852E+00 -0.34249939729E-01  0.67888297610E-01  0.89225388632E+00  0.88000000000E+00 0.  1.
        -11    1    4    4    0    0 -0.34495469541E-01  0.39392245973E-02 -0.22250114340E-01  0.41240557931E-01  0.51100000000E-03 0. -1.
         11    1    4    4    0    0 -0.68469613981E-01  0.33235987771E-01 -0.41267329461E-01  0.86579284611E-01  0.51100000000E-03 0.  1.
</event>
<event>
 8    1  0.1088088E+005  0.1043930E+01  0.7957747E-01            NaN
         13   -1    0    0    0    0  0.00000000000E+00  0.00000000000E+00  0.74505805969E-08  0.10566000000E+00  0.10566000000E+00 0. -1.
     999900   -1    0    0    0    0 -0.00000000000E+00 -0.00000000000E+00 -0.74505805969E-08  0.93827000000E+00  0.93827000000E+00 0.  1.
     999902    2    1    2    0    0 -0.97956138315E-02 -0.19095531045E-01  0.62612203037E-02  0.10215738770E+01  0.10213292270E+01 0.  0.
     999903    2    3    3    0    0  0.78131288113E-02 -0.36145431048E-01  0.12613578077E+00  0.13310852755E+00  0.20978745188E-01 0.  0.
         14    1    1    2    0    0  0.97956138315E-02  0.19095531045E-01 -0.62612203037E-02  0.22356123007E-01  0.00000000000E+00 0. -1.
     999901    1    3    3    0    0 -0.17608742643E-01  0.17049900003E-01 -0.11987456047E+00  0.88846534944E+00  0.88000000000E+00 0.  1.
        -11    1    4    4    0    0  0.75657242677E-02 -0.26661514775E-01  0.11579216104E+00  0.11906368982E+00  0.51100000000E-03 0.  1.
         11    1    4    4    0    0  0.24740454360E-03 -0.94839162733E-02  0.10343619727E-01  0.14044837733E-01  0.51100000000E-03 0. -1.
</event>
<event>
 8    1  0.1088088E+005  0.1043930E+01  0.7957747E-01            NaN
         13   -1    0    0    0    0  0.00000000000E+00  0.00000000000E+00  0.74505805969E-08  0.10566000000E+00  0.10566000000E+00 0. -1.
     999900   -1    0    0    0    0 -0.00000000000E+00 -0.00000000000E+00 -0.74505805969E-08  0.93827000000E+00  0.93827000000E+00 0.  1.
     999902    2    1    2    0    0 -0.13229700112E-01 -0.18428991904E-01  0.51979748568E-02  0.10206561595E+01  0.10203907704E+01 0.  0.
     999903    2    3    3    0    0 -0.47223304635E-01  0.11732646892E+00 -0.16319956873E-01  0.12933796064E+00  0.21596903931E-01 0.  0.
         14    1    1    2    0    0  0.13229700112E-01  0.18428991904E-01 -0.51979748568E-02  0.23273840471E-01  0.00000000000E+00 0. -1.
     999901    1    3    3    0    0  0.33993604524E-01 -0.13575546082E+00  0.21517931729E-01  0.89131819889E+00  0.88000000000E+00 0. -1.
        -11    1    4    4    0    0 -0.66875706800E-02  0.41554585311E-02 -0.27786961753E-02  0.83650290279E-02  0.51100000000E-03 0.  1.
         11    1    4    4    0    0 -0.40535733955E-01  0.11317101039E+00 -0.13541260697E-01  0.12097293161E+00  0.51100000000E-03 0. -1.
</event>
<event>
 8    1  0.1088088E+005  0.1043930E+01  0.7957747E-01            NaN
         13   -1    0    0    0    0  0.00000000000E+00  0.00000000000E+00  0.74505805969E-08  0.10566000000E+00  0.10566000000E+00 0. -1.
     999900   -1    0    0    0    0 -0.00000000000E+00 -0.00000000000E+00 -0.74505805969E-08  0.93827000000E+00  0.93827000000E+00 0. -1.
     999902    2    1    2    0    0 -0.17413939031E-01  0.13373003840E-01 -0.22323766618E-02  0.10218604280E+01  0.10216220770E+01 0.  0.
     999903    2    3    3    0    0  0.77937977503E-01 -0.37530324798E-01 -0.95526601589E-01  0.13035218389E+00  0.19583324955E-01 0.  0.
         14    1    1    2    0    0  0.17413939031E-01 -0.13373003840E-01  0.22323766618E-02  0.22069572036E-01  0.00000000000E+00 0.  1.
     999901    1    3    3    0    0 -0.95351916534E-01  0.50903328638E-01  0.93294224927E-01  0.89150824408E+00  0.88000000000E+00 0.  1.
        -11    1    4    4    0    0  0.48099682774E-01 -0.31963375798E-01 -0.69505573677E-01  0.90368815243E-01  0.51100000000E-03 0.  1.
         11    1    4    4    0    0  0.29838294729E-01 -0.55669490007E-02 -0.26021027912E-01  0.39983368644E-01  0.51100000000E-03 0. -1.
</event>
<event>
 8    1  0.1088088E+005  0.1043930E+01  0.7957747E-01            NaN
         13   -1    0    0    0    0  0.00000000000E+00  0.00000000000E+00  0.74505805969E-08  0.10566000000E+00  0.10566000000E+00 0.  1.
     999900   -1    0    0    0    0 -0.00000000000E+00 -0.00000000000E+00 -0.74505805969E-08  0.93827000000E+00  0.93827000000E+00 0. -1.
     999902    2    1    2    0    0 -0.43044247403E-04  0.90747690532E-02  0.21707948324E-01  0.10204015426E+01  0.10201302465E+01 0.  0.
     999903    2    3    3    0    0 -0.28064752146E-01  0.11706987098E+00  0.52175225710E-01  0.13283384766E+00  0.20726598873E-01 0.  0.
         14    1    1    2    0    0  0.43044247403E-04 -0.90747690532E-02 -0.21707948324E-01  0.23528457379E-01  0.00000000000E+00 0. -1.
     999901    1    3    3    0    0  0.28021707899E-01 -0.10799510193E+00 -0.30467277386E-01  0.88756769496E+00  0.88000000000E+00 0. -1.
        -11    1    4    4    0    0 -0.31406374971E-01  0.10803677323E+00  0.48296805745E-01  0.12243834091E+00  0.51100000000E-03 0.  1.
         11    1    4    4    0    0  0.33416228247E-02  0.90330977529E-02  0.38784199649E-02  0.10395506748E-01  0.51100000000E-03 0. -1.
</event>
<event>
 8    1  0.1088088E+005  0.1043930E+01  0.7957747E-01            NaN
         13   -1    0    0    0    0  0.00000000000E+00  0.00000000000E+00  0.74505805969E-08  0.10566000000E+00  0.10566000000E+00 0.  1.
     999900   -1    0    0    0    0 -0.00000000000E+00 -0.00000000000E+00 -0.74505805969E-08  0.93827000000E+00  0.93827000000E+00 0. -1.
     999902    2    1    2    0    0  0.20849994936E-01  0.43986847852E-02 -0.94556064426E-02  0.10206173594E+01  0.10203510745E+01 0.  0.
     999903    2    3    3    0    0 -0.34782429482E-02  0.87932082467E-01  0.94113545026E-01  0.13028244447E+00  0.19287474629E-01 0.  0.
         14    1    1    2    0    0 -0.20849994936E-01 -0.43986847852E-02  0.94556064426E-02  0.23312640560E-01  0.00000000000E+00 0.  1.
     999901    1    3    3    0    0  0.24328237884E-01 -0.83533397682E-01 -0.10356915147E+00  0.89033491497E+00  0.88000000000E+00 0. -1.
        -11    1    4    4    0    0 -0.72666748819E-02  0.74731292446E-01  0.70694922507E-01  0.10312906391E+00  0.51100000000E-03 0.  1.
         11    1    4    4    0    0  0.37884319337E-02  0.13200790021E-01  0.23418622519E-01  0.27153380552E-01  0.51100000000E-03 0. -1.
</event>
<event>
 8    1  0.1088088E+005  0.1043930E+01  0.7957747E-01            NaN
         13   -1    0    0    0    0  0.00000000000E+00  0.00000000000E+00  0.74505805969E-08  0.10566000000E+00  0.10566000000E+00 0.  1.
     999900   -1    0    0    0    0 -0.00000000000E+00 -0.00000000000E+00 -0.74505805969E-08  0.93827000000E+00  0.93827000000E+00 0. -1.
     999902    2    1    2    0    0  0.18038322185E-01  0.84401420092E-02 -0.13822266805E-01  0.10196880503E+01  0.10193998469E+01 0.  0.
     999903    2    3    3    0    0 -0.22294747565E-01  0.10669176349E+00 -0.70726243150E-01  0.13147737703E+00  0.20097538012E-01 0.  0.
         14    1    1    2    0    0 -0.18038322185E-01 -0.84401420092E-02  0.13822266805E-01  0.24241949674E-01  0.00000000000E+00 0.  1.
     999901    1    3    3    0    0  0.40333069750E-01 -0.98251621480E-01  0.56903976345E-01  0.88821067330E+00  0.88000000000E+00 0. -1.
        -11    1    4    4    0    0 -0.18389792286E-01  0.60548069706E-01 -0.50411146946E-01  0.80906106462E-01  0.51100000000E-03 0. -1.
         11    1    4    4    0    0 -0.39049552785E-02  0.46143693783E-01 -0.20315096204E-01  0.50571270564E-01  0.51100000000E-03 0.  1.
</event>
<event>
 8    1  0.1088088E+005  0.1043930E+01  0.7957747E-01            NaN
         13   -1    0    0    0    0  0.00000000000E+00  0.00000000000E+00  0.74505805969E-08  0.10566000000E+00  0.10566000000E+00 0. -1.
     999900   -1    0    0    0    0 -0.00000000000E+00 -0.00000000000E+00 -0.74505805969E-08  0.93827000000E+00  0.93827000000E+00 0. -1.
     999902    2    1    2    0    0 -0.11839998221E-01 -0.19557265294E-01 -0.18191830396E-02  0.10209957110E+01  0.10207380959E+01 0.  0.
     999903    2    3    3    0    0 -0.46617650182E-01  0.11028937206E+00  0.45358294025E-01  0.12953884239E+00  0.19646525203E-01 0.  0.
         14    1    1    2    0    0  0.11839998221E-01  0.19557265294E-01  0.18191830396E-02  0.22934288971E-01  0.00000000000E+00 0.  1.
     999901    1    3    3    0    0  0.34777651961E-01 -0.12984663735E+00 -0.47177477065E-01  0.89145686864E+00  0.88000000000E+00 0.  1.
        -11    1    4    4    0    0 -0.22440577646E-01  0.56496605870E-01  0.12638139063E-01  0.62092106421E-01  0.51100000000E-03 0.  1.
         11    1    4    4    0    0 -0.24177072536E-01  0.53792766189E-01  0.32720154962E-01  0.67446735966E-01  0.51100000000E-03 0. -1.
</event>
<event>
 8    1  0.1088088E+005  0.1043930E+01  0.7957747E-01            NaN
         13   -1    0    0    0    0  0.00000000000E+00  0.00000000000E+00  0.74505805969E-08  0.10566000000E+00  0.10566000000E+00 0.  1.
     999900   -1    0    0    0    0 -0.00000000000E+00 -0.00000000000E+00 -0.74505805969E-08  0.93827000000E+00  0.93827000000E+00 0. -1.
     999902    2    1    2    0    0  0.23276050531E-01 -0.63163159549E-02  0.26890597183E-02  0.10196627089E+01  0.10193738953E+01 0.  0.
     999903    2    3    3    0    0 -0.36818014880E-01  0.77419429850E-01  0.94189256254E-01  0.12893533321E+00  0.20084068767E-01 0.  0.
         14    1    1    2    0    0 -0.23276050531E-01  0.63163159549E-02 -0.26890597183E-02  0.24267291109E-01  0.00000000000E+00 0. -1.
     999901    1    3    3    0    0  0.60094065411E-01 -0.83735745805E-01 -0.91500196535E-01  0.89072737568E+00  0.88000000000E+00 0.  1.
        -11    1    4    4    0    0 -0.12140328841E-01  0.41956905019E-01  0.36908273770E-01  0.57186110698E-01  0.51100000000E-03 0. -1.
         11    1    4    4    0    0 -0.24677686038E-01  0.35462524831E-01  0.57280982484E-01  0.71749222511E-01  0.51100000000E-03 0.  1.
</event>
<event>
 8    1  0.1088088E+005  0.1043930E+01  0.7957747E-01            NaN
         13   -1    0    0    0    0  0.00000000000E+00  0.00000000000E+00  0.74505805969E-08  0.10566000000E+00  0.10566000000E+00 0.  1.
     999900   -1    0    0    0    0 -0.00000000000E+00 -0.00000000000E+00 -0.74505805969E-08  0.93827000000E+00  0.93827000000E+00 0. -1.
     999902    2    1    2    0    0  0.21050791656E-01  0.87738571475E-02  0.70529584849E-02  0.10200582464E+01  0.10197788806E+01 0.  0.
     999903    2    3    3    0    0  0.12266138754E-02 -0.11159385715E+00 -0.60722872918E-01  0.12906164255E+00  0.22692438117E-01 0.  0.
         14    1    1    2    0    0 -0.21050791656E-01 -0.87738571475E-02 -0.70529584849E-02  0.23871753643E-01  0.00000000000E+00 0. -1.
     999901    1    3    3    0    0  0.19824177781E-01  0.12036771430E+00  0.67775831403E-01  0.89099660381E+00  0.88000000000E+00 0.  1.
        -11    1    4    4    0    0  0.46244034678E-02 -0.99323529331E-01 -0.45902145289E-01  0.10951628486E+00  0.51100000000E-03 0.  1.
         11    1    4    4    0    0 -0.33977895924E-02 -0.12270327819E-01 -0.14820727629E-01  0.19545357693E-01  0.51100000000E-03 0. -1.
</event>
<event>
 8    1  0.1088088E+005  0.1043930E+01  0.7957747E-01            NaN
         13   -1    0    0    0    0  0.00000000000E+00  0.00000000000E+00  0.74505805969E-08  0.10566000000E+00  0.10566000000E+00 0. -1.
     999900   -1    0    0    0    0 -0.00000000000E+00 -0.00000000000E+00 -0.74505805969E-08  0.93827000000E+00  0.93827000000E+00 0.  1.
     999902    2    1    2    0    0  0.22126111829E-01 -0.75428151081E-02  0.30089311192E-02  0.10203606862E+01  0.10200884361E+01 0.  0.
     999903    2    3    3    0    0 -0.83537478802E-01  0.62963555294E-01  0.72163637554E-01  0.12855447631E+00  0.19384094898E-01 0.  0.
         14    1    1    2    0    0 -0.22126111829E-01  0.75428151081E-02 -0.30089311192E-02  0.23569313755E-01  0.00000000000E+00 0.  1.
     999901    1    3    3    0    0  0.10566359063E+00 -0.70506370402E-01 -0.69154706435E-01  0.89180620993E+00  0.88000000000E+00 0.  1.
        -11    1    4    4    0    0 -0.54128220545E-01  0.30157252246E-01  0.47364431583E-01  0.77993426791E-01  0.51100000000E-03 0. -1.
         11    1    4    4    0    0 -0.29409258257E-01  0.32806303048E-01  0.24799205971E-01  0.50561049521E-01  0.51100000000E-03 0.  1.
</event>
<event>
 8    1  0.1088088E+005  0.1043930E+01  0.7957747E-01            NaN
         13   -1    0    0    0    0  0.00000000000E+00  0.00000000000E+00  0.74505805969E-08  0.10566000000E+00  0.10566000000E+00 0. -1.
     999900   -1    0    0    0    0 -0.00000000000E+00 -0.00000000000E+00 -0.74505805969E-08  0.93827000000E+00  0.93827000000E+00 0.  1.
     999902    2    1    2    0    0 -0.18607066327E-01 -0.12503155475E-01  0.68554226282E-02  0.10204875463E+01  0.10202182529E+01 0.  0.
     999903    2    3    3    0    0  0.12532115021E+00  0.78908866420E-02 -0.16963970176E-01  0.12824396304E+00  0.19775767771E-01 0.  0.
         14    1    1    2    0    0  0.18607066327E-01  0.12503155475E-01 -0.68554226282E-02  0.23442453659E-01  0.00000000000E+00 0.  1.
     999901    1    3    3    0    0 -0.14392821653E+00 -0.20394042117E-01  0.23819392804E-01  0.89224358330E+00  0.88000000000E+00 0.  1.
        -11    1    4    4    0    0  0.65354381856E-01 -0.52401120904E-02 -0.55338881308E-02  0.65799232832E-01  0.51100000000E-03 0. -1.
         11    1    4    4    0    0  0.59966768351E-01  0.13130998732E-01 -0.11430082045E-01  0.62444730208E-01  0.51100000000E-03 0.  1.
</event>
<event>
 8    1  0.1088088E+005  0.1043930E+01  0.7957747E-01            NaN
         13   -1    0    0    0    0  0.00000000000E+00  0.00000000000E+00  0.74505805969E-08  0.10566000000E+00  0.10566000000E+00 0. -1.
     999900   -1    0    0    0    0 -0.00000000000E+00 -0.00000000000E+00 -0.74505805969E-08  0.93827000000E+00  0.93827000000E+00 0. -1.
     999902    2    1    2    0    0  0.21173147478E-01  0.97025648878E-02 -0.54215251813E-02  0.10200169309E+01  0.10197365858E+01 0.  0.
     999903    2    3    3    0    0 -0.33627947381E-01  0.43201679198E-01 -0.11681217634E+00  0.13067266243E+00  0.20809522692E-01 0.  0.
         14    1    1    2    0    0 -0.21173147478E-01 -0.97025648878E-02  0.54215251813E-02  0.23913069121E-01  0.00000000000E+00 0.  1.
     999901    1    3    3    0    0  0.54801094859E-01 -0.33499114310E-01  0.11139065116E+00  0.88934426845E+00  0.88000000000E+00 0.  1.
        -11    1    4    4    0    0 -0.51943602533E-02  0.20072707142E-01 -0.30336034639E-01  0.36748211780E-01  0.51100000000E-03 0. -1.
         11    1    4    4    0    0 -0.28433587128E-01  0.23128972056E-01 -0.86476141701E-01  0.93924450650E-01  0.51100000000E-03 0.  1.
</event>
<event>
 8    1  0.1088088E+005  0.1043930E+01  0.7957747E-01            NaN
         13   -1    0    0    0    0  0.00000000000E+00  0.00000000000E+00  0.74505805969E-08  0.10566000000E+00  0.10566000000E+00 0. -1.
     999900   -1    0    0    0    0 -0.00000000000E+00 -0.00000000000E+00 -0.74505805969E-08  0.93827000000E+00  0.93827000000E+00 0.  1.
     999902    2    1    2    0    0  0.63069541674E-02 -0.36023613602E-02  0.17784475926E-01  0.10247195273E+01  0.10245394416E+01 0.  0.
     999903    2    3    3    0    0 -0.78540741954E-01  0.37085250031E-01  0.10213385597E+00  0.13569228857E+00  0.20907145276E-01 0.  0.
         14    1    1    2    0    0 -0.63069541674E-02  0.36023613602E-02 -0.17784475926E-01  0.19210472722E-01  0.00000000000E+00 0.  1.
     999901    1    3    3    0    0  0.84847696121E-01 -0.40687611392E-01 -0.84349380049E-01  0.88902723871E+00  0.88000000000E+00 0.  1.
        -11    1    4    4    0    0 -0.15154827973E-01  0.44164826315E-02  0.31932673401E-01  0.35624863246E-01  0.51100000000E-03 0.  1.
         11    1    4    4    0    0 -0.63385913981E-01  0.32668767400E-01  0.70201182573E-01  0.10006742532E+00  0.51100000000E-03 0. -1.
</event>
<event>
 8    1  0.1088088E+005  0.1043930E+01  0.7957747E-01            NaN
         13   -1    0    0    0    0  0.00000000000E+00  0.00000000000E+00  0.74505805969E-08  0.10566000000E+00  0.10566000000E+00 0. -1.
     999900   -1    0    0    0    0 -0.00000000000E+00 -0.00000000000E+00 -0.74505805969E-08  0.93827000000E+00  0.93827000000E+00 0.  1.
     999902    2    1    2    0    0 -0.10126859444E-01 -0.14433890762E-01 -0.15051032136E-01  0.10207475917E+01  0.10204843076E+01 0.  0.
     999903    2    3    3    0    0 -0.72065017136E-01  0.67351086222E-02  0.10606616024E+00  0.13004346790E+00  0.20555894853E-01 0.  0.
         14    1    1    2    0    0  0.10126859444E-01  0.14433890762E-01  0.15051032136E-01  0.23182408268E-01  0.00000000000E+00 0. -1.
     999901    1    3    3    0    0  0.61938157692E-01 -0.21168999384E-01 -0.12111719238E+00  0.89070412383E+00  0.88000000000E+00 0. -1.
        -11    1    4    4    0    0 -0.65449677169E-01  0.76661577785E-02  0.82751389126E-01  0.10578508279E+00  0.51100000000E-03 0.  1.
         11    1    4    4    0    0 -0.66153399674E-02 -0.93104915634E-03  0.23314771116E-01  0.24258385120E-01  0.51100000000E-03 0. -1.
</event>
<event>
 8    1  0.1088088E+005  0.1043930E+01  0.7957747E-01            NaN
         13   -1    0    0    0    0  0.00000000000E+00  0.00000000000E+00  0.74505805969E-08  0.10566000000E+00  0.10566000000E+00 0.  1.
     999900   -1    0    0    0    0 -0.00000000000E+00 -0.00000000000E+00 -0.74505805969E-08  0.93827000000E+00  0.93827000000E+00 0. -1.
     999902    2    1    2    0    0  0.23231783831E-01 -0.49722364279E-02  0.17599036335E-02  0.10201069822E+01  0.10198287695E+01 0.  0.
     999903    2    3    3    0    0 -0.76231788723E-01  0.57822567360E-02  0.10209226087E+00  0.12877357474E+00  0.17750597682E-01 0.  0.
         14    1    1    2    0    0 -0.23231783831E-01  0.49722364279E-02 -0.17599036335E-02  0.23823017774E-01  0.00000000000E+00 0. -1.
     999901    1    3    3    0    0  0.99463572554E-01 -0.10754493164E-01 -0.10033235723E+00  0.89133340748E+00  0.88000000000E+00 0.  1.
        -11    1    4    4    0    0 -0.81988762088E-02  0.60046289214E-02  0.99145355891E-02  0.14206909464E-01  0.51100000000E-03 0.  1.
         11    1    4    4    0    0 -0.68032912514E-01 -0.22237218535E-03  0.92177725278E-01  0.11456666528E+00  0.51100000000E-03 0. -1.
</event>
<event>
 8    1  0.1088088E+005  0.1043930E+01  0.7957747E-01            NaN
         13   -1    0    0    0    0  0.00000000000E+00  0.00000000000E+00  0.74505805969E-08  0.10566000000E+00  0.10566000000E+00 0.  1.
     999900   -1    0    0    0    0 -0.00000000000E+00 -0.00000000000E+00 -0.74505805969E-08  0.93827000000E+00  0.93827000000E+00 0.  1.
     999902    2    1    2    0    0 -0.42248524679E-02  0.14375023391E-04  0.12959387023E-01  0.10302993251E+01  0.10302091555E+01 0.  0.
     999903    2    3    3    0    0  0.10201031222E+00  0.82396394870E-01  0.44072477529E-01  0.13954642349E+00  0.18318060637E-01 0.  0.
         14    1    1    2    0    0  0.42248524679E-02 -0.14375023391E-04 -0.12959387023E-01  0.13630674856E-01  0.00000000000E+00 0. -1.
     999901    1    3    3    0    0 -0.10623516469E+00 -0.82382019846E-01 -0.31113090506E-01  0.89075290166E+00  0.88000000000E+00 0.  1.
        -11    1    4    4    0    0  0.13324155838E-01  0.87493082962E-02 -0.48442154196E-03  0.15955541661E-01  0.51100000000E-03 0. -1.
         11    1    4    4    0    0  0.88686156383E-01  0.73647086573E-01  0.44556899071E-01  0.12359088183E+00  0.51100000000E-03 0.  1.
</event>
<event>
 8    1  0.1088088E+005  0.1043930E+01  0.7957747E-01            NaN
         13   -1    0    0    0    0  0.00000000000E+00  0.00000000000E+00  0.74505805969E-08  0.10566000000E+00  0.10566000000E+00 0. -1.
     999900   -1    0    0    0    0 -0.00000000000E+00 -0.00000000000E+00 -0.74505805969E-08  0.93827000000E+00  0.93827000000E+00 0. -1.
     999902    2    1    2    0    0 -0.19252710519E-01  0.47245029435E-02 -0.12718321476E-01  0.10203770067E+01  0.10201051379E+01 0.  0.
     999903    2    3    3    0    0  0.70340739779E-01  0.10131748046E+00 -0.37585988748E-01  0.13022219407E+00  0.18222561797E-01 0.  0.
         14    1    1    2    0    0  0.19252710519E-01 -0.47245029435E-02  0.12718321476E-01  0.23552993261E-01  0.00000000000E+00 0. -1.
     999901    1    3    3    0    0 -0.89593450298E-01 -0.96592977519E-01  0.24867667271E-01  0.89015481267E+00  0.88000000000E+00 0.  1.
        -11    1    4    4    0    0  0.24261842410E-01  0.23728713128E-01 -0.51530380371E-02  0.34329342345E-01  0.51100000000E-03 0.  1.
         11    1    4    4    0    0  0.46078897370E-01  0.77588767334E-01 -0.32432950710E-01  0.95892851725E-01  0.51100000000E-03 0. -1.
</event>
<event>
 8    1  0.1088088E+005  0.1043930E+01  0.7957747E-01            NaN
         13   -1    0    0    0    0  0.00000000000E+00  0.00000000000E+00  0.74505805969E-08  0.10566000000E+00  0.10566000000E+00 0. -1.
     999900   -1    0    0    0    0 -0.00000000000E+00 -0.00000000000E+00 -0.74505805969E-08  0.93827000000E+00  0.93827000000E+00 0. -1.
     999902    2    1    2    0    0  0.21575193078E-01 -0.51834386311E-02  0.10554257749E-01  0.10193586885E+01  0.10190625037E+01 0.  0.
     999903    2    3    3    0    0 -0.10542615747E+00  0.33771545115E-01 -0.56928854218E-01  0.12683372851E+00  0.24304491511E-01 0.  0.
         14    1    1    2    0    0 -0.21575193078E-01  0.51834386311E-02 -0.10554257749E-01  0.24571311504E-01  0.00000000000E+00 0.  1.
     999901    1    3    3    0    0  0.12700135054E+00 -0.38954983746E-01  0.67483111968E-01  0.89252495999E+00  0.88000000000E+00 0.  1.
        -11    1    4    4    0    0 -0.39237650344E-01  0.43744365563E-02 -0.29907193119E-01  0.49532113027E-01  0.51100000000E-03 0. -1.
         11    1    4    4    0    0 -0.66188507121E-01  0.29397108559E-01 -0.27021661100E-01  0.77301615482E-01  0.51100000000E-03 0.  1.
</event>
<event>
 8    1  0.1088088E+005  0.1043930E+01  0.7957747E-01            NaN
         13   -1    0    0    0    0  0.00000000000E+00  0.00000000000E+00  0.74505805969E-08  0.10566000000E+00  0.10566000000E+00 0. -1.
     999900   -1    0    0    0    0 -0.00000000000E+00 -0.00000000000E+00 -0.74505805969E-08  0.93827000000E+00  0.93827000000E+00 0. -1.
     999902    2    1    2    0    0  0.15252031508E-01  0.14749892406E-03 -0.17248017385E-01  0.10209052237E+01  0.10206455484E+01 0.  0.
     999903    2    3    3    0    0 -0.10784919131E-01  0.30796775596E-01 -0.12768406370E+00  0.13309137985E+00  0.18583309759E-01 0.  0.
         14    1    1    2    0    0 -0.15252031508E-01 -0.14749892406E-03  0.17248017385E-01  0.23024776323E-01  0.00000000000E+00 0. -1.
     999901    1    3    3    0    0  0.26036950639E-01 -0.30649276672E-01  0.11043604631E+00  0.88781384382E+00  0.88000000000E+00 0.  1.
        -11    1    4    4    0    0 -0.16459784700E-02  0.21976330429E-01 -0.54120377599E-01  0.58437528496E-01  0.51100000000E-03 0.  1.
         11    1    4    4    0    0 -0.91389406613E-02  0.88204451674E-02 -0.73563686097E-01  0.74653851358E-01  0.51100000000E-03 0. -1.
</event>
<event>
 8    1  0.1088088E+005  0.1043930E+01  0.7957747E-01            NaN
         13   -1    0    0    0    0  0.00000000000E+00  0.00000000000E+00  0.74505805969E-08  0.10566000000E+00  0.10566000000E+00 0. -1.
     999900   -1    0    0    0    0 -0.00000000000E+00 -0.00000000000E+00 -0.74505805969E-08  0.93827000000E+00  0.93827000000E+00 0. -1.
     999902    2    1    2    0    0 -0.14164848212E-01 -0.61249622531E-02  0.15405886875E-01  0.10221240504E+01  0.10218914203E+01 0.  0.
     999903    2    3    3    0    0 -0.59728228434E-01  0.57117813927E-01 -0.99981712702E-01  0.13117513577E+00  0.19510700365E-01 0.  0.
         14    1    1    2    0    0  0.14164848212E-01  0.61249622531E-02 -0.15405886875E-01  0.21805949598E-01  0.00000000000E+00 0.  1.
     999901    1    3    3    0    0  0.45563380222E-01 -0.63242776180E-01  0.11538759958E+00  0.89094891464E+00  0.88000000000E+00 0.  1.
        -11    1    4    4    0    0 -0.23735076838E-01  0.10376841199E-01 -0.31446694324E-01  0.40745409688E-01  0.51100000000E-03 0. -1.
         11    1    4    4    0    0 -0.35993151596E-01  0.46740972728E-01 -0.68535018378E-01  0.90429726077E-01  0.51100000000E-03 0.  1.
</event>
<event>
 7    1  0.1088088E+005  0.1043930E+01  0.7957747E-01            NaN
         13   -1    0    0    0    0  0.00000000000E+00  0.00000000000E+00  0.74505805969E-08  0.10566000000E+00  0.10566000000E+00 0. -1.
     999900   -1    0    0    0    0 -0.00000000000E+00 -0.00000000000E+00 -0.74505805969E-08  0.93827000000E+00  0.93827000000E+00 0. -1.
     999903    2    1    2    0    0 -0.92601694792E-01 -0.15808395419E-01 -0.54620573306E-01  0.11033946931E+00  0.19141896864E-01 0.  0.
         14    1    1    2    0    0  0.11381286005E-01  0.40259699543E-01  0.25574702544E-01  0.49035114852E-01  0.00000000000E+00 0. -1.
     999901    1    1    2    0    0  0.81220408788E-01 -0.24451304124E-01  0.29045870762E-01  0.88455541584E+00  0.88000000000E+00 0.  1.
        -11    1    3    3    0    0 -0.64868912012E-01 -0.73969996857E-02 -0.28203496508E-01  0.71122357147E-01  0.51100000000E-03 0. -1.
         11    1    3    3    0    0 -0.27732782781E-01 -0.84113957329E-02 -0.26417076798E-01  0.39217112164E-01  0.51100000000E-03 0.  1.
</event>
<event>
 8    1  0.1088088E+005  0.1043930E+01  0.7957747E-01            NaN
         13   -1    0    0    0    0  0.00000000000E+00  0.00000000000E+00  0.74505805969E-08  0.10566000000E+00  0.10566000000E+00 0. -1.
     999900   -1    0    0    0    0 -0.00000000000E+00 -0.00000000000E+00 -0.74505805969E-08  0.93827000000E+00  0.93827000000E+00 0.  1.
     999902    2    1    2    0    0  0.27456107915E-02 -0.22186093433E-03 -0.21856110128E-01  0.10219009930E+01  0.10216635269E+01 0.  0.
     999903    2    3    3    0    0  0.51129349004E-02 -0.12901995239E+00 -0.21687511512E-01  0.13252223169E+00  0.20481785066E-01 0.  0.
         14    1    1    2    0    0 -0.27456107915E-02  0.22186093433E-03  0.21856110128E-01  0.22029007032E-01  0.00000000000E+00 0. -1.
     999901    1    3    3    0    0 -0.23673241089E-02  0.12879809145E+00 -0.16859861680E-03  0.88937876128E+00  0.88000000000E+00 0.  1.
        -11    1    4    4    0    0  0.23623396485E-02 -0.11734546529E+00 -0.13848556083E-01  0.11818452733E+00  0.51100000000E-03 0.  1.
         11    1    4    4    0    0  0.27505952519E-02 -0.11674487093E-01 -0.78389554281E-02  0.14337704361E-01  0.51100000000E-03 0. -1.
</event>
<event>
 7    1  0.1088088E+005  0.1043930E+01  0.7957747E-01            NaN
         13   -1    0    0    0    0  0.00000000000E+00  0.00000000000E+00  0.74505805969E-08  0.10566000000E+00  0.10566000000E+00 0.  1.
     999900   -1    0    0    0    0 -0.00000000000E+00 -0.00000000000E+00 -0.74505805969E-08  0.93827000000E+00  0.93827000000E+00 0. -1.
     999903    2    1    2    0    0  0.52406350953E-01 -0.65210597290E-01  0.61893088101E-01  0.10598345620E+00  0.20072145232E-01 0.  0.
         14    1    1    2    0    0  0.12175047242E-01 -0.44950703051E-01 -0.62890133831E-02  0.46993075761E-01  0.00000000000E+00 0.  1.
     999901    1    1    2    0    0 -0.64581398196E-01  0.11016130034E+00 -0.55604074718E-01  0.89095346804E+00  0.88000000000E+00 0.  1.
        -11    1    3    3    0    0  0.11820936084E-01 -0.17189740562E-01  0.56420720609E-02  0.21617488491E-01  0.51100000000E-03 0. -1.
         11    1    3    3    0    0  0.40585414869E-01 -0.48020856728E-01  0.56251016040E-01  0.84365967709E-01  0.51100000000E-03 0.  1.
</event>
<event>
 8    1  0.1088088E+005  0.1043930E+01  0.7957747E-01            NaN
         13   -1    0    0    0    0  0.00000000000E+00  0.00000000000E+00  0.74505805969E-08  0.10566000000E+00  0.10566000000E+00 0.  1.
     999900   -1    0    0    0    0 -0.00000000000E+00 -0.00000000000E+00 -0.74505805969E-08  0.93827000000E+00  0.93827000000E+00 0.  1.
     999902    2    1    2    0    0 -0.64569725485E-02 -0.22841908051E-01  0.33430864238E-02  0.10199587363E+01  0.10196770088E+01 0.  0.
     999903    2    3    3    0    0  0.34529759110E-01 -0.12677323538E+00  0.66672957850E-02  0.13288901898E+00  0.18742493396E-01 0.  0.
         14    1    1    2    0    0  0.64569725485E-02  0.22841908051E-01 -0.33430864238E-02  0.23971263728E-01  0.00000000000E+00 0.  1.
     999901    1    3    3    0    0 -0.40986731659E-01  0.10393132733E+00 -0.33242093612E-02  0.88706971729E+00  0.88000000000E+00 0. -1.
        -11    1    4    4    0    0  0.14851472381E-01 -0.83914990247E-01  0.88290592326E-02  0.85676748467E-01  0.51100000000E-03 0.  1.
         11    1    4    4    0    0  0.19678286729E-01 -0.42858245134E-01 -0.21617634476E-02  0.47212270510E-01  0.51100000000E-03 0. -1.
</event>
<event>
 8    1  0.1088088E+005  0.1043930E+01  0.7957747E-01            NaN
         13   -1    0    0    0    0  0.00000000000E+00  0.00000000000E+00  0.74505805969E-08  0.10566000000E+00  0.10566000000E+00 0.  1.
     999900   -1    0    0    0    0 -0.00000000000E+00 -0.00000000000E+00 -0.74505805969E-08  0.93827000000E+00  0.93827000000E+00 0.  1.
     999902    2    1    2    0    0 -0.85364828786E-03  0.21718445763E-01  0.10670220838E-01  0.10197169206E+01  0.10194294114E+01 0.  0.
     999903    2    3    3    0    0  0.94147610175E-01  0.43447942050E-01  0.78753043861E-01  0.13172329397E+00  0.19937103306E-01 0.  0.
         14    1    1    2    0    0  0.85364828786E-03 -0.21718445763E-01 -0.10670220838E-01  0.24213079410E-01  0.00000000000E+00 0. -1.
     999901    1    3    3    0    0 -0.95001258462E-01 -0.21729496287E-01 -0.68082823023E-01  0.88799362662E+00  0.88000000000E+00 0.  1.
        -11    1    4    4    0    0  0.86882050875E-01  0.45295109751E-01  0.71658847999E-01  0.12138941201E+00  0.51100000000E-03 0.  1.
         11    1    4    4    0    0  0.72655592993E-02 -0.18471677006E-02  0.70941958618E-02  0.10333881960E-01  0.51100000000E-03 0. -1.
</event>
<event>
 8    1  0.1088088E+005  0.1043930E+01  0.7957747E-01            NaN
         13   -1    0    0    0    0  0.00000000000E+00  0.00000000000E+00  0.74505805969E-08  0.10566000000E+00  0.10566000000E+00 0. -1.
     999900   -1    0    0    0    0 -0.00000000000E+00 -0.00000000000E+00 -0.74505805969E-08  0.93827000000E+00  0.93827000000E+00 0.  1.
     999902    2    1    2    0    0  0.65107890641E-03 -0.13563698391E-01 -0.18051392170E-01  0.10213412732E+01  0.10210914483E+01 0.  0.
     999903    2    3    3    0    0 -0.94642281198E-01 -0.48346333180E-01 -0.78099802033E-01  0.13348066047E+00  0.20566436732E-01 0.  0.
         14    1    1    2    0    0 -0.65107890641E-03  0.13563698391E-01  0.18051392170E-01  0.22588726769E-01  0.00000000000E+00 0. -1.
     999901    1    3    3    0    0  0.95293360104E-01  0.34782634790E-01  0.60048409864E-01  0.88786061276E+00  0.88000000000E+00 0. -1.
        -11    1    4    4    0    0 -0.54424139682E-01 -0.33208795826E-01 -0.35526229773E-01  0.72987568964E-01  0.51100000000E-03 0.  1.
         11    1    4    4    0    0 -0.40218141516E-01 -0.15137537354E-01 -0.42573572260E-01  0.60493091507E-01  0.51100000000E-03 0. -1.
</event>
<event>
 8    1  0.1088088E+005  0.1043930E+01  0.7957747E-01            NaN
         13   -1    0    0    0    0  0.00000000000E+00  0.00000000000E+00  0.74505805969E-08  0.10566000000E+00  0.10566000000E+00 0.  1.
     999900   -1    0    0    0    0 -0.00000000000E+00 -0.00000000000E+00 -0.74505805969E-08  0.93827000000E+00  0.93827000000E+00 0.  1.
     999902    2    1    2    0    0 -0.92245562040E-02  0.14205649093E-03  0.21816659854E-01  0.10202428882E+01  0.10199678778E+01 0.  0.
     999903    2    3    3    0    0 -0.40202790869E-01  0.95127184127E-01  0.82263285144E-01  0.13252918437E+00  0.11458231711E-01 0.  0.
         14    1    1    2    0    0  0.92245562040E-02 -0.14205649093E-03 -0.21816659854E-01  0.23687111778E-01  0.00000000000E+00 0. -1.
     999901    1    3    3    0    0  0.30978234665E-01 -0.94985127636E-01 -0.60446625290E-01  0.88771370385E+00  0.88000000000E+00 0.  1.
        -11    1    4    4    0    0 -0.35584724141E-01  0.74502073486E-01  0.62087485961E-01  0.10330512369E+00  0.51100000000E-03 0.  1.
         11    1    4    4    0    0 -0.46180667279E-02  0.20625110641E-01  0.20175799183E-01  0.29224060685E-01  0.51100000000E-03 0. -1.
</event>
<event>
 7    1  0.1088088E+005  0.1043930E+01  0.7957747E-01            NaN
         13   -1    0    0    0    0  0.00000000000E+00  0.00000000000E+00  0.74505805969E-08  0.10566000000E+00  0.10566000000E+00 0.  1.
     999900   -1    0    0    0    0 -0.00000000000E+00 -0.00000000000E+00 -0.74505805969E-08  0.93827000000E+00  0.93827000000E+00 0.  1.
     999903    2    1    2    0    0  0.63504417922E-03 -0.96518614222E-01 -0.67693901013E-01  0.11989996892E+00  0.21847016725E-01 0.  0.
         14    1    1    2    0    0  0.17450497851E-01  0.31462670432E-01  0.17523033189E-01  0.40018448222E-01  0.00000000000E+00 0. -1.
     999901    1    1    2    0    0 -0.18085542030E-01  0.65055943790E-01  0.50170867824E-01  0.88401158286E+00  0.88000000000E+00 0. -1.
        -11    1    3    3    0    0 -0.54164909315E-02 -0.20106381347E-01 -0.65116006079E-02  0.21823542525E-01  0.51100000000E-03 0.  1.
         11    1    3    3    0    0  0.60515351107E-02 -0.76412232875E-01 -0.61182300405E-01  0.98076426393E-01  0.51100000000E-03 0. -1.
</event>
<event>
 8    1  0.1088088E+005  0.1043930E+01  0.7957747E-01            NaN
         13   -1    0    0    0    0  0.00000000000E+00  0.00000000000E+00  0.74505805969E-08  0.10566000000E+00  0.10566000000E+00 0. -1.
     999900   -1    0    0    0    0 -0.00000000000E+00 -0.00000000000E+00 -0.74505805969E-08  0.93827000000E+00  0.93827000000E+00 0.  1.
     999902    2    1    2    0    0  0.23311117703E-01 -0.28057992412E-02  0.52690494520E-02  0.10198666752E+01  0.10195827537E+01 0.  0.
     999903    2    3    3    0    0 -0.88073407188E-01  0.90484835071E-01  0.15637494976E-02  0.12794549927E+00  0.20571218722E-01 0.  0.
         14    1    1    2    0    0 -0.23311117703E-01  0.28057992412E-02 -0.52690494520E-02  0.24063324793E-01  0.00000000000E+00 0. -1.
     999901    1    3    3    0    0  0.11138452489E+00 -0.93290634312E-01  0.37052999543E-02  0.89192117594E+00  0.88000000000E+00 0.  1.
        -11    1    4    4    0    0 -0.53954132116E-01  0.42278700404E-01  0.53983185666E-02  0.68760016322E-01  0.51100000000E-03 0.  1.
         11    1    4    4    0    0 -0.34119275072E-01  0.48206134667E-01 -0.38345690689E-02  0.59185482949E-01  0.51100000000E-03 0. -1.
</event>
<event>
 8    1  0.1088088E+005  0.1043930E+01  0.7957747E-01            NaN
         13   -1    0    0    0    0  0.00000000000E+00  0.00000000000E+00  0.74505805969E-08  0.10566000000E+00  0.10566000000E+00 0. -1.
     999900   -1    0    0    0    0 -0.00000000000E+00 -0.00000000000E+00 -0.74505805969E-08  0.93827000000E+00  0.93827000000E+00 0. -1.
     999902    2    1    2    0    0 -0.16741296282E-01 -0.11647955693E-01  0.12537172759E-01  0.10199899379E+01  0.10197089520E+01 0.  0.
     999903    2    3    3    0    0  0.11809978716E-01  0.95249352411E-01 -0.82506931365E-01  0.12798344043E+00  0.18985588457E-01 0.  0.
         14    1    1    2    0    0  0.16741296282E-01  0.11647955693E-01 -0.12537172759E-01  0.23940062110E-01  0.00000000000E+00 0.  1.
     999901    1    3    3    0    0 -0.28551274998E-01 -0.10689730810E+00  0.95044104124E-01  0.89200649746E+00  0.88000000000E+00 0.  1.
        -11    1    4    4    0    0  0.15566278572E-01  0.49038019227E-01 -0.42104617909E-01  0.66483805010E-01  0.51100000000E-03 0.  1.
         11    1    4    4    0    0 -0.37562998561E-02  0.46211333183E-01 -0.40402313456E-01  0.61499635420E-01  0.51100000000E-03 0. -1.
</event>
<event>
 8    1  0.1088088E+005  0.1043930E+01  0.7957747E-01            NaN
         13   -1    0    0    0    0  0.00000000000E+00  0.00000000000E+00  0.74505805969E-08  0.10566000000E+00  0.10566000000E+00 0. -1.
     999900   -1    0    0    0    0 -0.00000000000E+00 -0.00000000000E+00 -0.74505805969E-08  0.93827000000E+00  0.93827000000E+00 0. -1.
     999902    2    1    2    0    0  0.86993777328E-02 -0.17587496641E-01  0.14585485819E-01  0.10194813680E+01  0.10191881691E+01 0.  0.
     999903    2    3    3    0    0  0.41799398781E-01  0.10276018783E+00 -0.59286543079E-01  0.12760903788E+00  0.21501777025E-01 0.  0.
         14    1    1    2    0    0 -0.86993777328E-02  0.17587496641E-01 -0.14585485819E-01  0.24448632019E-01  0.00000000000E+00 0.  1.
     999901    1    3    3    0    0 -0.33100021048E-01 -0.12034768448E+00  0.73872028898E-01  0.89187233010E+00  0.88000000000E+00 0.  1.
        -11    1    4    4    0    0  0.54112756703E-02  0.22964660281E-01 -0.22158555984E-01  0.32371596354E-01  0.51100000000E-03 0. -1.
         11    1    4    4    0    0  0.36388123111E-01  0.79795527553E-01 -0.37127987096E-01  0.95237441523E-01  0.51100000000E-03 0.  1.
</event>
<event>
 8    1  0.1088088E+005  0.1043930E+01  0.7957747E-01            NaN
         13   -1    0    0    0    0  0.00000000000E+00  0.00000000000E+00  0.74505805969E-08  0.10566000000E+00  0.10566000000E+00 0.  1.
     999900   -1    0    0    0    0 -0.00000000000E+00 -0.00000000000E+00 -0.74505805969E-08  0.93827000000E+00  0.93827000000E+00 0. -1.
     999902    2    1    2    0    0 -0.13585345894E-01  0.47625611317E-02 -0.18245910145E-01  0.10206887253E+01  0.10204240869E+01 0.  0.
     999903    2    3    3    0    0  0.11936313169E+00  0.34959117747E-01  0.27605110286E-01  0.12901084301E+00  0.20299221190E-01 0.  0.
         14    1    1    2    0    0  0.13585345894E-01 -0.47625611317E-02  0.18245910145E-01  0.23241274677E-01  0.00000000000E+00 0.  1.
     999901    1    3    3    0    0 -0.13294847758E+00 -0.30196556615E-01 -0.45851020431E-01  0.89167788231E+00  0.88000000000E+00 0.  1.
        -11    1    4    4    0    0  0.62786956867E-01  0.14349925440E-01  0.46745438677E-02  0.64577355119E-01  0.51100000000E-03 0.  1.
         11    1    4    4    0    0  0.56576174823E-01  0.20609192307E-01  0.22930566419E-01  0.64433487896E-01  0.51100000000E-03 0. -1.
</event>
<event>
 8    1  0.1140090E+005  0.1043930E+01  0.7957747E-01            NaN
         13   -1    0    0    0    0  0.00000000000E+00  0.00000000000E+00  0.74505805969E-08  0.10566000000E+00  0.10566000000E+00 0.  1.
     999900   -1    0    0    0    0 -0.00000000000E+00 -0.00000000000E+00 -0.74505805969E-08  0.93827000000E+00  0.93827000000E+00 0.  1.
     999902    2    1    2    0    0  0.30181827267E-02 -0.17697219008E-01  0.15340200769E-01  0.10203159629E+01  0.10200426665E+01 0.  0.
     999903    2    3    3    0    0 -0.12746433430E+00 -0.16806397099E-01  0.12239325945E-01  0.13068902075E+00  0.20005187871E-01 0.  0.
         14    1    1    2    0    0 -0.30181827267E-02  0.17697219008E-01 -0.15340200769E-01  0.23614037080E-01  0.00000000000E+00 0. -1.
     999901    1    3    3    0    0  0.13048251703E+00 -0.89082190873E-03  0.31008748243E-02  0.88962694217E+00  0.88000000000E+00 0.  1.
        -11    1    4    4    0    0 -0.41348823740E-01 -0.13806515570E-01  0.86450375865E-02  0.44444829764E-01  0.51100000000E-03 0.  1.
         11    1    4    4    0    0 -0.86115510563E-01 -0.29998815288E-02  0.35942883584E-02  0.86244190984E-01  0.51100000000E-03 0. -1.
</event>
<event>
 8    1  0.1088088E+005  0.1043930E+01  0.7957747E-01            NaN
         13   -1    0    0    0    0  0.00000000000E+00  0.00000000000E+00  0.74505805969E-08  0.10566000000E+00  0.10566000000E+00 0.  1.
     999900   -1    0    0    0    0 -0.00000000000E+00 -0.00000000000E+00 -0.74505805969E-08  0.93827000000E+00  0.93827000000E+00 0.  1.
     999902    2    1    2    0    0 -0.25795945295E-02 -0.17174970309E-01 -0.13667874810E-01  0.10218292146E+01  0.10215901816E+01 0.  0.
     999903    2    3    3    0    0 -0.80664843651E-01 -0.83233406929E-01  0.59648982315E-01  0.13287680603E+00  0.25760967749E-01 0.  0.
         14    1    1    2    0    0  0.25795945295E-02  0.17174970309E-01  0.13667874810E-01  0.22100785391E-01  0.00000000000E+00 0.  1.
     999901    1    3    3    0    0  0.78085249122E-01  0.66058436619E-01 -0.73316857126E-01  0.88895240858E+00  0.88000000000E+00 0.  1.
        -11    1    4    4    0    0 -0.38198014402E-01 -0.57597862127E-01  0.33718337559E-01  0.76901166666E-01  0.51100000000E-03 0. -1.
         11    1    4    4    0    0 -0.42466829249E-01 -0.25635544801E-01  0.25930644757E-01  0.55975639364E-01  0.51100000000E-03 0.  1.
</event>
<event>
 8    1  0.1088088E+005  0.1043930E+01  0.7957747E-01            NaN
         13   -1    0    0    0    0  0.00000000000E+00  0.00000000000E+00  0.74505805969E-08  0.10566000000E+00  0.10566000000E+00 0.  1.
     999900   -1    0    0    0    0 -0.00000000000E+00 -0.00000000000E+00 -0.74505805969E-08  0.93827000000E+00  0.93827000000E+00 0.  1.
     999902    2    1    2    0    0 -0.31173154645E-02 -0.55320721087E-04  0.26066728021E-01  0.10176774758E+01  0.10173388078E+01 0.  0.
     999903    2    3    3    0    0 -0.68092244629E-01  0.25569677762E-01  0.10735088764E+00  0.13117564470E+00  0.19810968838E-01 0.  0.
         14    1    1    2    0    0  0.31173154645E-02  0.55320721087E-04 -0.26066728021E-01  0.26252524180E-01  0.00000000000E+00 0. -1.
     999901    1    3    3    0    0  0.64974929165E-01 -0.25624998483E-01 -0.81284159621E-01  0.88650183112E+00  0.88000000000E+00 0.  1.
        -11    1    4    4    0    0 -0.37592352725E-01  0.51573299660E-02  0.63674825677E-01  0.74125080653E-01  0.51100000000E-03 0.  1.
         11    1    4    4    0    0 -0.30499891904E-01  0.20412347796E-01  0.43676061966E-01  0.57050564051E-01  0.51100000000E-03 0. -1.
</event>
<event>
 8    1  0.1088088E+005  0.1043930E+01  0.7957747E-01            NaN
         13   -1    0    0    0    0  0.00000000000E+00  0.00000000000E+00  0.74505805969E-08  0.10566000000E+00  0.10566000000E+00 0.  1.
     999900   -1    0    0    0    0 -0.00000000000E+00 -0.00000000000E+00 -0.74505805969E-08  0.93827000000E+00  0.93827000000E+00 0. -1.
     999902    2    1    2    0    0  0.10603208865E-01 -0.52043865897E-02  0.20638938320E-01  0.10201501881E+01  0.10198729955E+01 0.  0.
     999903    2    3    3    0    0  0.56345535390E-01  0.72314547177E-01  0.93722747408E-01  0.13254510213E+00  0.19494553720E-01 0.  0.
         14    1    1    2    0    0 -0.10603208865E-01  0.52043865897E-02 -0.20638938320E-01  0.23779811879E-01  0.00000000000E+00 0. -1.
     999901    1    3    3    0    0 -0.45742326525E-01 -0.77518933767E-01 -0.73083809088E-01  0.88760508599E+00  0.88000000000E+00 0. -1.
        -11    1    4    4    0    0  0.15959146974E-01  0.35979843338E-01  0.37657102381E-01  0.54475333679E-01  0.51100000000E-03 0. -1.
         11    1    4    4    0    0  0.40386388417E-01  0.36334703839E-01  0.56065645027E-01  0.78069768450E-01  0.51100000000E-03 0.  1.
</event>
<event>
 8    1  0.1088088E+005  0.1043930E+01  0.7957747E-01            NaN
         13   -1    0    0    0    0  0.00000000000E+00  0.00000000000E+00  0.74505805969E-08  0.10566000000E+00  0.10566000000E+00 0.  1.
     999900   -1    0    0    0    0 -0.00000000000E+00 -0.00000000000E+00 -0.74505805969E-08  0.93827000000E+00  0.93827000000E+00 0.  1.
     999902    2    1    2    0    0  0.12166295906E-02  0.40272009032E-02  0.22503228892E-01  0.10210369040E+01  0.10207802239E+01 0.  0.
     999903    2    3    3    0    0 -0.10010502791E-01 -0.16484098195E-01  0.13112972760E+00  0.13404959961E+00  0.20058764613E-01 0.  0.
         14    1    1    2    0    0 -0.12166295906E-02 -0.40272009032E-02 -0.22503228892E-01  0.22893096017E-01  0.00000000000E+00 0. -1.
     999901    1    3    3    0    0  0.11227132382E-01  0.20511299098E-01 -0.10862649870E+00  0.88698730437E+00  0.88000000000E+00 0.  1.
        -11    1    4    4    0    0  0.51111232831E-02 -0.31915810380E-02  0.53855625875E-01  0.54194089439E-01  0.51100000000E-03 0.  1.
         11    1    4    4    0    0 -0.15121626074E-01 -0.13292517157E-01  0.77274101720E-01  0.79855510174E-01  0.51100000000E-03 0. -1.
</event>
<event>
 8    1  0.1088088E+005  0.1043930E+01  0.7957747E-01            NaN
         13   -1    0    0    0    0  0.00000000000E+00  0.00000000000E+00  0.74505805969E-08  0.10566000000E+00  0.10566000000E+00 0. -1.
     999900   -1    0    0    0    0 -0.00000000000E+00 -0.00000000000E+00 -0.74505805969E-08  0.93827000000E+00  0.93827000000E+00 0. -1.
     999902    2    1    2    0    0 -0.16577520306E-01  0.46832288529E-02  0.16331525266E-01  0.10201925711E+01  0.10199163773E+01 0.  0.
     999903    2    3    3    0    0  0.53698188369E-01  0.11147711650E+00 -0.32887550745E-01  0.12959382471E+00  0.20058052574E-01 0.  0.
         14    1    1    2    0    0  0.16577520306E-01 -0.46832288529E-02 -0.16331525266E-01  0.23737428873E-01  0.00000000000E+00 0.  1.
     999901    1    3    3    0    0 -0.70275708675E-01 -0.10679388765E+00  0.49219076011E-01  0.89059874641E+00  0.88000000000E+00 0. -1.
        -11    1    4    4    0    0  0.21983938581E-01  0.60937253284E-01 -0.93684434080E-02  0.65457400240E-01  0.51100000000E-03 0.  1.
         11    1    4    4    0    0  0.31714249788E-01  0.50539863215E-01 -0.23519107337E-01  0.64136424474E-01  0.51100000000E-03 0. -1.
</event>
<event>
 8    1  0.1088088E+005  0.1043930E+01  0.7957747E-01            NaN
         13   -1    0    0    0    0  0.00000000000E+00  0.00000000000E+00  0.74505805969E-08  0.10566000000E+00  0.10566000000E+00 0.  1.
     999900   -1    0    0    0    0 -0.00000000000E+00 -0.00000000000E+00 -0.74505805969E-08  0.93827000000E+00  0.93827000000E+00 0. -1.
     999902    2    1    2    0    0  0.81610751869E-02  0.14234301297E-01  0.17336979419E-01  0.10200597395E+01  0.10197804091E+01 0.  0.
     999903    2    3    3    0    0  0.35502832326E-01  0.12529003241E+00 -0.11194699459E-01  0.13219995112E+00  0.19835888046E-01 0.  0.
         14    1    1    2    0    0 -0.81610751869E-02 -0.14234301297E-01 -0.17336979419E-01  0.23870260514E-01  0.00000000000E+00 0. -1.
     999901    1    3    3    0    0 -0.27341757139E-01 -0.11105573112E+00  0.28531678878E-01  0.88785978837E+00  0.88000000000E+00 0.  1.
        -11    1    4    4    0    0  0.88490990070E-02  0.12071413773E-01 -0.47308691907E-02  0.15705662291E-01  0.51100000000E-03 0. -1.
         11    1    4    4    0    0  0.26653733319E-01  0.11321861864E+00 -0.64638302683E-02  0.11649428883E+00  0.51100000000E-03 0.  1.
</event>
<event>
 8    1  0.1088088E+005  0.1043930E+01  0.7957747E-01            NaN
         13   -1    0    0    0    0  0.00000000000E+00  0.00000000000E+00  0.74505805969E-08  0.10566000000E+00  0.10566000000E+00 0. -1.
     999900   -1    0    0    0    0 -0.00000000000E+00 -0.00000000000E+00 -0.74505805969E-08  0.93827000000E+00  0.93827000000E+00 0.  1.
     999902    2    1    2    0    0 -0.64602890089E-02 -0.60712001296E-03 -0.22521385914E-01  0.10204924926E+01  0.10202233142E+01 0.  0.
     999903    2    3    3    0    0 -0.90798471534E-01  0.83589630665E-01 -0.43120714634E-01  0.13222093831E+00  0.19783622228E-01 0.  0.
         14    1    1    2    0    0  0.64602890089E-02  0.60712001296E-03  0.22521385914E-01  0.23437507382E-01  0.00000000000E+00 0. -1.
     999901    1    3    3    0    0  0.84338182525E-01 -0.84196750677E-01  0.20599328721E-01  0.88827155431E+00  0.88000000000E+00 0. -1.
        -11    1    4    4    0    0 -0.34936834385E-01  0.26084655144E-01 -0.24111294645E-01  0.49825769249E-01  0.51100000000E-03 0.  1.
         11    1    4    4    0    0 -0.55861637149E-01  0.57504975521E-01 -0.19009419989E-01  0.82395169057E-01  0.51100000000E-03 0. -1.
</event>
<event>
 8    1  0.1088088E+005  0.1043930E+01  0.7957747E-01            NaN
         13   -1    0    0    0    0  0.00000000000E+00  0.00000000000E+00  0.74505805969E-08  0.10566000000E+00  0.10566000000E+00 0. -1.
     999900   -1    0    0    0    0 -0.00000000000E+00 -0.00000000000E+00 -0.74505805969E-08  0.93827000000E+00  0.93827000000E+00 0.  1.
     999902    2    1    2    0    0  0.13406575513E-01 -0.25359314741E-01  0.97702185381E-02  0.10136267282E+01  0.10131736553E+01 0.  0.
     999903    2    3    3    0    0 -0.46991391158E-01 -0.10342463788E+00 -0.50827384699E-01  0.12603775882E+00  0.19931057437E-01 0.  0.
         14    1    1    2    0    0 -0.13406575513E-01  0.25359314741E-01 -0.97702185381E-02  0.30303271793E-01  0.00000000000E+00 0. -1.
     999901    1    3    3    0    0  0.60397966670E-01  0.78065323137E-01  0.60597603237E-01  0.88758896938E+00  0.88000000000E+00 0. -1.
        -11    1    4    4    0    0 -0.14942642934E-01 -0.34284680655E-01 -0.27211351554E-01  0.46254088250E-01  0.51100000000E-03 0.  1.
         11    1    4    4    0    0 -0.32048748223E-01 -0.69139957223E-01 -0.23616033145E-01  0.79783670573E-01  0.51100000000E-03 0. -1.
</event>
<event>
 8    1  0.1088088E+005  0.1043930E+01  0.7957747E-01            NaN
         13   -1    0    0    0    0  0.00000000000E+00  0.00000000000E+00  0.74505805969E-08  0.10566000000E+00  0.10566000000E+00 0. -1.
     999900   -1    0    0    0    0 -0.00000000000E+00 -0.00000000000E+00 -0.74505805969E-08  0.93827000000E+00  0.93827000000E+00 0. -1.
     999902    2    1    2    0    0 -0.17969862398E-01 -0.86853262906E-02  0.14458308714E-01  0.10192846447E+01  0.10189866502E+01 0.  0.
     999903    2    3    3    0    0 -0.62901644401E-02 -0.67798631332E-01 -0.10761064719E+00  0.12881756042E+00  0.19434297151E-01 0.  0.
         14    1    1    2    0    0  0.17969862398E-01  0.86853262906E-02 -0.14458308714E-01  0.24645355308E-01  0.00000000000E+00 0.  1.
     999901    1    3    3    0    0 -0.11679697958E-01  0.59113305041E-01  0.12206895590E+00  0.89046708427E+00  0.88000000000E+00 0.  1.
        -11    1    4    4    0    0 -0.10078244797E-01 -0.25105666420E-01 -0.51854135882E-01  0.58489127483E-01  0.51100000000E-03 0.  1.
         11    1    4    4    0    0  0.37880803567E-02 -0.42692964912E-01 -0.55756511303E-01  0.70328432938E-01  0.51100000000E-03 0. -1.
</event>
<event>
 8    1  0.1088088E+005  0.1043930E+01  0.7957747E-01            NaN
         13   -1    0    0    0    0  0.00000000000E+00  0.00000000000E+00  0.74505805969E-08  0.10566000000E+00  0.10566000000E+00 0.  1.
     999900   -1    0    0    0    0 -0.00000000000E+00 -0.00000000000E+00 -0.74505805969E-08  0.93827000000E+00  0.93827000000E+00 0.  1.
     999902    2    1    2    0    0 -0.42248701068E-02 -0.20275377312E-01 -0.10556117572E-01  0.10206840956E+01  0.10204193505E+01 0.  0.
     999903    2    3    3    0    0  0.10194172722E+00  0.75830746981E-01 -0.12462471099E-01  0.12910607452E+00  0.19252203912E-01 0.  0.
         14    1    1    2    0    0  0.42248701068E-02  0.20275377312E-01  0.10556117572E-01  0.23245904387E-01  0.00000000000E+00 0.  1.
     999901    1    3    3    0    0 -0.10616659733E+00 -0.96106124293E-01  0.19063535271E-02  0.89157802109E+00  0.88000000000E+00 0.  1.
        -11    1    4    4    0    0  0.45250748471E-01  0.29729852817E-01 -0.14333604041E-01  0.56010782101E-01  0.51100000000E-03 0.  1.
         11    1    4    4    0    0  0.56690978749E-01  0.46100894164E-01  0.18711329418E-02  0.73095292418E-01  0.51100000000E-03 0. -1.
</event>
<event>
 8    1  0.1088088E+005  0.1043930E+01  0.7957747E-01            NaN
         13   -1    0    0    0    0  0.00000000000E+00  0.00000000000E+00  0.74505805969E-08  0.10566000000E+00  0.10566000000E+00 0. -1.
     999900   -1    0    0    0    0 -0.00000000000E+00 -0.00000000000E+00 -0.74505805969E-08  0.93827000000E+00  0.93827000000E+00 0. -1.
     999902    2    1    2    0    0  0.45255212586E-02  0.18638005692E-01 -0.13368226922E-01  0.10205512684E+01  0.10202834539E+01 0.  0.
     999903    2    3    3    0    0 -0.71861154884E-01 -0.48415194135E-01 -0.95892230196E-01  0.13086521874E+00  0.20550646187E-01 0.  0.
         14    1    1    2    0    0 -0.45255212586E-02 -0.18638005692E-01  0.13368226922E-01  0.23378731571E-01  0.00000000000E+00 0. -1.
     999901    1    3    3    0    0  0.76386676143E-01  0.67053199827E-01  0.82524003275E-01  0.88968604969E+00  0.88000000000E+00 0. -1.
        -11    1    4    4    0    0 -0.42008035617E-01 -0.27797939261E-01 -0.40450892767E-01  0.64606008469E-01  0.51100000000E-03 0. -1.
         11    1    4    4    0    0 -0.29853119267E-01 -0.20617254874E-01 -0.55441337429E-01  0.66259210269E-01  0.51100000000E-03 0.  1.
</event>
<event>
 8    1  0.1088088E+005  0.1043930E+01  0.7957747E-01            NaN
         13   -1    0    0    0    0  0.00000000000E+00  0.00000000000E+00  0.74505805969E-08  0.10566000000E+00  0.10566000000E+00 0.  1.
     999900   -1    0    0    0    0 -0.00000000000E+00 -0.00000000000E+00 -0.74505805969E-08  0.93827000000E+00  0.93827000000E+00 0.  1.
     999902    2    1    2    0    0  0.13337831144E-01 -0.19820309224E-01 -0.15240188162E-02  0.10199912233E+01  0.10197102679E+01 0.  0.
     999903    2    3    3    0    0  0.19465244779E-01  0.87339523066E-01  0.90510496250E-01  0.12870500280E+00  0.19124324076E-01 0.  0.
         14    1    1    2    0    0 -0.13337831144E-01  0.19820309224E-01  0.15240188162E-02  0.23938776717E-01  0.00000000000E+00 0.  1.
     999901    1    3    3    0    0 -0.61274136345E-02 -0.10715983229E+00 -0.92034515066E-01  0.89128622048E+00  0.88000000000E+00 0.  1.
        -11    1    4    4    0    0  0.10981999690E-01  0.25464104241E-01  0.38371273289E-01  0.47345967694E-01  0.51100000000E-03 0. -1.
         11    1    4    4    0    0  0.84832450889E-02  0.61875418825E-01  0.52139222961E-01  0.81359035109E-01  0.51100000000E-03 0.  1.
</event>
<event>
 8    1  0.1088088E+005  0.1043930E+01  0.7957747E-01            NaN
         13   -1    0    0    0    0  0.00000000000E+00  0.00000000000E+00  0.74505805969E-08  0.10566000000E+00  0.10566000000E+00 0. -1.
     999900   -1    0    0    0    0 -0.00000000000E+00 -0.00000000000E+00 -0.74505805969E-08  0.93827000000E+00  0.93827000000E+00 0. -1.
     999902    2    1    2    0    0  0.14662856811E-03  0.15424689375E-01  0.19037205031E-01  0.10194278018E+01  0.10191333011E+01 0.  0.
     999903    2    3    3    0    0 -0.59594462420E-01 -0.28936657304E-01  0.11167520812E+00  0.13144203238E+00  0.20416309223E-01 0.  0.
         14    1    1    2    0    0 -0.14662856811E-03 -0.15424689375E-01 -0.19037205031E-01  0.24502198221E-01  0.00000000000E+00 0.  1.
     999901    1    3    3    0    0  0.59741090988E-01  0.44361346680E-01 -0.92638003087E-01  0.88798576939E+00  0.88000000000E+00 0. -1.
        -11    1    4    4    0    0 -0.13643712859E-01 -0.13917640491E-01  0.20811429474E-01  0.28517158610E-01  0.51100000000E-03 0.  1.
         11    1    4    4    0    0 -0.45950749561E-01 -0.15019016813E-01  0.90863778643E-01  0.10292487377E+00  0.51100000000E-03 0. -1.
</event>
<event>
 8    1  0.1088088E+005  0.1043930E+01  0.7957747E-01            NaN
         13   -1    0    0    0    0  0.00000000000E+00  0.00000000000E+00  0.74505805969E-08  0.10566000000E+00  0.10566000000E+00 0.  1.
     999900   -1    0    0    0    0 -0.00000000000E+00 -0.00000000000E+00 -0.74505805969E-08  0.93827000000E+00  0.93827000000E+00 0.  1.
     999902    2    1    2    0    0  0.34531873118E-02 -0.19490452387E-01  0.10512991086E-01  0.10215173871E+01  0.10212714854E+01 0.  0.
     999903    2    3    3    0    0 -0.12230198544E+00  0.11026007340E-01 -0.40151162866E-01  0.13061196320E+00  0.19183862219E-01 0.  0.
         14    1    1    2    0    0 -0.34531873118E-02  0.19490452387E-01 -0.10512991086E-01  0.22412612932E-01  0.00000000000E+00 0. -1.
     999901    1    3    3    0    0  0.12575517275E+00 -0.30516459727E-01  0.50664153952E-01  0.89090542387E+00  0.88000000000E+00 0.  1.
        -11    1    4    4    0    0 -0.67886608284E-01 -0.62134416466E-03 -0.29149653366E-01  0.73884647020E-01  0.51100000000E-03 0.  1.
         11    1    4    4    0    0 -0.54415377158E-01  0.11647351505E-01 -0.11001509499E-01  0.56727316176E-01  0.51100000000E-03 0. -1.
</event>
<event>
 8    1  0.1088088E+005  0.1043930E+01  0.7957747E-01            NaN
         13   -1    0    0    0    0  0.00000000000E+00  0.00000000000E+00  0.74505805969E-08  0.10566000000E+00  0.10566000000E+00 0.  1.
     999900   -1    0    0    0    0 -0.00000000000E+00 -0.00000000000E+00 -0.74505805969E-08  0.93827000000E+00  0.93827000000E+00 0.  1.
     999902    2    1    2    0    0  0.49164943912E-02 -0.22651923290E-01 -0.27618356547E-02  0.10205867080E+01  0.10203197142E+01 0.  0.
     999903    2    3    3    0    0  0.11131452340E+00  0.35253584196E-01  0.55043441474E-01  0.13040973769E+00  0.18525142847E-01 0.  0.
         14    1    1    2    0    0 -0.49164943912E-02  0.22651923290E-01  0.27618356547E-02  0.23343292014E-01  0.00000000000E+00 0.  1.
     999901    1    3    3    0    0 -0.10639802901E+00 -0.57905507487E-01 -0.57805277128E-01  0.89017697029E+00  0.88000000000E+00 0. -1.
        -11    1    4    4    0    0  0.64383584771E-01  0.21014225973E-01  0.21765660610E-01  0.71139642845E-01  0.51100000000E-03 0. -1.
         11    1    4    4    0    0  0.46930938630E-01  0.14239358223E-01  0.33277780863E-01  0.59270094850E-01  0.51100000000E-03 0.  1.
</event>
<event>
 8    1  0.1088088E+005  0.1043930E+01  0.7957747E-01            NaN
         13   -1    0    0    0    0  0.00000000000E+00  0.00000000000E+00  0.74505805969E-08  0.10566000000E+00  0.10566000000E+00 0.  1.
     999900   -1    0    0    0    0 -0.00000000000E+00 -0.00000000000E+00 -0.74505805969E-08  0.93827000000E+00  0.93827000000E+00 0.  1.
     999902    2    1    2    0    0 -0.22756526147E-01 -0.40408413856E-02 -0.62059715570E-02  0.10199988077E+01  0.10197180325E+01 0.  0.
     999903    2    3    3    0    0 -0.41319163716E-01  0.64156160471E-01  0.10365693760E+00  0.13035547391E+00  0.20603462029E-01 0.  0.
         14    1    1    2    0    0  0.22756526147E-01  0.40408413856E-02  0.62059715570E-02  0.23931192289E-01  0.00000000000E+00 0. -1.
     999901    1    3    3    0    0  0.18562637569E-01 -0.68197001857E-01 -0.10986290916E+00  0.88964333381E+00  0.88000000000E+00 0. -1.
        -11    1    4    4    0    0 -0.27684876502E-01  0.30213272103E-01  0.42133139557E-01  0.58777178973E-01  0.51100000000E-03 0.  1.
         11    1    4    4    0    0 -0.13634287214E-01  0.33942888368E-01  0.61523798044E-01  0.71578294932E-01  0.51100000000E-03 0. -1.
</event>
<event>
 8    1  0.1088088E+005  0.1043930E+01  0.7957747E-01            NaN
         13   -1    0    0    0    0  0.00000000000E+00  0.00000000000E+00  0.74505805969E-08  0.10566000000E+00  0.10566000000E+00 0. -1.
     999900   -1    0    0    0    0 -0.00000000000E+00 -0.00000000000E+00 -0.74505805969E-08  0.93827000000E+00  0.93827000000E+00 0. -1.
     999902    2    1    2    0    0  0.25246158264E-02 -0.80686802932E-03 -0.21086614065E-01  0.10226774704E+01  0.10224566194E+01 0.  0.
     999903    2    3    3    0    0 -0.10346670269E+00 -0.57168237692E-01 -0.59106645619E-01  0.13371386801E+00  0.20303619784E-01 0.  0.
         14    1    1    2    0    0 -0.25246158264E-02  0.80686802932E-03  0.21086614065E-01  0.21252529586E-01  0.00000000000E+00 0. -1.
     999901    1    3    3    0    0  0.10599131852E+00  0.56361369663E-01  0.38020031554E-01  0.88896360240E+00  0.88000000000E+00 0. -1.
        -11    1    4    4    0    0 -0.33342917743E-01 -0.28501091212E-01 -0.17049263116E-01  0.47063795615E-01  0.51100000000E-03 0.  1.
         11    1    4    4    0    0 -0.70123784949E-01 -0.28667146481E-01 -0.42057382503E-01  0.86650072400E-01  0.51100000000E-03 0. -1.
</event>
<event>
 8    1  0.1088088E+005  0.1043930E+01  0.7957747E-01            NaN
         13   -1    0    0    0    0  0.00000000000E+00  0.00000000000E+00  0.74505805969E-08  0.10566000000E+00  0.10566000000E+00 0. -1.
     999900   -1    0    0    0    0 -0.00000000000E+00 -0.00000000000E+00 -0.74505805969E-08  0.93827000000E+00  0.93827000000E+00 0. -1.
     999902    2    1    2    0    0  0.84919634395E-02 -0.46997086278E-02 -0.21928871386E-01  0.10199492555E+01  0.10196673025E+01 0.  0.
     999903    2    3    3    0    0  0.97516209215E-03 -0.98128436137E-01 -0.87004305050E-01  0.13258222805E+00  0.19446263834E-01 0.  0.
         14    1    1    2    0    0 -0.84919634395E-02  0.46997086278E-02  0.21928871386E-01  0.23980744453E-01  0.00000000000E+00 0. -1.
     999901    1    3    3    0    0  0.75168013474E-02  0.93428727509E-01  0.65075433664E-01  0.88736702750E+00  0.88000000000E+00 0.  1.
        -11    1    4    4    0    0 -0.67443509423E-02 -0.80480225411E-01 -0.69574923519E-01  0.10659964379E+00  0.51100000000E-03 0.  1.
         11    1    4    4    0    0  0.77195130345E-02 -0.17648210726E-01 -0.17429381530E-01  0.25982584261E-01  0.51100000000E-03 0. -1.
</event>
<event>
 8    1  0.1088088E+005  0.1043930E+01  0.7957747E-01            NaN
         13   -1    0    0    0    0  0.00000000000E+00  0.00000000000E+00  0.74505805969E-08  0.10566000000E+00  0.10566000000E+00 0. -1.
     999900   -1    0    0    0    0 -0.00000000000E+00 -0.00000000000E+00 -0.74505805969E-08  0.93827000000E+00  0.93827000000E+00 0. -1.
     999902    2    1    2    0    0 -0.13938539188E-01  0.76658289888E-02  0.24233442932E-01  0.10149419410E+01  0.10145278882E+01 0.  0.
     999903    2    3    3    0    0  0.11461186912E+00  0.21084984864E-01 -0.35844504840E-01  0.12347425171E+00  0.19509105045E-01 0.  0.
         14    1    1    2    0    0  0.13938539188E-01 -0.76658289888E-02 -0.24233442932E-01  0.28988059009E-01  0.00000000000E+00 0.  1.
     999901    1    3    3    0    0 -0.12855040830E+00 -0.13419155875E-01  0.60077947772E-01  0.89146768928E+00  0.88000000000E+00 0.  1.
        -11    1    4    4    0    0  0.93822903340E-01  0.15048810700E-01 -0.36546758030E-01  0.10180928513E+00  0.51100000000E-03 0.  1.
         11    1    4    4    0    0  0.20788965776E-01  0.60361741635E-02  0.70225319020E-03  0.21664966585E-01  0.51100000000E-03 0. -1.
</event>
<event>
 8    1  0.1088088E+005  0.1043930E+01  0.7957747E-01            NaN
         13   -1    0    0    0    0  0.00000000000E+00  0.00000000000E+00  0.74505805969E-08  0.10566000000E+00  0.10566000000E+00 0.  1.
     999900   -1    0    0    0    0 -0.00000000000E+00 -0.00000000000E+00 -0.74505805969E-08  0.93827000000E+00  0.93827000000E+00 0. -1.
     999902    2    1    2    0    0 -0.20875797261E-01  0.47216210680E-02 -0.12441228182E-01  0.10191736518E+01  0.10188729341E+01 0.  0.
     999903    2    3    3    0    0  0.53468814099E-01 -0.11446415086E+00  0.96304484356E-02  0.12775931023E+00  0.16393288271E-01 0.  0.
         14    1    1    2    0    0  0.20875797261E-01 -0.47216210680E-02  0.12441228182E-01  0.24756348185E-01  0.00000000000E+00 0.  1.
     999901    1    3    3    0    0 -0.74344611360E-01  0.11918577193E+00 -0.22071676618E-01  0.89141434158E+00  0.88000000000E+00 0. -1.
        -11    1    4    4    0    0  0.20367044846E-01 -0.55278686297E-01 -0.20316757698E-02  0.58948608991E-01  0.51100000000E-03 0.  1.
         11    1    4    4    0    0  0.33101769253E-01 -0.59185464565E-01  0.11662124205E-01  0.68810701242E-01  0.51100000000E-03 0. -1.
</event>
<event>
 8    1  0.1088088E+005  0.1043930E+01  0.7957747E-01            NaN
         13   -1    0    0    0    0  0.00000000000E+00  0.00000000000E+00  0.74505805969E-08  0.10566000000E+00  0.10566000000E+00 0. -1.
     999900   -1    0    0    0    0 -0.00000000000E+00 -0.00000000000E+00 -0.74505805969E-08  0.93827000000E+00  0.93827000000E+00 0. -1.
     999902    2    1    2    0    0  0.39281769087E-02  0.23983332105E-01  0.57270950040E-02  0.10189614115E+01  0.10186554510E+01 0.  0.
     999903    2    3    3    0    0  0.85569270222E-01  0.17795568799E-01 -0.93539328901E-01  0.12960356486E+00  0.20216223627E-01 0.  0.
         14    1    1    2    0    0 -0.39281769087E-02 -0.23983332105E-01 -0.57270950040E-02  0.24968588463E-01  0.00000000000E+00 0.  1.
     999901    1    3    3    0    0 -0.81641093313E-01  0.61877633053E-02  0.99266423905E-01  0.88935784668E+00  0.88000000000E+00 0.  1.
        -11    1    4    4    0    0  0.73951171470E-01  0.21041331636E-01 -0.74514656292E-01  0.10707104427E+00  0.51100000000E-03 0. -1.
         11    1    4    4    0    0  0.11618098752E-01 -0.32457628367E-02 -0.19024672609E-01  0.22532520584E-01  0.51100000000E-03 0.  1.
</event>
<event>
 8    1  0.1088088E+005  0.1043930E+01  0.7957747E-01            NaN
         13   -1    0    0    0    0  0.00000000000E+00  0.00000000000E+00  0.74505805969E-08  0.10566000000E+00  0.10566000000E+00 0.  1.
     999900   -1    0    0    0    0 -0.00000000000E+00 -0.00000000000E+00 -0.74505805969E-08  0.93827000000E+00  0.93827000000E+00 0. -1.
     999902    2    1    2    0    0  0.21706547681E-01 -0.20687284248E-02 -0.89734374384E-02  0.10203508476E+01  0.10200783674E+01 0.  0.
     999903    2    3    3    0    0 -0.80537992120E-01  0.94662266003E-01 -0.27707073975E-01  0.12896889783E+00  0.20444605129E-01 0.  0.
         14    1    1    2    0    0 -0.21706547681E-01  0.20687284248E-02  0.89734374384E-02  0.23579152423E-01  0.00000000000E+00 0.  1.
     999901    1    3    3    0    0  0.10224453980E+00 -0.96730994428E-01  0.18733636537E-01  0.89138194975E+00  0.88000000000E+00 0.  1.
        -11    1    4    4    0    0 -0.18564396887E-01  0.17283216269E-01 -0.13739370880E-01  0.28850958902E-01  0.51100000000E-03 0. -1.
         11    1    4    4    0    0 -0.61973595232E-01  0.77379049735E-01 -0.13967703095E-01  0.10011793893E+00  0.51100000000E-03 0.  1.
</event>
<event>
 8    1  0.1088088E+005  0.1043930E+01  0.7957747E-01            NaN
         13   -1    0    0    0    0  0.00000000000E+00  0.00000000000E+00  0.74505805969E-08  0.10566000000E+00  0.10566000000E+00 0. -1.
     999900   -1    0    0    0    0 -0.00000000000E+00 -0.00000000000E+00 -0.74505805969E-08  0.93827000000E+00  0.93827000000E+00 0. -1.
     999902    2    1    2    0    0 -0.14624194815E-01 -0.18571672221E-01 -0.18343932583E-02  0.10202205276E+01  0.10199449916E+01 0.  0.
     999903    2    3    3    0    0  0.56933922905E-01  0.11210869819E+00  0.86305103000E-02  0.12763583266E+00  0.20164034440E-01 0.  0.
         14    1    1    2    0    0  0.14624194815E-01  0.18571672221E-01  0.18343932583E-02  0.23709472405E-01  0.00000000000E+00 0.  1.
     999901    1    3    3    0    0 -0.71558117720E-01 -0.13068037041E+00 -0.10464903558E-01  0.89258469493E+00  0.88000000000E+00 0.  1.
        -11    1    4    4    0    0  0.42242559503E-01  0.98724044392E-01  0.89197340052E-02  0.10775292827E+00  0.51100000000E-03 0.  1.
         11    1    4    4    0    0  0.14691363403E-01  0.13384653794E-01 -0.28922370527E-03  0.19882904395E-01  0.51100000000E-03 0. -1.
</event>
<event>
 8    1  0.1088088E+005  0.1043930E+01  0.7957747E-01            NaN
         13   -1    0    0    0    0  0.00000000000E+00  0.00000000000E+00  0.74505805969E-08  0.10566000000E+00  0.10566000000E+00 0.  1.
     999900   -1    0    0    0    0 -0.00000000000E+00 -0.00000000000E+00 -0.74505805969E-08  0.93827000000E+00  0.93827000000E+00 0.  1.
     999902    2    1    2    0    0 -0.21668003875E-02 -0.39502375483E-02 -0.26050624878E-01  0.10174926314E+01  0.10171491142E+01 0.  0.
     999903    2    3    3    0    0 -0.41052090647E-01  0.10028210664E-01  0.11610872053E+00  0.12512681950E+00  0.19739473641E-01 0.  0.
         14    1    1    2    0    0  0.21668003875E-02  0.39502375483E-02  0.26050624878E-01  0.26437368575E-01  0.00000000000E+00 0.  1.
     999901    1    3    3    0    0  0.38885290259E-01 -0.13978448212E-01 -0.14215934540E+00  0.89236581193E+00  0.88000000000E+00 0.  1.
        -11    1    4    4    0    0 -0.16953702823E-01 -0.46450064498E-02  0.33566117991E-01  0.37893924610E-01  0.51100000000E-03 0. -1.
         11    1    4    4    0    0 -0.24098387824E-01  0.14673217113E-01  0.82542602535E-01  0.87232894887E-01  0.51100000000E-03 0.  1.
</event>
<event>
 8    1  0.1088088E+005  0.1043930E+01  0.7957747E-01            NaN
         13   -1    0    0    0    0  0.00000000000E+00  0.00000000000E+00  0.74505805969E-08  0.10566000000E+00  0.10566000000E+00 0. -1.
     999900   -1    0    0    0    0 -0.00000000000E+00 -0.00000000000E+00 -0.74505805969E-08  0.93827000000E+00  0.93827000000E+00 0.  1.
     999902    2    1    2    0    0  0.21609297184E-01 -0.49058568185E-02 -0.78609560952E-02  0.10204177949E+01  0.10201468779E+01 0.  0.
     999903    2    3    3    0    0  0.84036184512E-01 -0.97818921848E-01 -0.25873277336E-01  0.13314421953E+00  0.20672081039E-01 0.  0.
         14    1    1    2    0    0 -0.21609297184E-01  0.49058568185E-02  0.78609560952E-02  0.23512205057E-01  0.00000000000E+00 0. -1.
     999901    1    3    3    0    0 -0.62426887328E-01  0.92913065029E-01  0.18012321241E-01  0.88727357542E+00  0.88000000000E+00 0. -1.
        -11    1    4    4    0    0  0.49508924958E-01 -0.72231258174E-01 -0.15510328868E-01  0.88934356300E-01  0.51100000000E-03 0.  1.
         11    1    4    4    0    0  0.34527259554E-01 -0.25587663674E-01 -0.10362948469E-01  0.44209863227E-01  0.51100000000E-03 0. -1.
</event>
<event>
 8    1  0.1088088E+005  0.1043930E+01  0.7957747E-01            NaN
         13   -1    0    0    0    0  0.00000000000E+00  0.00000000000E+00  0.74505805969E-08  0.10566000000E+00  0.10566000000E+00 0.  1.
     999900   -1    0    0    0    0 -0.00000000000E+00 -0.00000000000E+00 -0.74505805969E-08  0.93827000000E+00  0.93827000000E+00 0.  1.
     999902    2    1    2    0    0  0.22401345874E-01 -0.19713116065E-02 -0.82383976260E-02  0.10199805206E+01  0.10196993110E+01 0.  0.
     999903    2    3    3    0    0  0.42431932265E-01  0.12069793442E+00  0.20573916580E-01  0.13077912738E+00  0.17647488917E-01 0.  0.
         14    1    1    2    0    0 -0.22401345874E-01  0.19713116065E-02  0.82383976260E-02  0.23949479365E-01  0.00000000000E+00 0.  1.
     999901    1    3    3    0    0 -0.20030586391E-01 -0.12266924603E+00 -0.28812314206E-01  0.88920139325E+00  0.88000000000E+00 0.  1.
        -11    1    4    4    0    0  0.32802974512E-02  0.93269579682E-02  0.66070587170E-02  0.11902388088E-01  0.51100000000E-03 0.  1.
         11    1    4    4    0    0  0.39151634814E-01  0.11137097646E+00  0.13966857863E-01  0.11887673929E+00  0.51100000000E-03 0. -1.
</event>
<event>
 8    1  0.1088088E+005  0.1043930E+01  0.7957747E-01            NaN
         13   -1    0    0    0    0  0.00000000000E+00  0.00000000000E+00  0.74505805969E-08  0.10566000000E+00  0.10566000000E+00 0.  1.
     999900   -1    0    0    0    0 -0.00000000000E+00 -0.00000000000E+00 -0.74505805969E-08  0.93827000000E+00  0.93827000000E+00 0.  1.
     999902    2    1    2    0    0 -0.23393422169E-01  0.77954319691E-03  0.19102141212E-02  0.10204457754E+01  0.10201755102E+01 0.  0.
     999903    2    3    3    0    0  0.25472087149E-01  0.10378226822E+00 -0.71427427250E-01  0.13006618834E+00  0.19893455349E-01 0.  0.
         14    1    1    2    0    0  0.23393422169E-01 -0.77954319691E-03 -0.19102141212E-02  0.23484224628E-01  0.00000000000E+00 0.  1.
     999901    1    3    3    0    0 -0.48865509319E-01 -0.10300272502E+00  0.73337641371E-01  0.89037958703E+00  0.88000000000E+00 0. -1.
        -11    1    4    4    0    0  0.79926964140E-02  0.68463765889E-01 -0.50451179293E-01  0.85421033994E-01  0.51100000000E-03 0.  1.
         11    1    4    4    0    0  0.17479390735E-01  0.35318502328E-01 -0.20976247957E-01  0.44645154345E-01  0.51100000000E-03 0. -1.
</event>
<event>
 8    1  0.1088088E+005  0.1043930E+01  0.7957747E-01            NaN
         13   -1    0    0    0    0  0.00000000000E+00  0.00000000000E+00  0.74505805969E-08  0.10566000000E+00  0.10566000000E+00 0. -1.
     999900   -1    0    0    0    0 -0.00000000000E+00 -0.00000000000E+00 -0.74505805969E-08  0.93827000000E+00  0.93827000000E+00 0.  1.
     999902    2    1    2    0    0 -0.21846278504E-02 -0.24429924339E-01 -0.22525076513E-02  0.10192993769E+01  0.10190017430E+01 0.  0.
     999903    2    3    3    0    0 -0.96991244749E-01 -0.82045579571E-01  0.28639712936E-01  0.13179603179E+00  0.20277626949E-01 0.  0.
         14    1    1    2    0    0  0.21846278504E-02  0.24429924339E-01  0.22525076513E-02  0.24630623069E-01  0.00000000000E+00 0. -1.
     999901    1    3    3    0    0  0.94806616898E-01  0.57615655231E-01 -0.30892220587E-01  0.88750334514E+00  0.88000000000E+00 0. -1.
        -11    1    4    4    0    0 -0.43295294537E-01 -0.25221112408E-01  0.64253600585E-02  0.50518644212E-01  0.51100000000E-03 0. -1.
         11    1    4    4    0    0 -0.53695950212E-01 -0.56824467162E-01  0.22214352878E-01  0.81277387582E-01  0.51100000000E-03 0.  1.
</event>
<event>
 8    1  0.1088088E+005  0.1043930E+01  0.7957747E-01            NaN
         13   -1    0    0    0    0  0.00000000000E+00  0.00000000000E+00  0.74505805969E-08  0.10566000000E+00  0.10566000000E+00 0.  1.
     999900   -1    0    0    0    0 -0.00000000000E+00 -0.00000000000E+00 -0.74505805969E-08  0.93827000000E+00  0.93827000000E+00 0. -1.
     999902    2    1    2    0    0 -0.95285549426E-02  0.23164244989E-02 -0.22398298465E-01  0.10194791727E+01  0.10191859205E+01 0.  0.
     999903    2    3    3    0    0  0.11644324672E+00  0.38264362059E-01 -0.35796147316E-01  0.12968107684E+00  0.22641254750E-01 0.  0.
         14    1    1    2    0    0  0.95285549426E-02 -0.23164244989E-02  0.22398298465E-01  0.24450827304E-01  0.00000000000E+00 0.  1.
     999901    1    3    3    0    0 -0.12597180167E+00 -0.35947937560E-01  0.13397848851E-01  0.88979809585E+00  0.88000000000E+00 0. -1.
        -11    1    4    4    0    0  0.84464817840E-01  0.18295115337E-01 -0.19456138568E-01  0.88587917613E-01  0.51100000000E-03 0.  1.
         11    1    4    4    0    0  0.31978428885E-01  0.19969246722E-01 -0.16340008748E-01  0.41093159230E-01  0.51100000000E-03 0. -1.
</event>
<event>
 8    1  0.1088088E+005  0.1043930E+01  0.7957747E-01            NaN
         13   -1    0    0    0    0  0.00000000000E+00  0.00000000000E+00  0.74505805969E-08  0.10566000000E+00  0.10566000000E+00 0. -1.
     999900   -1    0    0    0    0 -0.00000000000E+00 -0.00000000000E+00 -0.74505805969E-08  0.93827000000E+00  0.93827000000E+00 0. -1.
     999902    2    1    2    0    0  0.20139535216E-01  0.10863925107E-01 -0.52049763126E-02  0.10204626285E+01  0.10201927556E+01 0.  0.
     999903    2    3    3    0    0  0.97537910671E-01 -0.45805932637E-01  0.73181508232E-01  0.13178584683E+00  0.20003719492E-01 0.  0.
         14    1    1    2    0    0 -0.20139535216E-01 -0.10863925107E-01  0.52049763126E-02  0.23467371516E-01  0.00000000000E+00 0. -1.
     999901    1    3    3    0    0 -0.77398375454E-01  0.56669857744E-01 -0.78386484545E-01  0.88867678166E+00  0.88000000000E+00 0. -1.
        -11    1    4    4    0    0  0.26117711297E-01 -0.18067008223E-01  0.12843439605E-01  0.34260278625E-01  0.51100000000E-03 0. -1.
         11    1    4    4    0    0  0.71420199374E-01 -0.27738924414E-01  0.60338068627E-01  0.97525568201E-01  0.51100000000E-03 0.  1.
</event>
<event>
 8    1  0.1088088E+005  0.1043930E+01  0.7957747E-01            NaN
         13   -1    0    0    0    0  0.00000000000E+00  0.00000000000E+00  0.74505805969E-08  0.10566000000E+00  0.10566000000E+00 0. -1.
     999900   -1    0    0    0    0 -0.00000000000E+00 -0.00000000000E+00 -0.74505805969E-08  0.93827000000E+00  0.93827000000E+00 0. -1.
     999902    2    1    2    0    0  0.23032841451E-01  0.40259703953E-02 -0.12700078207E-02  0.10205134857E+01  0.10202447948E+01 0.  0.
     999903    2    3    3    0    0  0.10529123614E+00 -0.77500985179E-01 -0.14711385288E-01  0.13282336035E+00  0.18247550164E-01 0.  0.
         14    1    1    2    0    0 -0.23032841451E-01 -0.40259703953E-02  0.12700078207E-02  0.23416514318E-01  0.00000000000E+00 0. -1.
     999901    1    3    3    0    0 -0.82258394686E-01  0.81526955574E-01  0.13441377467E-01  0.88769012533E+00  0.88000000000E+00 0.  1.
        -11    1    4    4    0    0  0.36058516441E-01 -0.20202350592E-01 -0.11461236098E-01  0.42894902160E-01  0.51100000000E-03 0.  1.
         11    1    4    4    0    0  0.69232719695E-01 -0.57298634587E-01 -0.32501491900E-02  0.89928458192E-01  0.51100000000E-03 0. -1.
</event>
<event>
 8    1  0.1088088E+005  0.1043930E+01  0.7957747E-01            NaN
         13   -1    0    0    0    0  0.00000000000E+00  0.00000000000E+00  0.74505805969E-08  0.10566000000E+00  0.10566000000E+00 0.  1.
     999900   -1    0    0    0    0 -0.00000000000E+00 -0.00000000000E+00 -0.74505805969E-08  0.93827000000E+00  0.93827000000E+00 0.  1.
     999902    2    1    2    0    0 -0.14958662883E-01 -0.16841166099E-01 -0.10467518523E-01  0.10190914128E+01  0.10187886691E+01 0.  0.
     999903    2    3    3    0    0  0.10323596860E+00  0.68300698715E-01  0.18039832036E-01  0.12666114823E+00  0.19873607456E-01 0.  0.
         14    1    1    2    0    0  0.14958662883E-01  0.16841166099E-01  0.10467518523E-01  0.24838587215E-01  0.00000000000E+00 0. -1.
     999901    1    3    3    0    0 -0.11819463148E+00 -0.85141864814E-01 -0.28507350559E-01  0.89243026455E+00  0.88000000000E+00 0.  1.
        -11    1    4    4    0    0  0.40195001317E-01  0.34916941619E-01  0.14740808079E-01  0.55248379947E-01  0.51100000000E-03 0. -1.
         11    1    4    4    0    0  0.63040967284E-01  0.33383757096E-01  0.32990239573E-02  0.71412768285E-01  0.51100000000E-03 0.  1.
</event>
<event>
 8    1  0.1088088E+005  0.1043930E+01  0.7957747E-01            NaN
         13   -1    0    0    0    0  0.00000000000E+00  0.00000000000E+00  0.74505805969E-08  0.10566000000E+00  0.10566000000E+00 0.  1.
     999900   -1    0    0    0    0 -0.00000000000E+00 -0.00000000000E+00 -0.74505805969E-08  0.93827000000E+00  0.93827000000E+00 0.  1.
     999902    2    1    2    0    0  0.77802101737E-02  0.22757966349E-01  0.24088310965E-02  0.10197585464E+01  0.10194720368E+01 0.  0.
     999903    2    3    3    0    0 -0.10219954142E+00  0.74450228286E-01 -0.27101317714E-01  0.13091745564E+00  0.20428314006E-01 0.  0.
         14    1    1    2    0    0 -0.77802101737E-02 -0.22757966349E-01 -0.24088310965E-02  0.24171453616E-01  0.00000000000E+00 0.  1.
     999901    1    3    3    0    0  0.10997975159E+00 -0.51692261937E-01  0.29510148810E-01  0.88884109074E+00  0.88000000000E+00 0. -1.
        -11    1    4    4    0    0 -0.55251752327E-01  0.28721523983E-01 -0.17441751158E-01  0.64669605531E-01  0.51100000000E-03 0. -1.
         11    1    4    4    0    0 -0.46947789090E-01  0.45728704303E-01 -0.96595665556E-02  0.66247850114E-01  0.51100000000E-03 0.  1.
</event>
<event>
 8    1  0.1088088E+005  0.1043930E+01  0.7957747E-01            NaN
         13   -1    0    0    0    0  0.00000000000E+00  0.00000000000E+00  0.74505805969E-08  0.10566000000E+00  0.10566000000E+00 0. -1.
     999900   -1    0    0    0    0 -0.00000000000E+00 -0.00000000000E+00 -0.74505805969E-08  0.93827000000E+00  0.93827000000E+00 0. -1.
     999902    2    1    2    0    0 -0.14205753240E-01 -0.16099983438E-01  0.44308143369E-02  0.10220063824E+01  0.10217712076E+01 0.  0.
     999903    2    3    3    0    0  0.11705579954E+00  0.47038363209E-01  0.23952924502E-01  0.12981965374E+00  0.19097960261E-01 0.  0.
         14    1    1    2    0    0  0.14205753240E-01  0.16099983438E-01 -0.44308143369E-02  0.21923617574E-01  0.00000000000E+00 0. -1.
     999901    1    3    3    0    0 -0.13126155278E+00 -0.63138346647E-01 -0.19522110165E-01  0.89218672868E+00  0.88000000000E+00 0.  1.
        -11    1    4    4    0    0  0.66613160715E-01  0.16818880798E-01  0.10599808367E-01  0.69518378795E-01  0.51100000000E-03 0. -1.
         11    1    4    4    0    0  0.50442638824E-01  0.30219482411E-01  0.13353116134E-01  0.60301274947E-01  0.51100000000E-03 0.  1.
</event>
<event>
 8    1  0.1088088E+005  0.1043930E+01  0.7957747E-01            NaN
         13   -1    0    0    0    0  0.00000000000E+00  0.00000000000E+00  0.74505805969E-08  0.10566000000E+00  0.10566000000E+00 0. -1.
     999900   -1    0    0    0    0 -0.00000000000E+00 -0.00000000000E+00 -0.74505805969E-08  0.93827000000E+00  0.93827000000E+00 0.  1.
     999902    2    1    2    0    0 -0.19753088137E-01 -0.20388916462E-02  0.12920884850E-01  0.10202384227E+01  0.10199633073E+01 0.  0.
     999903    2    3    3    0    0 -0.29214598324E-01 -0.31216307041E-01 -0.12111870519E+00  0.12956033638E+00  0.16976143122E-01 0.  0.
         14    1    1    2    0    0  0.19753088137E-01  0.20388916462E-02 -0.12920884850E-01  0.23691577309E-01  0.00000000000E+00 0.  1.
     999901    1    3    3    0    0  0.94615101870E-02  0.29177415395E-01  0.13403959004E+00  0.89067808631E+00  0.88000000000E+00 0. -1.
        -11    1    4    4    0    0 -0.89968344673E-02 -0.21724831992E-01 -0.57036610853E-01  0.61695603199E-01  0.51100000000E-03 0.  1.
         11    1    4    4    0    0 -0.20217763857E-01 -0.94914750484E-02 -0.64082094334E-01  0.67864733177E-01  0.51100000000E-03 0. -1.
</event>
<event>
 8    1  0.1088088E+005  0.1043930E+01  0.7957747E-01            NaN
         13   -1    0    0    0    0  0.00000000000E+00  0.00000000000E+00  0.74505805969E-08  0.10566000000E+00  0.10566000000E+00 0. -1.
     999900   -1    0    0    0    0 -0.00000000000E+00 -0.00000000000E+00 -0.74505805969E-08  0.93827000000E+00  0.93827000000E+00 0. -1.
     999902    2    1    2    0    0  0.12070003345E-01 -0.42767904385E-02 -0.19698895864E-01  0.10204348427E+01  0.10201643230E+01 0.  0.
     999903    2    3    3    0    0  0.83786501251E-01  0.89494999455E-01  0.39830921516E-01  0.13055833230E+00  0.20723009045E-01 0.  0.
         14    1    1    2    0    0 -0.12070003345E-01  0.42767904385E-02  0.19698895864E-01  0.23495157277E-01  0.00000000000E+00 0. -1.
     999901    1    3    3    0    0 -0.71716497905E-01 -0.93771789893E-01 -0.59529817381E-01  0.88987651043E+00  0.88000000000E+00 0.  1.
        -11    1    4    4    0    0  0.99073933711E-02  0.21476179827E-01  0.10921756174E-01  0.26056258794E-01  0.51100000000E-03 0.  1.
         11    1    4    4    0    0  0.73879107879E-01  0.68018819627E-01  0.28909165342E-01  0.10450207350E+00  0.51100000000E-03 0. -1.
</event>
<event>
 8    1  0.1088088E+005  0.1043930E+01  0.7957747E-01            NaN
         13   -1    0    0    0    0  0.00000000000E+00  0.00000000000E+00  0.74505805969E-08  0.10566000000E+00  0.10566000000E+00 0. -1.
     999900   -1    0    0    0    0 -0.00000000000E+00 -0.00000000000E+00 -0.74505805969E-08  0.93827000000E+00  0.93827000000E+00 0.  1.
     999902    2    1    2    0    0 -0.13867552371E-01 -0.81936621213E-03  0.19249750962E-01  0.10201911440E+01  0.10199149166E+01 0.  0.
     999903    2    3    3    0    0  0.96044527857E-01  0.47292463949E-01  0.73251858891E-01  0.13040934988E+00  0.13402806663E-01 0.  0.
         14    1    1    2    0    0  0.13867552371E-01  0.81936621213E-03 -0.19249750962E-01  0.23738855950E-01  0.00000000000E+00 0.  1.
     999901    1    3    3    0    0 -0.10991208023E+00 -0.48111830161E-01 -0.54002107930E-01  0.88978179417E+00  0.88000000000E+00 0.  1.
        -11    1    4    4    0    0  0.26038331909E-01  0.14942021568E-01  0.27634984947E-01  0.40807012279E-01  0.51100000000E-03 0.  1.
         11    1    4    4    0    0  0.70006195948E-01  0.32350442381E-01  0.45616873944E-01  0.89602337597E-01  0.51100000000E-03 0. -1.
</event>
<event>
 8    1  0.1088088E+005  0.1043930E+01  0.7957747E-01            NaN
         13   -1    0    0    0    0  0.00000000000E+00  0.00000000000E+00  0.74505805969E-08  0.10566000000E+00  0.10566000000E+00 0. -1.
     999900   -1    0    0    0    0 -0.00000000000E+00 -0.00000000000E+00 -0.74505805969E-08  0.93827000000E+00  0.93827000000E+00 0.  1.
     999902    2    1    2    0    0  0.27076892101E-02  0.18434327369E-01  0.13539609661E-01  0.10208979129E+01  0.10206380708E+01 0.  0.
     999903    2    3    3    0    0  0.56390237321E-01 -0.10880840657E+00 -0.36178767581E-01  0.12874072588E+00  0.15688947438E-01 0.  0.
         14    1    1    2    0    0 -0.27076892101E-02 -0.18434327369E-01 -0.13539609661E-01  0.23032087100E-01  0.00000000000E+00 0.  1.
     999901    1    3    3    0    0 -0.53682548111E-01  0.12724273394E+00  0.49718377242E-01  0.89215718702E+00  0.88000000000E+00 0.  1.
        -11    1    4    4    0    0  0.26483682695E-01 -0.39575111874E-01 -0.83289260445E-02  0.48344669396E-01  0.51100000000E-03 0. -1.
         11    1    4    4    0    0  0.29906554627E-01 -0.69233294696E-01 -0.27849841536E-01  0.80396056487E-01  0.51100000000E-03 0.  1.
</event>
<event>
 8    1  0.1088088E+005  0.1043930E+01  0.7957747E-01            NaN
         13   -1    0    0    0    0  0.00000000000E+00  0.00000000000E+00  0.74505805969E-08  0.10566000000E+00  0.10566000000E+00 0.  1.
     999900   -1    0    0    0    0 -0.00000000000E+00 -0.00000000000E+00 -0.74505805969E-08  0.93827000000E+00  0.93827000000E+00 0. -1.
     999902    2    1    2    0    0  0.18998013440E-01 -0.75554166193E-02  0.12240982777E-01  0.10201003862E+01  0.10198220175E+01 0.  0.
     999903    2    3    3    0    0  0.82430825992E-01  0.55368025928E-01  0.87335065842E-01  0.13239423963E+00  0.63530774146E-02 0.  0.
         14    1    1    2    0    0 -0.18998013440E-01  0.75554166193E-02 -0.12240982777E-01  0.23829613810E-01  0.00000000000E+00 0. -1.
     999901    1    3    3    0    0 -0.63432812552E-01 -0.62923442547E-01 -0.75094083065E-01  0.88770614656E+00  0.88000000000E+00 0. -1.
        -11    1    4    4    0    0  0.12583512405E-01  0.10867546868E-01  0.13100510998E-01  0.21173872314E-01  0.51100000000E-03 0.  1.
         11    1    4    4    0    0  0.69847313587E-01  0.44500479060E-01  0.74234554844E-01  0.11122036732E+00  0.51100000000E-03 0. -1.
</event>
<event>
 8    1  0.1088088E+005  0.1043930E+01  0.7957747E-01            NaN
         13   -1    0    0    0    0  0.00000000000E+00  0.00000000000E+00  0.74505805969E-08  0.10566000000E+00  0.10566000000E+00 0.  1.
     999900   -1    0    0    0    0 -0.00000000000E+00 -0.00000000000E+00 -0.74505805969E-08  0.93827000000E+00  0.93827000000E+00 0.  1.
     999902    2    1    2    0    0 -0.15937430041E-01  0.17649493370E-01 -0.10620128939E-01  0.10178859329E+01  0.10175526910E+01 0.  0.
     999903    2    3    3    0    0 -0.20091414892E-01  0.46145535932E-02  0.12421270216E+00  0.12751126031E+00  0.20133729699E-01 0.  0.
         14    1    1    2    0    0  0.15937430041E-01 -0.17649493370E-01  0.10620128939E-01  0.26044067102E-01  0.00000000000E+00 0. -1.
     999901    1    3    3    0    0  0.41539848509E-02  0.13034939777E-01 -0.13483283110E+00  0.89037467259E+00  0.88000000000E+00 0.  1.
        -11    1    4    4    0    0 -0.77694766727E-02  0.93255019881E-02  0.29818424107E-01  0.32198280890E-01  0.51100000000E-03 0. -1.
         11    1    4    4    0    0 -0.12321938219E-01 -0.47109483948E-02  0.94394278050E-01  0.95312979420E-01  0.51100000000E-03 0.  1.
</event>
<event>
 8    1  0.1088088E+005  0.1043930E+01  0.7957747E-01            NaN
         13   -1    0    0    0    0  0.00000000000E+00  0.00000000000E+00  0.74505805969E-08  0.10566000000E+00  0.10566000000E+00 0.  1.
     999900   -1    0    0    0    0 -0.00000000000E+00 -0.00000000000E+00 -0.74505805969E-08  0.93827000000E+00  0.93827000000E+00 0.  1.
     999902    2    1    2    0    0 -0.12662965974E-01  0.73327445396E-02 -0.18558983569E-01  0.10202962165E+01  0.10200224575E+01 0.  0.
     999903    2    3    3    0    0  0.14050977882E-01 -0.99930202214E-01 -0.81720238128E-01  0.13113463470E+00  0.18292616081E-01 0.  0.
         14    1    1    2    0    0  0.12662965974E-01 -0.73327445396E-02  0.18558983569E-01  0.23633783464E-01  0.00000000000E+00 0.  1.
     999901    1    3    3    0    0 -0.26713943856E-01  0.10726294675E+00  0.63161254560E-01  0.88916158184E+00  0.88000000000E+00 0. -1.
        -11    1    4    4    0    0  0.13369575778E-01 -0.85307900617E-01 -0.60847776612E-01  0.10563567818E+00  0.51100000000E-03 0.  1.
         11    1    4    4    0    0  0.68140210328E-03 -0.14622301597E-01 -0.20872461517E-01  0.25498956520E-01  0.51100000000E-03 0. -1.
</event>
<event>
 8    1  0.1088088E+005  0.1043930E+01  0.7957747E-01            NaN
         13   -1    0    0    0    0  0.00000000000E+00  0.00000000000E+00  0.74505805969E-08  0.10566000000E+00  0.10566000000E+00 0. -1.
     999900   -1    0    0    0    0 -0.00000000000E+00 -0.00000000000E+00 -0.74505805969E-08  0.93827000000E+00  0.93827000000E+00 0.  1.
     999902    2    1    2    0    0 -0.15691840545E-01 -0.12413040769E-01  0.11274950814E-01  0.10209638955E+01  0.10207055569E+01 0.  0.
     999903    2    3    3    0    0  0.12590333410E+00 -0.59118786655E-02 -0.19868726479E-01  0.12907747490E+00  0.19484054670E-01 0.  0.
         14    1    1    2    0    0  0.15691840545E-01  0.12413040769E-01 -0.11274950814E-01  0.22966104517E-01  0.00000000000E+00 0.  1.
     999901    1    3    3    0    0 -0.14159517465E+00 -0.65011621035E-02  0.31143677292E-01  0.89188642059E+00  0.88000000000E+00 0. -1.
        -11    1    4    4    0    0  0.33047196028E-01 -0.84575582651E-02 -0.15603674767E-03  0.34116461211E-01  0.51100000000E-03 0. -1.
         11    1    4    4    0    0  0.92856138074E-01  0.25456795996E-02 -0.19712689731E-01  0.94961013685E-01  0.51100000000E-03 0.  1.
</event>
<event>
 8    1  0.1088088E+005  0.1043930E+01  0.7957747E-01            NaN
         13   -1    0    0    0    0  0.00000000000E+00  0.00000000000E+00  0.74505805969E-08  0.10566000000E+00  0.10566000000E+00 0.  1.
     999900   -1    0    0    0    0 -0.00000000000E+00 -0.00000000000E+00 -0.74505805969E-08  0.93827000000E+00  0.93827000000E+00 0.  1.
     999902    2    1    2    0    0  0.38809981321E-02  0.21315365533E-01 -0.86903733782E-02  0.10205862740E+01  0.10203192702E+01 0.  0.
     999903    2    3    3    0    0 -0.82208148575E-02 -0.42145995782E-01  0.11998505458E+00  0.12888499889E+00  0.19262991982E-01 0.  0.
         14    1    1    2    0    0 -0.38809981321E-02 -0.21315365533E-01  0.86903733782E-02  0.23343726004E-01  0.00000000000E+00 0. -1.
     999901    1    3    3    0    0  0.12101812990E-01  0.63461361315E-01 -0.12867542796E+00  0.89170127510E+00  0.88000000000E+00 0.  1.
        -11    1    4    4    0    0  0.27307662553E-02 -0.22937475364E-01  0.79045867223E-01  0.82353476590E-01  0.51100000000E-03 0. -1.
         11    1    4    4    0    0 -0.10951581113E-01 -0.19208520418E-01  0.40939187356E-01  0.46531522304E-01  0.51100000000E-03 0.  1.
</event>
<event>
 8    1  0.1088088E+005  0.1043930E+01  0.7957747E-01            NaN
         13   -1    0    0    0    0  0.00000000000E+00  0.00000000000E+00  0.74505805969E-08  0.10566000000E+00  0.10566000000E+00 0. -1.
     999900   -1    0    0    0    0 -0.00000000000E+00 -0.00000000000E+00 -0.74505805969E-08  0.93827000000E+00  0.93827000000E+00 0.  1.
     999902    2    1    2    0    0 -0.20302560859E-01  0.75071537598E-02 -0.21705549597E-01  0.10132757635E+01  0.10128119720E+01 0.  0.
     999903    2    3    3    0    0 -0.22219401335E-01 -0.67068577222E-01 -0.10284031271E+00  0.12640031351E+00  0.20224081961E-01 0.  0.
         14    1    1    2    0    0  0.20302560859E-01 -0.75071537598E-02  0.21705549597E-01  0.30654236548E-01  0.00000000000E+00 0.  1.
     999901    1    3    3    0    0  0.19168404769E-02  0.74575730981E-01  0.81134763109E-01  0.88687544994E+00  0.88000000000E+00 0.  1.
        -11    1    4    4    0    0  0.30206176466E-02 -0.40400525178E-02 -0.38658214391E-02  0.63758804657E-02  0.51100000000E-03 0. -1.
         11    1    4    4    0    0 -0.25240018982E-01 -0.63028524704E-01 -0.98974491267E-01  0.12002443304E+00  0.51100000000E-03 0.  1.
</event>
<event>
 7    1  0.1088088E+005  0.1043930E+01  0.7957747E-01            NaN
         13   -1    0    0    0    0  0.00000000000E+00  0.00000000000E+00  0.74505805969E-08  0.10566000000E+00  0.10566000000E+00 0. -1.
     999900   -1    0    0    0    0 -0.00000000000E+00 -0.00000000000E+00 -0.74505805969E-08  0.93827000000E+00  0.93827000000E+00 0.  1.
     999903    2    1    2    0    0 -0.30703957721E-01  0.36977232010E-01  0.78177926304E-01  0.94145346158E-01  0.21012123528E-01 0.  0.
         14    1    1    2    0    0  0.18422644919E-02  0.27311976384E-01 -0.60932592198E-01  0.66799092691E-01  0.00000000000E+00 0.  1.
     999901    1    1    2    0    0  0.28861693229E-01 -0.64289208394E-01 -0.17245334107E-01  0.88298556115E+00  0.88000000000E+00 0.  1.
        -11    1    3    3    0    0 -0.59841083255E-02  0.14394653170E-01  0.11005823365E-01  0.19089391328E-01  0.51100000000E-03 0.  1.
         11    1    3    3    0    0 -0.24719849396E-01  0.22582578840E-01  0.67172102939E-01  0.75055954830E-01  0.51100000000E-03 0. -1.
</event>
<event>
 8    1  0.1434020E+005  0.1043930E+01  0.7957747E-01            NaN
         13   -1    0    0    0    0  0.00000000000E+00  0.00000000000E+00  0.74505805969E-08  0.10566000000E+00  0.10566000000E+00 0.  1.
     999900   -1    0    0    0    0 -0.00000000000E+00 -0.00000000000E+00 -0.74505805969E-08  0.93827000000E+00  0.93827000000E+00 0.  1.
     999902    2    1    2    0    0 -0.40584948937E-02 -0.25098150284E-01  0.30285070284E-02  0.10183260866E+01  0.10180041543E+01 0.  0.
     999903    2    3    3    0    0  0.12595330370E+00 -0.39193994012E-02  0.15260326761E-01  0.12843776510E+00  0.19590444737E-01 0.  0.
         14    1    1    2    0    0  0.40584948937E-02  0.25098150284E-01 -0.30285070284E-02  0.25603913437E-01  0.00000000000E+00 0. -1.
     999901    1    3    3    0    0 -0.13001179860E+00 -0.21178750882E-01 -0.12231819733E-01  0.88988832146E+00  0.88000000000E+00 0. -1.
        -11    1    4    4    0    0  0.60758566475E-01  0.77085686798E-02  0.54538709592E-02  0.61490090751E-01  0.51100000000E-03 0.  1.
         11    1    4    4    0    0  0.65194737230E-01 -0.11627968081E-01  0.98064558021E-02  0.66947674348E-01  0.51100000000E-03 0. -1.
</event>
<event>
 8    1  0.1088088E+005  0.1043930E+01  0.7957747E-01            NaN
         13   -1    0    0    0    0  0.00000000000E+00  0.00000000000E+00  0.74505805969E-08  0.10566000000E+00  0.10566000000E+00 0.  1.
     999900   -1    0    0    0    0 -0.00000000000E+00 -0.00000000000E+00 -0.74505805969E-08  0.93827000000E+00  0.93827000000E+00 0.  1.
     999902    2    1    2    0    0  0.23008641296E-01 -0.50605826951E-02  0.45813212446E-02  0.10199300922E+01  0.10196476829E+01 0.  0.
     999903    2    3    3    0    0 -0.78451180000E-01  0.72629653059E-01  0.68337322783E-01  0.12841750348E+00  0.19784119058E-01 0.  0.
         14    1    1    2    0    0 -0.23008641296E-01  0.50605826951E-02 -0.45813212446E-02  0.23999907830E-01  0.00000000000E+00 0. -1.
     999901    1    3    3    0    0  0.10145982130E+00 -0.77690235754E-01 -0.63756001538E-01  0.89151258869E+00  0.88000000000E+00 0.  1.
        -11    1    4    4    0    0 -0.41209156439E-01  0.24933263992E-01  0.28534333731E-01  0.55985101145E-01  0.51100000000E-03 0. -1.
         11    1    4    4    0    0 -0.37242023561E-01  0.47696389067E-01  0.39802989052E-01  0.72432402331E-01  0.51100000000E-03 0.  1.
</event>
<event>
 8    1  0.1088088E+005  0.1043930E+01  0.7957747E-01            NaN
         13   -1    0    0    0    0  0.00000000000E+00  0.00000000000E+00  0.74505805969E-08  0.10566000000E+00  0.10566000000E+00 0. -1.
     999900   -1    0    0    0    0 -0.00000000000E+00 -0.00000000000E+00 -0.74505805969E-08  0.93827000000E+00  0.93827000000E+00 0. -1.
     999902    2    1    2    0    0 -0.10743898466E-01  0.39315811549E-02 -0.20570003565E-01  0.10203925037E+01  0.10201209967E+01 0.  0.
     999903    2    3    3    0    0  0.10728176203E+00  0.66359278042E-01  0.21956533870E-01  0.12930565034E+00  0.18025858775E-01 0.  0.
         14    1    1    2    0    0  0.10743898466E-01 -0.39315811549E-02  0.20570003565E-01  0.23537496283E-01  0.00000000000E+00 0. -1.
     999901    1    3    3    0    0 -0.11802566049E+00 -0.62427696887E-01 -0.42526537435E-01  0.89108685338E+00  0.88000000000E+00 0. -1.
        -11    1    4    4    0    0  0.46127940857E-01  0.31657432202E-01  0.18414263479E-01  0.58900986086E-01  0.51100000000E-03 0.  1.
         11    1    4    4    0    0  0.61153821170E-01  0.34701845839E-01  0.35422703903E-02  0.70404664255E-01  0.51100000000E-03 0. -1.
</event>
<event>
 8    1  0.1088088E+005  0.1043930E+01  0.7957747E-01            NaN
         13   -1    0    0    0    0  0.00000000000E+00  0.00000000000E+00  0.74505805969E-08  0.10566000000E+00  0.10566000000E+00 0.  1.
     999900   -1    0    0    0    0 -0.00000000000E+00 -0.00000000000E+00 -0.74505805969E-08  0.93827000000E+00  0.93827000000E+00 0.  1.
     999902    2    1    2    0    0 -0.33179327814E-02  0.22824374024E-01  0.21442583238E-02  0.10207662660E+01  0.10205034107E+01 0.  0.
     999903    2    3    3    0    0 -0.91636941529E-01  0.44761757494E-01  0.82454683004E-01  0.13243566293E+00  0.18425148014E-01 0.  0.
         14    1    1    2    0    0  0.33179327814E-02 -0.22824374024E-01 -0.21442583238E-02  0.23163733966E-01  0.00000000000E+00 0. -1.
     999901    1    3    3    0    0  0.88319008748E-01 -0.21937383471E-01 -0.80310424680E-01  0.88833060310E+00  0.88000000000E+00 0.  1.
        -11    1    4    4    0    0 -0.38914837223E-01  0.94751041427E-02  0.35262776357E-01  0.53365407073E-01  0.51100000000E-03 0.  1.
         11    1    4    4    0    0 -0.52722104306E-01  0.35286653352E-01  0.47191906647E-01  0.79070255856E-01  0.51100000000E-03 0. -1.
</event>
<event>
 8    1  0.1088088E+005  0.1043930E+01  0.7957747E-01            NaN
         13   -1    0    0    0    0  0.00000000000E+00  0.00000000000E+00  0.74505805969E-08  0.10566000000E+00  0.10566000000E+00 0. -1.
     999900   -1    0    0    0    0 -0.00000000000E+00 -0.00000000000E+00 -0.74505805969E-08  0.93827000000E+00  0.93827000000E+00 0.  1.
     999902    2    1    2    0    0 -0.22277017788E-01 -0.54270418167E-02 -0.51166819725E-02  0.10204374748E+01  0.10201670164E+01 0.  0.
     999903    2    3    3    0    0 -0.35151062901E-01 -0.71815976941E-01 -0.10342255090E+00  0.13238495633E+00  0.20890688401E-01 0.  0.
         14    1    1    2    0    0  0.22277017788E-01  0.54270418167E-02  0.51166819725E-02  0.23492525169E-01  0.00000000000E+00 0.  1.
     999901    1    3    3    0    0  0.12874045113E-01  0.66388935124E-01  0.98305868926E-01  0.88805251850E+00  0.88000000000E+00 0. -1.
        -11    1    4    4    0    0 -0.32820297385E-01 -0.45079028597E-01 -0.71592567370E-01  0.90747162839E-01  0.51100000000E-03 0.  1.
         11    1    4    4    0    0 -0.23307655163E-02 -0.26736948344E-01 -0.31829983529E-01  0.41637793494E-01  0.51100000000E-03 0. -1.
</event>
<event>
 8    1  0.1088088E+005  0.1043930E+01  0.7957747E-01            NaN
         13   -1    0    0    0    0  0.00000000000E+00  0.00000000000E+00  0.74505805969E-08  0.10566000000E+00  0.10566000000E+00 0.  1.
     999900   -1    0    0    0    0 -0.00000000000E+00 -0.00000000000E+00 -0.74505805969E-08  0.93827000000E+00  0.93827000000E+00 0. -1.
     999902    2    1    2    0    0 -0.57791370705E-02 -0.18840687098E-01  0.85327498196E-02  0.10224549509E+01  0.10222294013E+01 0.  0.
     999903    2    3    3    0    0  0.11980592679E+00 -0.45419430060E-02 -0.50235069767E-01  0.13148372857E+00  0.19756500309E-01 0.  0.
         14    1    1    2    0    0  0.57791370705E-02  0.18840687098E-01 -0.85327498196E-02  0.21475049129E-01  0.00000000000E+00 0. -1.
     999901    1    3    3    0    0 -0.12558506386E+00 -0.14298744092E-01  0.58767819587E-01  0.89097122230E+00  0.88000000000E+00 0. -1.
        -11    1    4    4    0    0  0.48418209949E-01  0.47079351335E-02 -0.12606627181E-01  0.50256102891E-01  0.51100000000E-03 0.  1.
         11    1    4    4    0    0  0.71387716839E-01 -0.92498781396E-02 -0.37628442587E-01  0.81227625680E-01  0.51100000000E-03 0. -1.
</event>
<event>
 8    1  0.1088088E+005  0.1043930E+01  0.7957747E-01            NaN
         13   -1    0    0    0    0  0.00000000000E+00  0.00000000000E+00  0.74505805969E-08  0.10566000000E+00  0.10566000000E+00 0.  1.
     999900   -1    0    0    0    0 -0.00000000000E+00 -0.00000000000E+00 -0.74505805969E-08  0.93827000000E+00  0.93827000000E+00 0.  1.
     999902    2    1    2    0    0  0.22003461144E-01 -0.39401967190E-02 -0.73438192933E-02  0.10204011000E+01  0.10201297936E+01 0.  0.
     999903    2    3    3    0    0  0.11438441452E+00 -0.63461613569E-01 -0.18366169689E-01  0.13349719777E+00  0.19313594751E-01 0.  0.
         14    1    1    2    0    0 -0.22003461144E-01  0.39401967190E-02  0.73438192933E-02  0.23528899981E-01  0.00000000000E+00 0.  1.
     999901    1    3    3    0    0 -0.92380953376E-01  0.59521416850E-01  0.11022350396E-01  0.88690390225E+00  0.88000000000E+00 0.  1.
        -11    1    4    4    0    0  0.74204416570E-01 -0.49246949708E-01 -0.67333308520E-02  0.89314927977E-01  0.51100000000E-03 0.  1.
         11    1    4    4    0    0  0.40179997950E-01 -0.14214663861E-01 -0.11632838837E-01  0.44182269796E-01  0.51100000000E-03 0. -1.
</event>
<event>
 8    1  0.1088088E+005  0.1043930E+01  0.7957747E-01            NaN
         13   -1    0    0    0    0  0.00000000000E+00  0.00000000000E+00  0.74505805969E-08  0.10566000000E+00  0.10566000000E+00 0.  1.
     999900   -1    0    0    0    0 -0.00000000000E+00 -0.00000000000E+00 -0.74505805969E-08  0.93827000000E+00  0.93827000000E+00 0. -1.
     999902    2    1    2    0    0  0.19656552900E-01  0.11888599410E-01 -0.65423486357E-02  0.10200444145E+01  0.10197647211E+01 0.  0.
     999903    2    3    3    0    0 -0.19864503629E-02  0.12906883113E+00 -0.17976108649E-01  0.13193948989E+00  0.20547003525E-01 0.  0.
         14    1    1    2    0    0 -0.19656552900E-01 -0.11888599410E-01  0.65423486357E-02  0.23885585476E-01  0.00000000000E+00 0.  1.
     999901    1    3    3    0    0  0.21643003263E-01 -0.11718023173E+00  0.11433760014E-01  0.88810492464E+00  0.88000000000E+00 0.  1.
        -11    1    4    4    0    0 -0.17021961194E-02  0.99075033148E-01 -0.22466124098E-01  0.10160584392E+00  0.51100000000E-03 0. -1.
         11    1    4    4    0    0 -0.28425424348E-03  0.29993797986E-01  0.44900154487E-02  0.30333645970E-01  0.51100000000E-03 0.  1.
</event>
<event>
 8    1  0.1088088E+005  0.1043930E+01  0.7957747E-01            NaN
         13   -1    0    0    0    0  0.00000000000E+00  0.00000000000E+00  0.74505805969E-08  0.10566000000E+00  0.10566000000E+00 0.  1.
     999900   -1    0    0    0    0 -0.00000000000E+00 -0.00000000000E+00 -0.74505805969E-08  0.93827000000E+00  0.93827000000E+00 0. -1.
     999902    2    1    2    0    0 -0.98544873082E-02 -0.13272830252E-01 -0.16625353397E-01  0.10204847165E+01  0.10202153573E+01 0.  0.
     999903    2    3    3    0    0 -0.97341927475E-01  0.40312257276E-02 -0.88391492039E-01  0.13307057350E+00  0.20075359034E-01 0.  0.
         14    1    1    2    0    0  0.98544873082E-02  0.13272830252E-01  0.16625353397E-01  0.23445283504E-01  0.00000000000E+00 0.  1.
     999901    1    3    3    0    0  0.87487440167E-01 -0.17304055980E-01  0.71766138642E-01  0.88741414300E+00  0.88000000000E+00 0. -1.
        -11    1    4    4    0    0 -0.40321177449E-01 -0.75802510227E-02 -0.41216895184E-01  0.58157984199E-01  0.51100000000E-03 0.  1.
         11    1    4    4    0    0 -0.57020750026E-01  0.11611476750E-01 -0.47174596855E-01  0.74912589297E-01  0.51100000000E-03 0. -1.
</event>
<event>
 8    1  0.1088088E+005  0.1043930E+01  0.7957747E-01            NaN
         13   -1    0    0    0    0  0.00000000000E+00  0.00000000000E+00  0.74505805969E-08  0.10566000000E+00  0.10566000000E+00 0. -1.
     999900   -1    0    0    0    0 -0.00000000000E+00 -0.00000000000E+00 -0.74505805969E-08  0.93827000000E+00  0.93827000000E+00 0. -1.
     999902    2    1    2    0    0  0.44606533821E-02 -0.21719074772E-01 -0.76664661854E-02  0.10204696006E+01  0.10201998899E+01 0.  0.
     999903    2    3    3    0    0 -0.11609312821E-01 -0.93916184572E-01  0.89815389740E-01  0.13200273078E+00  0.20072140678E-01 0.  0.
         14    1    1    2    0    0 -0.44606533821E-02  0.21719074772E-01  0.76664661854E-02  0.23460399428E-01  0.00000000000E+00 0. -1.
     999901    1    3    3    0    0  0.16069966203E-01  0.72197109799E-01 -0.97481855926E-01  0.88846686979E+00  0.88000000000E+00 0. -1.
        -11    1    4    4    0    0 -0.10952219406E-01 -0.53604529642E-01  0.39284051037E-01  0.67356473296E-01  0.51100000000E-03 0. -1.
         11    1    4    4    0    0 -0.65709341484E-03 -0.40311654930E-01  0.50531338704E-01  0.64646257487E-01  0.51100000000E-03 0.  1.
</event>
<event>
 8    1  0.1088088E+005  0.1043930E+01  0.7957747E-01            NaN
         13   -1    0    0    0    0  0.00000000000E+00  0.00000000000E+00  0.74505805969E-08  0.10566000000E+00  0.10566000000E+00 0.  1.
     999900   -1    0    0    0    0 -0.00000000000E+00 -0.00000000000E+00 -0.74505805969E-08  0.93827000000E+00  0.93827000000E+00 0.  1.
     999902    2    1    2    0    0  0.23964211907E-01 -0.11139622976E-01  0.15839243811E-01  0.10131199968E+01  0.10126514068E+01 0.  0.
     999903    2    3    3    0    0 -0.94936552136E-01  0.72137097055E-01  0.63877416257E-02  0.12117732226E+00  0.20650193290E-01 0.  0.
         14    1    1    2    0    0 -0.23964211907E-01  0.11139622976E-01 -0.15839243811E-01  0.30810003195E-01  0.00000000000E+00 0. -1.
     999901    1    3    3    0    0  0.11890076404E+00 -0.83276720031E-01  0.94515021855E-02  0.89194267455E+00  0.88000000000E+00 0.  1.
        -11    1    4    4    0    0 -0.24064639572E-01  0.28415771368E-01  0.70430078585E-02  0.37900237742E-01  0.51100000000E-03 0. -1.
         11    1    4    4    0    0 -0.70871912564E-01  0.43721325687E-01 -0.65526623285E-03  0.83277084514E-01  0.51100000000E-03 0.  1.
</event>
<event>
 8    1  0.1088088E+005  0.1043930E+01  0.7957747E-01            NaN
         13   -1    0    0    0    0  0.00000000000E+00  0.00000000000E+00  0.74505805969E-08  0.10566000000E+00  0.10566000000E+00 0. -1.
     999900   -1    0    0    0    0 -0.00000000000E+00 -0.00000000000E+00 -0.74505805969E-08  0.93827000000E+00  0.93827000000E+00 0. -1.
     999902    2    1    2    0    0  0.17009848344E-01 -0.14573063956E-01 -0.11844333722E-01  0.10185923329E+01  0.10182771446E+01 0.  0.
     999903    2    3    3    0    0 -0.65464410588E-01 -0.39335264494E-01 -0.10301295407E+00  0.12970151433E+00  0.19441245528E-01 0.  0.
         14    1    1    2    0    0 -0.17009848344E-01  0.14573063956E-01  0.11844333722E-01  0.25337667120E-01  0.00000000000E+00 0.  1.
     999901    1    3    3    0    0  0.82474258932E-01  0.24762200538E-01  0.91168620347E-01  0.88889081855E+00  0.88000000000E+00 0.  1.
        -11    1    4    4    0    0 -0.13086609597E-01 -0.65608650169E-02 -0.89702349927E-02  0.17176452991E-01  0.51100000000E-03 0. -1.
         11    1    4    4    0    0 -0.52377800991E-01 -0.32774399477E-01 -0.94042719077E-01  0.11252506134E+00  0.51100000000E-03 0.  1.
</event>
<event>
 8    1  0.1088088E+005  0.1043930E+01  0.7957747E-01            NaN
         13   -1    0    0    0    0  0.00000000000E+00  0.00000000000E+00  0.74505805969E-08  0.10566000000E+00  0.10566000000E+00 0. -1.
     999900   -1    0    0    0    0 -0.00000000000E+00 -0.00000000000E+00 -0.74505805969E-08  0.93827000000E+00  0.93827000000E+00 0.  1.
     999902    2    1    2    0    0  0.16197275940E-01  0.10873294341E-02 -0.25743430383E-01  0.10134955090E+01  0.10130384438E+01 0.  0.
     999903    2    3    3    0    0 -0.58815100524E-01 -0.10589499364E+00  0.93729528796E-02  0.12315555460E+00  0.20161166982E-01 0.  0.
         14    1    1    2    0    0 -0.16197275940E-01 -0.10873294341E-02  0.25743430383E-01  0.30434490977E-01  0.00000000000E+00 0. -1.
     999901    1    3    3    0    0  0.75012376464E-01  0.10698232308E+00 -0.35116383262E-01  0.89033995443E+00  0.88000000000E+00 0.  1.
        -11    1    4    4    0    0 -0.40054536214E-01 -0.80601216970E-01  0.14740148154E-01  0.91205565275E-01  0.51100000000E-03 0.  1.
         11    1    4    4    0    0 -0.18760564310E-01 -0.25293776672E-01 -0.53671952743E-02  0.31949989322E-01  0.51100000000E-03 0. -1.
</event>
<event>
 8    1  0.1088088E+005  0.1043930E+01  0.7957747E-01            NaN
         13   -1    0    0    0    0  0.00000000000E+00  0.00000000000E+00  0.74505805969E-08  0.10566000000E+00  0.10566000000E+00 0. -1.
     999900   -1    0    0    0    0 -0.00000000000E+00 -0.00000000000E+00 -0.74505805969E-08  0.93827000000E+00  0.93827000000E+00 0. -1.
     999902    2    1    2    0    0  0.23591174584E-01  0.28280326598E-02  0.52974526764E-02  0.10195865349E+01  0.10192958834E+01 0.  0.
     999903    2    3    3    0    0  0.16444717902E-01 -0.11948841471E+00  0.44986545678E-01  0.13021169312E+00  0.19580238360E-01 0.  0.
         14    1    1    2    0    0 -0.23591174584E-01 -0.28280326598E-02 -0.52974526764E-02  0.24343465075E-01  0.00000000000E+00 0.  1.
     999901    1    3    3    0    0  0.71464566819E-02  0.12231644737E+00 -0.39689093002E-01  0.88937484181E+00  0.88000000000E+00 0. -1.
        -11    1    4    4    0    0  0.19741257087E-01 -0.11038612593E+00  0.38570602933E-01  0.11858653617E+00  0.51100000000E-03 0. -1.
         11    1    4    4    0    0 -0.32965391848E-02 -0.91022887860E-02  0.64159427453E-02  0.11625156947E-01  0.51100000000E-03 0.  1.
</event>
<event>
 8    1  0.1088088E+005  0.1043930E+01  0.7957747E-01            NaN
         13   -1    0    0    0    0  0.00000000000E+00  0.00000000000E+00  0.74505805969E-08  0.10566000000E+00  0.10566000000E+00 0.  1.
     999900   -1    0    0    0    0 -0.00000000000E+00 -0.00000000000E+00 -0.74505805969E-08  0.93827000000E+00  0.93827000000E+00 0.  1.
     999902    2    1    2    0    0 -0.19491201888E-01  0.11651784036E-01  0.61792663244E-02  0.10203958896E+01  0.10201244616E+01 0.  0.
     999903    2    3    3    0    0 -0.40106592932E-01 -0.93139851392E-01  0.80291718429E-01  0.13084603892E+00  0.19757407188E-01 0.  0.
         14    1    1    2    0    0  0.19491201888E-01 -0.11651784036E-01 -0.61792663244E-02  0.23534110447E-01  0.00000000000E+00 0. -1.
     999901    1    3    3    0    0  0.20615391044E-01  0.10479163543E+00 -0.74112452104E-01  0.88954985063E+00  0.88000000000E+00 0. -1.
        -11    1    4    4    0    0 -0.23301219968E-01 -0.52757785184E-01  0.33099734415E-01  0.66499505930E-01  0.51100000000E-03 0.  1.
         11    1    4    4    0    0 -0.16805372964E-01 -0.40382066208E-01  0.47191984014E-01  0.64346532990E-01  0.51100000000E-03 0. -1.
</event>
<event>
 8    1  0.1088088E+005  0.1043930E+01  0.7957747E-01            NaN
         13   -1    0    0    0    0  0.00000000000E+00  0.00000000000E+00  0.74505805969E-08  0.10566000000E+00  0.10566000000E+00 0. -1.
     999900   -1    0    0    0    0 -0.00000000000E+00 -0.00000000000E+00 -0.74505805969E-08  0.93827000000E+00  0.93827000000E+00 0. -1.
     999902    2    1    2    0    0 -0.14585747663E-02 -0.57707434545E-02  0.22328635501E-01  0.10208216274E+01  0.10205600414E+01 0.  0.
     999903    2    3    3    0    0 -0.85102483695E-02  0.25837614427E-02 -0.12610284654E+00  0.12832432842E+00  0.22047793728E-01 0.  0.
         14    1    1    2    0    0  0.14585747663E-02  0.57707434545E-02 -0.22328635501E-01  0.23108372588E-01  0.00000000000E+00 0.  1.
     999901    1    3    3    0    0  0.70516736031E-02 -0.83545048971E-02  0.14843148204E+00  0.89249729899E+00  0.88000000000E+00 0.  1.
        -11    1    4    4    0    0 -0.84310853447E-02  0.11792641650E-01 -0.73181314130E-01  0.74605063206E-01  0.51100000000E-03 0.  1.
         11    1    4    4    0    0 -0.79163024721E-04 -0.92088802070E-02 -0.52921532408E-01  0.53719265211E-01  0.51100000000E-03 0. -1.
</event>
<event>
 8    1  0.1088088E+005  0.1043930E+01  0.7957747E-01            NaN
         13   -1    0    0    0    0  0.00000000000E+00  0.00000000000E+00  0.74505805969E-08  0.10566000000E+00  0.10566000000E+00 0. -1.
     999900   -1    0    0    0    0 -0.00000000000E+00 -0.00000000000E+00 -0.74505805969E-08  0.93827000000E+00  0.93827000000E+00 0. -1.
     999902    2    1    2    0    0 -0.86128319607E-02  0.11977895447E-01 -0.18623307846E-01  0.10201712448E+01  0.10198945486E+01 0.  0.
     999903    2    3    3    0    0  0.23264148387E-01 -0.79275191627E-01  0.95156953391E-01  0.12759675736E+00  0.20007751053E-01 0.  0.
         14    1    1    2    0    0  0.86128319607E-02 -0.11977895447E-01  0.18623307846E-01  0.23758755204E-01  0.00000000000E+00 0. -1.
     999901    1    3    3    0    0 -0.31876980347E-01  0.91253087074E-01 -0.11378026124E+00  0.89257448744E+00  0.88000000000E+00 0. -1.
        -11    1    4    4    0    0  0.26136465344E-01 -0.69322376984E-01  0.78226779027E-01  0.10774227049E+00  0.51100000000E-03 0.  1.
         11    1    4    4    0    0 -0.28723169571E-02 -0.99528146427E-02  0.16930174364E-01  0.19854486873E-01  0.51100000000E-03 0. -1.
</event>
<event>
 8    1  0.1088088E+005  0.1043930E+01  0.7957747E-01            NaN
         13   -1    0    0    0    0  0.00000000000E+00  0.00000000000E+00  0.74505805969E-08  0.10566000000E+00  0.10566000000E+00 0. -1.
     999900   -1    0    0    0    0 -0.00000000000E+00 -0.00000000000E+00 -0.74505805969E-08  0.93827000000E+00  0.93827000000E+00 0. -1.
     999902    2    1    2    0    0  0.45184352426E-02  0.29117597128E-01 -0.23840405200E-01  0.10060272872E+01  0.10053130293E+01 0.  0.
     999903    2    3    3    0    0  0.17422625033E-01  0.10573792243E+00 -0.54718106396E-01  0.12206426487E+00  0.20531865192E-01 0.  0.
         14    1    1    2    0    0 -0.45184352426E-02 -0.29117597128E-01  0.23840405200E-01  0.37902712827E-01  0.00000000000E+00 0. -1.
     999901    1    3    3    0    0 -0.12904189790E-01 -0.76620325303E-01  0.30877701196E-01  0.88396302230E+00  0.88000000000E+00 0. -1.
        -11    1    4    4    0    0  0.12034860185E-01  0.24804816415E-01 -0.93029160456E-02  0.29101926827E-01  0.51100000000E-03 0. -1.
         11    1    4    4    0    0  0.53877648476E-02  0.80933106015E-01 -0.45415190351E-01  0.92962338046E-01  0.51100000000E-03 0.  1.
</event>
<event>
 8    1  0.1088088E+005  0.1043930E+01  0.7957747E-01            NaN
         13   -1    0    0    0    0  0.00000000000E+00  0.00000000000E+00  0.74505805969E-08  0.10566000000E+00  0.10566000000E+00 0.  1.
     999900   -1    0    0    0    0 -0.00000000000E+00 -0.00000000000E+00 -0.74505805969E-08  0.93827000000E+00  0.93827000000E+00 0. -1.
     999902    2    1    2    0    0 -0.20597426148E-01  0.31294561348E-02 -0.74430821041E-02  0.10218065525E+01  0.10215670236E+01 0.  0.
     999903    2    3    3    0    0  0.92565050084E-01  0.87181768495E-01 -0.23860549772E-01  0.13043678044E+00  0.16597548024E-01 0.  0.
         14    1    1    2    0    0  0.20597426148E-01 -0.31294561348E-02  0.74430821041E-02  0.22123447535E-01  0.00000000000E+00 0. -1.
     999901    1    3    3    0    0 -0.11316247623E+00 -0.84052312360E-01  0.16417467668E-01  0.89136977203E+00  0.88000000000E+00 0.  1.
        -11    1    4    4    0    0  0.64330233511E-01  0.51898378451E-01 -0.10565016728E-01  0.83328874521E-01  0.51100000000E-03 0. -1.
         11    1    4    4    0    0  0.28234816573E-01  0.35283390044E-01 -0.13295533044E-01  0.47107905916E-01  0.51100000000E-03 0.  1.
</event>
<event>
 8    1  0.1088088E+005  0.1043930E+01  0.7957747E-01            NaN
         13   -1    0    0    0    0  0.00000000000E+00  0.00000000000E+00  0.74505805969E-08  0.10566000000E+00  0.10566000000E+00 0. -1.
     999900   -1    0    0    0    0 -0.00000000000E+00 -0.00000000000E+00 -0.74505805969E-08  0.93827000000E+00  0.93827000000E+00 0. -1.
     999902    2    1    2    0    0  0.11299291533E-01 -0.13005182954E-01  0.17927388703E-01  0.10190663712E+01  0.10187630092E+01 0.  0.
     999903    2    3    3    0    0  0.11350218434E+00 -0.20591280607E-01 -0.56641262753E-01  0.12998624882E+00  0.19530631051E-01 0.  0.
         14    1    1    2    0    0 -0.11299291533E-01  0.13005182954E-01 -0.17927388703E-01  0.24863628828E-01  0.00000000000E+00 0.  1.
     999901    1    3    3    0    0 -0.10220289281E+00  0.75860976535E-02  0.74568651456E-01  0.88908012235E+00  0.88000000000E+00 0. -1.
        -11    1    4    4    0    0  0.65273856346E-01 -0.15497295558E-01 -0.42688239640E-01  0.79519742306E-01  0.51100000000E-03 0.  1.
         11    1    4    4    0    0  0.48228327996E-01 -0.50939850491E-02 -0.13953023113E-01  0.50466506517E-01  0.51100000000E-03 0. -1.
</event>
<event>
 8    1  0.1088088E+005  0.1043930E+01  0.7957747E-01            NaN
         13   -1    0    0    0    0  0.00000000000E+00  0.00000000000E+00  0.74505805969E-08  0.10566000000E+00  0.10566000000E+00 0.  1.
     999900   -1    0    0    0    0 -0.00000000000E+00 -0.00000000000E+00 -0.74505805969E-08  0.93827000000E+00  0.93827000000E+00 0.  1.
     999902    2    1    2    0    0  0.94309070470E-02 -0.22648298153E-01 -0.43003857237E-03  0.10193928374E+01  0.10190974853E+01 0.  0.
     999903    2    3    3    0    0 -0.88597300175E-01 -0.57366336318E-01 -0.73714761343E-01  0.13024407469E+00  0.19730048401E-01 0.  0.
         14    1    1    2    0    0 -0.94309070470E-02  0.22648298153E-01  0.43003857237E-03  0.24537162634E-01  0.00000000000E+00 0.  1.
     999901    1    3    3    0    0  0.98028207222E-01  0.34718038165E-01  0.73284722771E-01  0.88914876268E+00  0.88000000000E+00 0. -1.
        -11    1    4    4    0    0 -0.19102641980E-01 -0.16024153664E-01 -0.27424884330E-01  0.37068447941E-01  0.51100000000E-03 0.  1.
         11    1    4    4    0    0 -0.69494658195E-01 -0.41342182654E-01 -0.46289877013E-01  0.93175626744E-01  0.51100000000E-03 0. -1.
</event>
<event>
 8    1  0.1145810E+005  0.1043930E+01  0.7957747E-01            NaN
         13   -1    0    0    0    0  0.00000000000E+00  0.00000000000E+00  0.74505805969E-08  0.10566000000E+00  0.10566000000E+00 0. -1.
     999900   -1    0    0    0    0 -0.00000000000E+00 -0.00000000000E+00 -0.74505805969E-08  0.93827000000E+00  0.93827000000E+00 0.  1.
     999902    2    1    2    0    0 -0.10211705268E-01  0.22297840628E-01  0.24194004540E-03  0.10194038679E+01  0.10191087845E+01 0.  0.
     999903    2    3    3    0    0 -0.51236475671E-01  0.83789758044E-01  0.82564865075E-01  0.13247582590E+00  0.32969493622E-01 0.  0.
         14    1    1    2    0    0  0.10211705268E-01 -0.22297840628E-01 -0.24194004540E-03  0.24526132107E-01  0.00000000000E+00 0.  1.
     999901    1    3    3    0    0  0.41024770403E-01 -0.61491917417E-01 -0.82322925030E-01  0.88692804200E+00  0.88000000000E+00 0.  1.
        -11    1    4    4    0    0 -0.43162038049E-01  0.75164560745E-01  0.55455179671E-01  0.10289903204E+00  0.51100000000E-03 0.  1.
         11    1    4    4    0    0 -0.80744376226E-02  0.86251972993E-02  0.27109685404E-01  0.29576793861E-01  0.51100000000E-03 0. -1.
</event>
<event>
 8    1  0.1088088E+005  0.1043930E+01  0.7957747E-01            NaN
         13   -1    0    0    0    0  0.00000000000E+00  0.00000000000E+00  0.74505805969E-08  0.10566000000E+00  0.10566000000E+00 0. -1.
     999900   -1    0    0    0    0 -0.00000000000E+00 -0.00000000000E+00 -0.74505805969E-08  0.93827000000E+00  0.93827000000E+00 0. -1.
     999902    2    1    2    0    0 -0.75139185704E-02 -0.24127261485E-01  0.72367630478E-02  0.10176439874E+01  0.10173044434E+01 0.  0.
     999903    2    3    3    0    0 -0.11889685786E+00 -0.61961710209E-02  0.47017019683E-01  0.12955043828E+00  0.19946442635E-01 0.  0.
         14    1    1    2    0    0  0.75139185704E-02  0.24127261485E-01 -0.72367630478E-02  0.26286012601E-01  0.00000000000E+00 0.  1.
     999901    1    3    3    0    0  0.11138293929E+00 -0.17931090464E-01 -0.39780256635E-01  0.88809354912E+00  0.88000000000E+00 0. -1.
        -11    1    4    4    0    0 -0.74356391047E-01 -0.97269550051E-02  0.21136468127E-01  0.77913400318E-01  0.51100000000E-03 0. -1.
         11    1    4    4    0    0 -0.44540466815E-01  0.35307839842E-02  0.25880551555E-01  0.51637037962E-01  0.51100000000E-03 0.  1.
</event>
<event>
 8    1  0.1088088E+005  0.1043930E+01  0.7957747E-01            NaN
         13   -1    0    0    0    0  0.00000000000E+00  0.00000000000E+00  0.74505805969E-08  0.10566000000E+00  0.10566000000E+00 0. -1.
     999900   -1    0    0    0    0 -0.00000000000E+00 -0.00000000000E+00 -0.74505805969E-08  0.93827000000E+00  0.93827000000E+00 0.  1.
     999902    2    1    2    0    0 -0.17843295699E-01  0.15393581603E-01 -0.57309137448E-03  0.10203572617E+01  0.10200849315E+01 0.  0.
     999903    2    3    3    0    0 -0.87386612881E-01 -0.92678527063E-01  0.22828929825E-01  0.13071491323E+00  0.18425499053E-01 0.  0.
         14    1    1    2    0    0  0.17843295699E-01 -0.15393581603E-01  0.57309137448E-03  0.23572738273E-01  0.00000000000E+00 0. -1.
     999901    1    3    3    0    0  0.69543317182E-01  0.10807210867E+00 -0.23402021200E-01  0.88964234849E+00  0.88000000000E+00 0.  1.
        -11    1    4    4    0    0 -0.21943539648E-01 -0.23768776840E-01 -0.22355778761E-02  0.32430427290E-01  0.51100000000E-03 0.  1.
         11    1    4    4    0    0 -0.65443073233E-01 -0.68909750222E-01  0.25064507701E-01  0.98284485944E-01  0.51100000000E-03 0. -1.
</event>
<event>
 8    1  0.1088088E+005  0.1043930E+01  0.7957747E-01            NaN
         13   -1    0    0    0    0  0.00000000000E+00  0.00000000000E+00  0.74505805969E-08  0.10566000000E+00  0.10566000000E+00 0.  1.
     999900   -1    0    0    0    0 -0.00000000000E+00 -0.00000000000E+00 -0.74505805969E-08  0.93827000000E+00  0.93827000000E+00 0.  1.
     999902    2    1    2    0    0  0.29491146258E-02  0.21160182920E-01 -0.99054011722E-02  0.10203807412E+01  0.10201089596E+01 0.  0.
     999903    2    3    3    0    0 -0.67976119022E-01  0.15105036706E-01 -0.11038652677E+00  0.13180687810E+00  0.18410674327E-01 0.  0.
         14    1    1    2    0    0 -0.29491146258E-02 -0.21160182920E-01  0.99054011722E-02  0.23549258813E-01  0.00000000000E+00 0.  1.
     999901    1    3    3    0    0  0.70925233648E-01  0.60551462139E-02  0.10048112560E+00  0.88857386309E+00  0.88000000000E+00 0. -1.
        -11    1    4    4    0    0 -0.33079311102E-01 -0.61745014843E-03 -0.60126559829E-01  0.68630069106E-01  0.51100000000E-03 0. -1.
         11    1    4    4    0    0 -0.34896807920E-01  0.15722486854E-01 -0.50259966945E-01  0.63176808991E-01  0.51100000000E-03 0.  1.
</event>
<event>
 8    1  0.1088088E+005  0.1043930E+01  0.7957747E-01            NaN
         13   -1    0    0    0    0  0.00000000000E+00  0.00000000000E+00  0.74505805969E-08  0.10566000000E+00  0.10566000000E+00 0. -1.
     999900   -1    0    0    0    0 -0.00000000000E+00 -0.00000000000E+00 -0.74505805969E-08  0.93827000000E+00  0.93827000000E+00 0. -1.
     999902    2    1    2    0    0  0.21140495902E-02  0.21291442624E-01  0.91703265191E-02  0.10206514772E+01  0.10203859801E+01 0.  0.
     999903    2    3    3    0    0  0.19444273450E-01 -0.95095392826E-02 -0.12620315293E+00  0.12959872003E+00  0.20002032796E-01 0.  0.
         14    1    1    2    0    0 -0.21140495902E-02 -0.21291442624E-01 -0.91703265191E-02  0.23278522787E-01  0.00000000000E+00 0.  1.
     999901    1    3    3    0    0 -0.17330223860E-01  0.30800981907E-01  0.13537347945E+00  0.89105275718E+00  0.88000000000E+00 0.  1.
        -11    1    4    4    0    0  0.12823806874E-01  0.17031191517E-02 -0.32337606868E-01  0.34832923744E-01  0.51100000000E-03 0. -1.
         11    1    4    4    0    0  0.66204665766E-02 -0.11212658434E-01 -0.93865546064E-01  0.94765796286E-01  0.51100000000E-03 0.  1.
</event>
<event>
 8    1  0.1088088E+005  0.1043930E+01  0.7957747E-01            NaN
         13   -1    0    0    0    0  0.00000000000E+00  0.00000000000E+00  0.74505805969E-08  0.10566000000E+00  0.10566000000E+00 0. -1.
     999900   -1    0    0    0    0 -0.00000000000E+00 -0.00000000000E+00 -0.74505805969E-08  0.93827000000E+00  0.93827000000E+00 0.  1.
     999902    2    1    2    0    0 -0.19439271756E-02 -0.16312447501E-02 -0.24981067681E-01  0.10188203693E+01  0.10185108990E+01 0.  0.
     999903    2    3    3    0    0 -0.11237937835E+00 -0.58647929299E-01  0.15744179135E-01  0.12915445619E+00  0.19086384860E-01 0.  0.
         14    1    1    2    0    0  0.19439271756E-02  0.16312447501E-02  0.24981067681E-01  0.25109630717E-01  0.00000000000E+00 0. -1.
     999901    1    3    3    0    0  0.11043545118E+00  0.57016684549E-01 -0.40725246815E-01  0.88966591309E+00  0.88000000000E+00 0.  1.
        -11    1    4    4    0    0 -0.79263769441E-01 -0.35302659921E-01  0.17814077386E-01  0.88581179816E-01  0.51100000000E-03 0. -1.
         11    1    4    4    0    0 -0.33115608911E-01 -0.23345269378E-01 -0.20698982509E-02  0.40573276373E-01  0.51100000000E-03 0.  1.
</event>
<event>
 8    1  0.1088088E+005  0.1043930E+01  0.7957747E-01            NaN
         13   -1    0    0    0    0  0.00000000000E+00  0.00000000000E+00  0.74505805969E-08  0.10566000000E+00  0.10566000000E+00 0. -1.
     999900   -1    0    0    0    0 -0.00000000000E+00 -0.00000000000E+00 -0.74505805969E-08  0.93827000000E+00  0.93827000000E+00 0.  1.
     999902    2    1    2    0    0  0.17006082456E-01 -0.12068727062E-01  0.10982395337E-01  0.10203615036E+01  0.10200892726E+01 0.  0.
     999903    2    3    3    0    0  0.66471357068E-01 -0.78321052811E-01 -0.80100093100E-01  0.13180525682E+00  0.20099059354E-01 0.  0.
         14    1    1    2    0    0 -0.17006082456E-01  0.12068727062E-01 -0.10982395337E-01  0.23568496361E-01  0.00000000000E+00 0. -1.
     999901    1    3    3    0    0 -0.49465274612E-01  0.66252325750E-01  0.91082488437E-01  0.88855624682E+00  0.88000000000E+00 0. -1.
        -11    1    4    4    0    0  0.10271008973E-01 -0.36064250147E-02 -0.11505784063E-01  0.15847527082E-01  0.51100000000E-03 0. -1.
         11    1    4    4    0    0  0.56200348095E-01 -0.74714627797E-01 -0.68594309037E-01  0.11595772974E+00  0.51100000000E-03 0.  1.
</event>
<event>
 8    1  0.1088088E+005  0.1043930E+01  0.7957747E-01            NaN
         13   -1    0    0    0    0  0.00000000000E+00  0.00000000000E+00  0.74505805969E-08  0.10566000000E+00  0.10566000000E+00 0.  1.
     999900   -1    0    0    0    0 -0.00000000000E+00 -0.00000000000E+00 -0.74505805969E-08  0.93827000000E+00  0.93827000000E+00 0. -1.
     999902    2    1    2    0    0 -0.10827512011E-01 -0.20790056781E-01 -0.27726049523E-02  0.10203260000E+01  0.10200529386E+01 0.  0.
     999903    2    3    3    0    0  0.12168460887E+00  0.20559070224E-01  0.30178284397E-01  0.12883568958E+00  0.21402959056E-01 0.  0.
         14    1    1    2    0    0  0.10827512011E-01  0.20790056781E-01  0.27726049523E-02  0.23603999990E-01  0.00000000000E+00 0. -1.
     999901    1    3    3    0    0 -0.13251212088E+00 -0.41349127005E-01 -0.32950889349E-01  0.89149031043E+00  0.88000000000E+00 0. -1.
        -11    1    4    4    0    0  0.10520744016E+00  0.18752428296E-01  0.18265228406E-01  0.10841650576E+00  0.51100000000E-03 0.  1.
         11    1    4    4    0    0  0.16477168706E-01  0.18066419283E-02  0.11913055991E-01  0.20419183815E-01  0.51100000000E-03 0. -1.
</event>
<event>
 8    1  0.1088088E+005  0.1043930E+01  0.7957747E-01            NaN
         13   -1    0    0    0    0  0.00000000000E+00  0.00000000000E+00  0.74505805969E-08  0.10566000000E+00  0.10566000000E+00 0. -1.
     999900   -1    0    0    0    0 -0.00000000000E+00 -0.00000000000E+00 -0.74505805969E-08  0.93827000000E+00  0.93827000000E+00 0.  1.
     999902    2    1    2    0    0 -0.30298449318E-02  0.23504530690E-01  0.43022246114E-02  0.10198436541E+01  0.10195591825E+01 0.  0.
     999903    2    3    3    0    0  0.99707700203E-01  0.82597165942E-01  0.14818279115E-01  0.13183603580E+00  0.19930921647E-01 0.  0.
         14    1    1    2    0    0  0.30298449318E-02 -0.23504530690E-01 -0.43022246114E-02  0.24086345922E-01  0.00000000000E+00 0. -1.
     999901    1    3    3    0    0 -0.10273754513E+00 -0.59092635252E-01 -0.10516054504E-01  0.88800761828E+00  0.88000000000E+00 0. -1.
        -11    1    4    4    0    0  0.90645402305E-01  0.68614187166E-01  0.17252156320E-01  0.11498866752E+00  0.51100000000E-03 0.  1.
         11    1    4    4    0    0  0.90622978982E-02  0.13982978775E-01 -0.24338772052E-02  0.16847368278E-01  0.51100000000E-03 0. -1.
</event>
<event>
 8    1  0.1088088E+005  0.1043930E+01  0.7957747E-01            NaN
         13   -1    0    0    0    0  0.00000000000E+00  0.00000000000E+00  0.74505805969E-08  0.10566000000E+00  0.10566000000E+00 0. -1.
     999900   -1    0    0    0    0 -0.00000000000E+00 -0.00000000000E+00 -0.74505805969E-08  0.93827000000E+00  0.93827000000E+00 0.  1.
     999902    2    1    2    0    0  0.16210181460E-02  0.22739664762E-01  0.51106620331E-02  0.10205668042E+01  0.10202993496E+01 0.  0.
     999903    2    3    3    0    0  0.10879026873E+00  0.35081552753E-01  0.63143796146E-01  0.13208190552E+00  0.19810423014E-01 0.  0.
         14    1    1    2    0    0 -0.16210181460E-02 -0.22739664762E-01 -0.51106620331E-02  0.23363195837E-01  0.00000000000E+00 0.  1.
     999901    1    3    3    0    0 -0.10716925058E+00 -0.12341887992E-01 -0.58033134113E-01  0.88848489865E+00  0.88000000000E+00 0.  1.
        -11    1    4    4    0    0  0.72025415407E-01  0.31995623078E-01  0.47368855504E-01  0.91953520615E-01  0.51100000000E-03 0.  1.
         11    1    4    4    0    0  0.36764853319E-01  0.30859296754E-02  0.15774940642E-01  0.40128384901E-01  0.51100000000E-03 0. -1.
</event>
<event>
 8    1  0.1088088E+005  0.1043930E+01  0.7957747E-01            NaN
         13   -1    0    0    0    0  0.00000000000E+00  0.00000000000E+00  0.74505805969E-08  0.10566000000E+00  0.10566000000E+00 0.  1.
     999900   -1    0    0    0    0 -0.00000000000E+00 -0.00000000000E+00 -0.74505805969E-08  0.93827000000E+00  0.93827000000E+00 0.  1.
     999902    2    1    2    0    0 -0.11518695727E-01 -0.20661956845E-01 -0.51707728012E-02  0.10197156715E+01  0.10194281324E+01 0.  0.
     999903    2    3    3    0    0 -0.87860699728E-02  0.80511651798E-01 -0.98444918505E-01  0.12901727556E+00  0.19867921689E-01 0.  0.
         14    1    1    2    0    0  0.11518695727E-01  0.20661956845E-01  0.51707728012E-02  0.24214328470E-01  0.00000000000E+00 0. -1.
     999901    1    3    3    0    0 -0.27326257543E-02 -0.10117360864E+00  0.93274145703E-01  0.89069839597E+00  0.88000000000E+00 0. -1.
        -11    1    4    4    0    0 -0.86074142651E-02  0.24683381821E-01 -0.20943603053E-01  0.33500038034E-01  0.51100000000E-03 0. -1.
         11    1    4    4    0    0 -0.17865570765E-03  0.55828269978E-01 -0.77501315451E-01  0.95517237524E-01  0.51100000000E-03 0.  1.
</event>
<event>
 8    1  0.1088088E+005  0.1043930E+01  0.7957747E-01            NaN
         13   -1    0    0    0    0  0.00000000000E+00  0.00000000000E+00  0.74505805969E-08  0.10566000000E+00  0.10566000000E+00 0. -1.
     999900   -1    0    0    0    0 -0.00000000000E+00 -0.00000000000E+00 -0.74505805969E-08  0.93827000000E+00  0.93827000000E+00 0. -1.
     999902    2    1    2    0    0 -0.22758095018E-01 -0.81810598795E-04  0.65275485307E-02  0.10202541374E+01  0.10199793911E+01 0.  0.
     999903    2    3    3    0    0 -0.99113842175E-01 -0.61005811029E-01  0.61581462109E-01  0.13313922522E+00  0.19710761669E-01 0.  0.
         14    1    1    2    0    0  0.22758095018E-01  0.81810598795E-04 -0.65275485307E-02  0.23675862638E-01  0.00000000000E+00 0.  1.
     999901    1    3    3    0    0  0.76355747156E-01  0.60924000430E-01 -0.55053913578E-01  0.88711491215E+00  0.88000000000E+00 0.  1.
        -11    1    4    4    0    0 -0.38050511791E-01 -0.31346059543E-01  0.18092824313E-01  0.52516933545E-01  0.51100000000E-03 0.  1.
         11    1    4    4    0    0 -0.61063330384E-01 -0.29659751486E-01  0.43488637795E-01  0.80622291670E-01  0.51100000000E-03 0. -1.
</event>
<event>
 8    1  0.1088088E+005  0.1043930E+01  0.7957747E-01            NaN
         13   -1    0    0    0    0  0.00000000000E+00  0.00000000000E+00  0.74505805969E-08  0.10566000000E+00  0.10566000000E+00 0. -1.
     999900   -1    0    0    0    0 -0.00000000000E+00 -0.00000000000E+00 -0.74505805969E-08  0.93827000000E+00  0.93827000000E+00 0. -1.
     999902    2    1    2    0    0 -0.13308174149E-01  0.68888381899E-02 -0.20408824483E-01  0.10186103691E+01  0.10182956351E+01 0.  0.
     999903    2    3    3    0    0  0.71611124602E-01  0.51803310606E-01  0.88745942400E-01  0.12667799486E+00  0.18966705900E-01 0.  0.
         14    1    1    2    0    0  0.13308174149E-01 -0.68888381899E-02  0.20408824483E-01  0.25319630873E-01  0.00000000000E+00 0. -1.
     999901    1    3    3    0    0 -0.84919298751E-01 -0.44914472416E-01 -0.10915476688E+00  0.89193237427E+00  0.88000000000E+00 0.  1.
        -11    1    4    4    0    0  0.38231060677E-01  0.22220763727E-01  0.32440694111E-01  0.54845565879E-01  0.51100000000E-03 0.  1.
         11    1    4    4    0    0  0.33380063925E-01  0.29582546878E-01  0.56305248289E-01  0.71832428981E-01  0.51100000000E-03 0. -1.
</event>
<event>
 8    1  0.1088088E+005  0.1043930E+01  0.7957747E-01            NaN
         13   -1    0    0    0    0  0.00000000000E+00  0.00000000000E+00  0.74505805969E-08  0.10566000000E+00  0.10566000000E+00 0.  1.
     999900   -1    0    0    0    0 -0.00000000000E+00 -0.00000000000E+00 -0.74505805969E-08  0.93827000000E+00  0.93827000000E+00 0. -1.
     999902    2    1    2    0    0  0.93467394905E-02 -0.13536580999E-01 -0.10963767434E-01  0.10241612175E+01  0.10239704072E+01 0.  0.
     999903    2    3    3    0    0  0.57945731706E-01  0.19809553060E-01  0.11630327066E+00  0.13305475605E+00  0.20663763570E-01 0.  0.
         14    1    1    2    0    0 -0.93467394905E-02  0.13536580999E-01  0.10963767434E-01  0.19768782476E-01  0.00000000000E+00 0.  1.
     999901    1    3    3    0    0 -0.48598992216E-01 -0.33346134059E-01 -0.12726703809E+00  0.89110646148E+00  0.88000000000E+00 0. -1.
        -11    1    4    4    0    0  0.70194920875E-02  0.10458943157E-01  0.18444181750E-01  0.22340808458E-01  0.51100000000E-03 0. -1.
         11    1    4    4    0    0  0.50926239619E-01  0.93506099032E-02  0.97859088911E-01  0.11071394759E+00  0.51100000000E-03 0.  1.
</event>
<event>
 8    1  0.1088088E+005  0.1043930E+01  0.7957747E-01            NaN
         13   -1    0    0    0    0  0.00000000000E+00  0.00000000000E+00  0.74505805969E-08  0.10566000000E+00  0.10566000000E+00 0.  1.
     999900   -1    0    0    0    0 -0.00000000000E+00 -0.00000000000E+00 -0.74505805969E-08  0.93827000000E+00  0.93827000000E+00 0. -1.
     999902    2    1    2    0    0  0.83100744571E-02  0.10227179109E-01 -0.19733407486E-01  0.10202011167E+01  0.10199251241E+01 0.  0.
     999903    2    3    3    0    0  0.12993228216E-01  0.75287774961E-01 -0.10737958833E+00  0.13344485593E+00  0.20978096818E-01 0.  0.
         14    1    1    2    0    0 -0.83100744571E-02 -0.10227179109E-01  0.19733407486E-01  0.23728883265E-01  0.00000000000E+00 0.  1.
     999901    1    3    3    0    0 -0.46831537588E-02 -0.65060595852E-01  0.87646180843E-01  0.88675626081E+00  0.88000000000E+00 0.  1.
        -11    1    4    4    0    0  0.53997427864E-03  0.55654032179E-01 -0.70147694212E-01  0.89546764287E-01  0.51100000000E-03 0. -1.
         11    1    4    4    0    0  0.12453253937E-01  0.19633742782E-01 -0.37231894118E-01  0.43898091642E-01  0.51100000000E-03 0.  1.
</event>
<event>
 8    1  0.1088088E+005  0.1043930E+01  0.7957747E-01            NaN
         13   -1    0    0    0    0  0.00000000000E+00  0.00000000000E+00  0.74505805969E-08  0.10566000000E+00  0.10566000000E+00 0. -1.
     999900   -1    0    0    0    0 -0.00000000000E+00 -0.00000000000E+00 -0.74505805969E-08  0.93827000000E+00  0.93827000000E+00 0.  1.
     999902    2    1    2    0    0 -0.52400578579E-02 -0.13493508390E-01  0.18212716099E-01  0.10206655206E+01  0.10204003474E+01 0.  0.
     999903    2    3    3    0    0 -0.70821357018E-01 -0.91914297988E-01  0.63880689562E-01  0.13357122410E+00  0.17222851819E-01 0.  0.
         14    1    1    2    0    0  0.52400578579E-02  0.13493508390E-01 -0.18212716099E-01  0.23264479421E-01  0.00000000000E+00 0.  1.
     999901    1    3    3    0    0  0.65581299160E-01  0.78420789598E-01 -0.45667973464E-01  0.88709429648E+00  0.88000000000E+00 0. -1.
        -11    1    4    4    0    0 -0.58062346648E-01 -0.70085968567E-01  0.42466948153E-01  0.10043396783E+00  0.51100000000E-03 0.  1.
         11    1    4    4    0    0 -0.12759010370E-01 -0.21828329421E-01  0.21413741409E-01  0.33137256269E-01  0.51100000000E-03 0. -1.
</event>
<event>
 8    1  0.1088088E+005  0.1043930E+01  0.7957747E-01            NaN
         13   -1    0    0    0    0  0.00000000000E+00  0.00000000000E+00  0.74505805969E-08  0.10566000000E+00  0.10566000000E+00 0. -1.
     999900   -1    0    0    0    0 -0.00000000000E+00 -0.00000000000E+00 -0.74505805969E-08  0.93827000000E+00  0.93827000000E+00 0.  1.
     999902    2    1    2    0    0  0.19359268502E-01 -0.76100816624E-02  0.94936259816E-02  0.10210646648E+01  0.10208086139E+01 0.  0.
     999903    2    3    3    0    0  0.64954609917E-01 -0.85667191317E-01 -0.74637574815E-01  0.13244218788E+00  0.20302623942E-01 0.  0.
         14    1    1    2    0    0 -0.19359268502E-01  0.76100816624E-02 -0.94936259816E-02  0.22865335207E-01  0.00000000000E+00 0. -1.
     999901    1    3    3    0    0 -0.45595341415E-01  0.78057109654E-01  0.84131200796E-01  0.88862247691E+00  0.88000000000E+00 0.  1.
        -11    1    4    4    0    0  0.22009696694E-01 -0.14918630501E-01 -0.16450700132E-01  0.31271055953E-01  0.51100000000E-03 0. -1.
         11    1    4    4    0    0  0.42944913223E-01 -0.70748560816E-01 -0.58186874683E-01  0.10117113193E+00  0.51100000000E-03 0.  1.
</event>
<event>
 8    1  0.1088088E+005  0.1043930E+01  0.7957747E-01            NaN
         13   -1    0    0    0    0  0.00000000000E+00  0.00000000000E+00  0.74505805969E-08  0.10566000000E+00  0.10566000000E+00 0.  1.
     999900   -1    0    0    0    0 -0.00000000000E+00 -0.00000000000E+00 -0.74505805969E-08  0.93827000000E+00  0.93827000000E+00 0. -1.
     999902    2    1    2    0    0  0.58000665628E-02  0.20371853238E-01  0.10443608119E-01  0.10203138588E+01  0.10200405130E+01 0.  0.
     999903    2    3    3    0    0  0.10227480236E+00  0.27484938296E-01 -0.74562918418E-01  0.13094100097E+00  0.19244736949E-01 0.  0.
         14    1    1    2    0    0 -0.58000665628E-02 -0.20371853238E-01 -0.10443608119E-01  0.23616141239E-01  0.00000000000E+00 0. -1.
     999901    1    3    3    0    0 -0.96474735798E-01 -0.71130850589E-02  0.85006526537E-01  0.88937285779E+00  0.88000000000E+00 0.  1.
        -11    1    4    4    0    0  0.28677351312E-01  0.99648293939E-02 -0.32090644957E-01  0.44178715665E-01  0.51100000000E-03 0.  1.
         11    1    4    4    0    0  0.73597451049E-01  0.17520108903E-01 -0.42472273462E-01  0.86762285302E-01  0.51100000000E-03 0. -1.
</event>
<event>
 8    1  0.1088088E+005  0.1043930E+01  0.7957747E-01            NaN
         13   -1    0    0    0    0  0.00000000000E+00  0.00000000000E+00  0.74505805969E-08  0.10566000000E+00  0.10566000000E+00 0. -1.
     999900   -1    0    0    0    0 -0.00000000000E+00 -0.00000000000E+00 -0.74505805969E-08  0.93827000000E+00  0.93827000000E+00 0.  1.
     999902    2    1    2    0    0  0.14266219910E-01 -0.16907261812E-01 -0.10345260494E-01  0.10195085965E+01  0.10192160583E+01 0.  0.
     999903    2    3    3    0    0 -0.86099779861E-01  0.85056935815E-01  0.32395716979E-01  0.12692984782E+00  0.20343287979E-01 0.  0.
         14    1    1    2    0    0 -0.14266219910E-01  0.16907261812E-01  0.10345260494E-01  0.24421403465E-01  0.00000000000E+00 0. -1.
     999901    1    3    3    0    0  0.10036599977E+00 -0.10196419763E+00 -0.42740977473E-01  0.89257874872E+00  0.88000000000E+00 0.  1.
        -11    1    4    4    0    0 -0.50297440544E-01  0.36138050895E-01  0.13057010514E-01  0.63297218677E-01  0.51100000000E-03 0.  1.
         11    1    4    4    0    0 -0.35802339318E-01  0.48918884921E-01  0.19338706465E-01  0.63632629140E-01  0.51100000000E-03 0. -1.
</event>
<event>
 8    1  0.1088088E+005  0.1043930E+01  0.7957747E-01            NaN
         13   -1    0    0    0    0  0.00000000000E+00  0.00000000000E+00  0.74505805969E-08  0.10566000000E+00  0.10566000000E+00 0.  1.
     999900   -1    0    0    0    0 -0.00000000000E+00 -0.00000000000E+00 -0.74505805969E-08  0.93827000000E+00  0.93827000000E+00 0.  1.
     999902    2    1    2    0    0  0.12761252996E-01  0.17240930254E-01 -0.10047360003E-01  0.10202435335E+01  0.10199685382E+01 0.  0.
     999903    2    3    3    0    0  0.47727443962E-01  0.12134607994E+00 -0.10102454630E-01  0.13341744017E+00  0.26369939876E-01 0.  0.
         14    1    1    2    0    0 -0.12761252996E-01 -0.17240930254E-01  0.10047360003E-01  0.23686466539E-01  0.00000000000E+00 0.  1.
     999901    1    3    3    0    0 -0.34966190966E-01 -0.10410514968E+00  0.55094626539E-04  0.88682609329E+00  0.88000000000E+00 0. -1.
        -11    1    4    4    0    0  0.26920704869E-01  0.41809032244E-01 -0.12092667770E-01  0.51178249898E-01  0.51100000000E-03 0.  1.
         11    1    4    4    0    0  0.20806739093E-01  0.79537047695E-01  0.19902131406E-02  0.82239190274E-01  0.51100000000E-03 0. -1.
</event>
<event>
 8    1  0.1088088E+005  0.1043930E+01  0.7957747E-01            NaN
         13   -1    0    0    0    0  0.00000000000E+00  0.00000000000E+00  0.74505805969E-08  0.10566000000E+00  0.10566000000E+00 0.  1.
     999900   -1    0    0    0    0 -0.00000000000E+00 -0.00000000000E+00 -0.74505805969E-08  0.93827000000E+00  0.93827000000E+00 0. -1.
     999902    2    1    2    0    0  0.55861809790E-02  0.14945247283E-01 -0.17260851340E-01  0.10204246214E+01  0.10201538635E+01 0.  0.
     999903    2    3    3    0    0 -0.21321859071E-01  0.12865522433E+00  0.10364246974E-01  0.13227083541E+00  0.19528642145E-01 0.  0.
         14    1    1    2    0    0 -0.55861809790E-02 -0.14945247283E-01  0.17260851340E-01  0.23505378603E-01  0.00000000000E+00 0.  1.
     999901    1    3    3    0    0  0.26908040050E-01 -0.11370997705E+00 -0.27625098315E-01  0.88815378598E+00  0.88000000000E+00 0.  1.
        -11    1    4    4    0    0 -0.47504497624E-02  0.66490966133E-01 -0.22869838270E-02  0.66701624915E-01  0.51100000000E-03 0. -1.
         11    1    4    4    0    0 -0.16571409308E-01  0.62164258197E-01  0.12651230801E-01  0.65569210499E-01  0.51100000000E-03 0.  1.
</event>
<event>
 8    1  0.1088088E+005  0.1043930E+01  0.7957747E-01            NaN
         13   -1    0    0    0    0  0.00000000000E+00  0.00000000000E+00  0.74505805969E-08  0.10566000000E+00  0.10566000000E+00 0.  1.
     999900   -1    0    0    0    0 -0.00000000000E+00 -0.00000000000E+00 -0.74505805969E-08  0.93827000000E+00  0.93827000000E+00 0. -1.
     999902    2    1    2    0    0 -0.72139527671E-02  0.90804136269E-02  0.20980696595E-01  0.10199574187E+01  0.10196756598E+01 0.  0.
     999903    2    3    3    0    0  0.86484652525E-01 -0.93906237845E-02  0.96707771152E-01  0.13155705978E+00  0.19674553065E-01 0.  0.
         14    1    1    2    0    0  0.72139527671E-02 -0.90804136269E-02 -0.20980696595E-01  0.23972581333E-01  0.00000000000E+00 0. -1.
     999901    1    3    3    0    0 -0.93698605292E-01  0.18471037411E-01 -0.75727074557E-01  0.88840035889E+00  0.88000000000E+00 0. -1.
        -11    1    4    4    0    0  0.25800401903E-02  0.11858690544E-04  0.10757139831E-01  0.11074020334E-01  0.51100000000E-03 0.  1.
         11    1    4    4    0    0  0.83904612335E-01 -0.94024824751E-02  0.85950631321E-01  0.12048303944E+00  0.51100000000E-03 0. -1.
</event>
<event>
 8    1  0.1088088E+005  0.1043930E+01  0.7957747E-01            NaN
         13   -1    0    0    0    0  0.00000000000E+00  0.00000000000E+00  0.74505805969E-08  0.10566000000E+00  0.10566000000E+00 0.  1.
     999900   -1    0    0    0    0 -0.00000000000E+00 -0.00000000000E+00 -0.74505805969E-08  0.93827000000E+00  0.93827000000E+00 0.  1.
     999902    2    1    2    0    0 -0.16788562328E-01 -0.19836910941E-01 -0.44555702584E-02  0.10175631464E+01  0.10172214833E+01 0.  0.
     999903    2    3    3    0    0 -0.38337331016E-01  0.11393517286E+00 -0.33917689947E-01  0.12670550554E+00  0.21281467980E-01 0.  0.
         14    1    1    2    0    0  0.16788562328E-01  0.19836910941E-01  0.44555702584E-02  0.26366853567E-01  0.00000000000E+00 0.  1.
     999901    1    3    3    0    0  0.21548768688E-01 -0.13377208380E+00  0.29462119689E-01  0.89085764089E+00  0.88000000000E+00 0. -1.
        -11    1    4    4    0    0 -0.18043919982E-01  0.64116311763E-01 -0.29119931041E-01  0.72696052075E-01  0.51100000000E-03 0. -1.
         11    1    4    4    0    0 -0.20293411033E-01  0.49818861097E-01 -0.47977589061E-02  0.54009453468E-01  0.51100000000E-03 0.  1.
</event>
<event>
 8    1  0.1088088E+005  0.1043930E+01  0.7957747E-01            NaN
         13   -1    0    0    0    0  0.00000000000E+00  0.00000000000E+00  0.74505805969E-08  0.10566000000E+00  0.10566000000E+00 0.  1.
     999900   -1    0    0    0    0 -0.00000000000E+00 -0.00000000000E+00 -0.74505805969E-08  0.93827000000E+00  0.93827000000E+00 0.  1.
     999902    2    1    2    0    0 -0.61619845315E-02  0.15590634982E-01 -0.89000881424E-02  0.10249497597E+01  0.10247740046E+01 0.  0.
     999903    2    3    3    0    0  0.31057237199E-01  0.12589385283E+00  0.36743212126E-01  0.13611041473E+00  0.19030690927E-01 0.  0.
         14    1    1    2    0    0  0.61619845315E-02 -0.15590634982E-01  0.89000881424E-02  0.18980240290E-01  0.00000000000E+00 0.  1.
     999901    1    3    3    0    0 -0.37219221730E-01 -0.11030321785E+00 -0.45643300269E-01  0.88883934498E+00  0.88000000000E+00 0. -1.
        -11    1    4    4    0    0  0.49736494163E-02  0.40812400387E-01  0.41020516438E-02  0.41321630686E-01  0.51100000000E-03 0. -1.
         11    1    4    4    0    0  0.26083587783E-01  0.85081452440E-01  0.32641160483E-01  0.94788784039E-01  0.51100000000E-03 0.  1.
</event>
<event>
 8    1  0.1088088E+005  0.1043930E+01  0.7957747E-01            NaN
         13   -1    0    0    0    0  0.00000000000E+00  0.00000000000E+00  0.74505805969E-08  0.10566000000E+00  0.10566000000E+00 0. -1.
     999900   -1    0    0    0    0 -0.00000000000E+00 -0.00000000000E+00 -0.74505805969E-08  0.93827000000E+00  0.93827000000E+00 0.  1.
     999902    2    1    2    0    0 -0.19343232754E-01  0.13335474768E-01  0.76873910322E-02  0.10192097346E+01  0.10189099036E+01 0.  0.
     999903    2    3    3    0    0  0.78942359832E-01  0.67025972708E-01  0.75264980127E-01  0.12954156172E+00  0.19794488797E-01 0.  0.
         14    1    1    2    0    0  0.19343232754E-01 -0.13335474768E-01 -0.76873910322E-02  0.24720265402E-01  0.00000000000E+00 0.  1.
     999901    1    3    3    0    0 -0.98285592586E-01 -0.53690497939E-01 -0.67577589095E-01  0.88966817288E+00  0.88000000000E+00 0.  1.
        -11    1    4    4    0    0  0.15682094695E-01  0.67204372000E-02  0.19267393597E-01  0.25740744885E-01  0.51100000000E-03 0.  1.
         11    1    4    4    0    0  0.63260265137E-01  0.60305535508E-01  0.55997586530E-01  0.10380081684E+00  0.51100000000E-03 0. -1.
</event>
<event>
 8    1  0.1088088E+005  0.1043930E+01  0.7957747E-01            NaN
         13   -1    0    0    0    0  0.00000000000E+00  0.00000000000E+00  0.74505805969E-08  0.10566000000E+00  0.10566000000E+00 0.  1.
     999900   -1    0    0    0    0 -0.00000000000E+00 -0.00000000000E+00 -0.74505805969E-08  0.93827000000E+00  0.93827000000E+00 0. -1.
     999902    2    1    2    0    0 -0.38089339036E-02 -0.82637327780E-02 -0.19613480234E-01  0.10223085786E+01  0.10220799108E+01 0.  0.
     999903    2    3    3    0    0 -0.86102571461E-01 -0.96189120032E-01  0.24999609280E-01  0.13298667722E+00  0.19861425633E-01 0.  0.
         14    1    1    2    0    0  0.38089339036E-02  0.82637327780E-02  0.19613480234E-01  0.21621421410E-01  0.00000000000E+00 0.  1.
     999901    1    3    3    0    0  0.82293637557E-01  0.87925387254E-01 -0.44613089514E-01  0.88932190137E+00  0.88000000000E+00 0. -1.
        -11    1    4    4    0    0 -0.75454320399E-01 -0.86525940834E-01  0.28261842252E-01  0.11823318380E+00  0.51100000000E-03 0. -1.
         11    1    4    4    0    0 -0.10648251062E-01 -0.96631791981E-02 -0.32622329718E-02  0.14753493412E-01  0.51100000000E-03 0.  1.
</event>
<event>
 8    1  0.1088088E+005  0.1043930E+01  0.7957747E-01            NaN
         13   -1    0    0    0    0  0.00000000000E+00  0.00000000000E+00  0.74505805969E-08  0.10566000000E+00  0.10566000000E+00 0. -1.
     999900   -1    0    0    0    0 -0.00000000000E+00 -0.00000000000E+00 -0.74505805969E-08  0.93827000000E+00  0.93827000000E+00 0. -1.
     999902    2    1    2    0    0  0.17379601769E-01  0.15598187985E-01 -0.64940824904E-02  0.10196910410E+01  0.10194029095E+01 0.  0.
     999903    2    3    3    0    0  0.17153680641E-01  0.12052907407E+00  0.46819147805E-01  0.13185499621E+00  0.19292510736E-01 0.  0.
         14    1    1    2    0    0 -0.17379601769E-01 -0.15598187985E-01  0.64940824904E-02  0.24238959001E-01  0.00000000000E+00 0.  1.
     999901    1    3    3    0    0  0.22592112877E-03 -0.10493088608E+00 -0.53313230296E-01  0.88783604478E+00  0.88000000000E+00 0. -1.
        -11    1    4    4    0    0  0.89940762886E-02  0.81652947546E-01  0.22112695143E-01  0.85072496488E-01  0.51100000000E-03 0.  1.
         11    1    4    4    0    0  0.81596043519E-02  0.38876126521E-01  0.24706452663E-01  0.46782499726E-01  0.51100000000E-03 0. -1.
</event>
<event>
 8    1  0.1088088E+005  0.1043930E+01  0.7957747E-01            NaN
         13   -1    0    0    0    0  0.00000000000E+00  0.00000000000E+00  0.74505805969E-08  0.10566000000E+00  0.10566000000E+00 0.  1.
     999900   -1    0    0    0    0 -0.00000000000E+00 -0.00000000000E+00 -0.74505805969E-08  0.93827000000E+00  0.93827000000E+00 0.  1.
     999902    2    1    2    0    0  0.65419546035E-02 -0.21602157434E-01 -0.57379363369E-02  0.10206410694E+01  0.10203753320E+01 0.  0.
     999903    2    3    3    0    0 -0.64606396023E-01 -0.93253860965E-01 -0.65989510751E-01  0.13281996880E+00  0.20402440837E-01 0.  0.
         14    1    1    2    0    0 -0.65419546035E-02  0.21602157434E-01  0.57379363369E-02  0.23288930616E-01  0.00000000000E+00 0.  1.
     999901    1    3    3    0    0  0.71148350627E-01  0.71651703531E-01  0.60251574414E-01  0.88782110058E+00  0.88000000000E+00 0. -1.
        -11    1    4    4    0    0 -0.43610742966E-01 -0.63874622681E-01 -0.55555647344E-01  0.95228963018E-01  0.51100000000E-03 0.  1.
         11    1    4    4    0    0 -0.20995653057E-01 -0.29379238284E-01 -0.10433863407E-01  0.37591005786E-01  0.51100000000E-03 0. -1.
</event>
<event>
 8    1  0.1088088E+005  0.1043930E+01  0.7957747E-01            NaN
         13   -1    0    0    0    0  0.00000000000E+00  0.00000000000E+00  0.74505805969E-08  0.10566000000E+00  0.10566000000E+00 0.  1.
     999900   -1    0    0    0    0 -0.00000000000E+00 -0.00000000000E+00 -0.74505805969E-08  0.93827000000E+00  0.93827000000E+00 0. -1.
     999902    2    1    2    0    0 -0.94359035411E-02  0.20959765862E-01 -0.53149520919E-02  0.10203376967E+01  0.10200649090E+01 0.  0.
     999903    2    3    3    0    0 -0.47796851241E-01 -0.79465029111E-01  0.87481118475E-01  0.12895236335E+00  0.19404537680E-01 0.  0.
         14    1    1    2    0    0  0.94359035411E-02 -0.20959765862E-01  0.53149520919E-02  0.23592303329E-01  0.00000000000E+00 0. -1.
     999901    1    3    3    0    0  0.38360947700E-01  0.10042479497E+00 -0.92796070567E-01  0.89138533332E+00  0.88000000000E+00 0. -1.
        -11    1    4    4    0    0 -0.23351448782E-01 -0.22744059206E-01  0.35764141764E-01  0.48393360562E-01  0.51100000000E-03 0.  1.
         11    1    4    4    0    0 -0.24445402460E-01 -0.56720969905E-01  0.51716976711E-01  0.80559002784E-01  0.51100000000E-03 0. -1.
</event>
<event>
 8    1  0.1088088E+005  0.1043930E+01  0.7957747E-01            NaN
         13   -1    0    0    0    0  0.00000000000E+00  0.00000000000E+00  0.74505805969E-08  0.10566000000E+00  0.10566000000E+00 0.  1.
     999900   -1    0    0    0    0 -0.00000000000E+00 -0.00000000000E+00 -0.74505805969E-08  0.93827000000E+00  0.93827000000E+00 0.  1.
     999902    2    1    2    0    0  0.22072163443E-01 -0.52260964482E-02 -0.83458642798E-02  0.10197608889E+01  0.10194744354E+01 0.  0.
     999903    2    3    3    0    0 -0.32852837320E-01 -0.36402891078E-01  0.11723524423E+00  0.12860469432E+00  0.19763236377E-01 0.  0.
         14    1    1    2    0    0 -0.22072163443E-01  0.52260964482E-02  0.83458642798E-02  0.24169111149E-01  0.00000000000E+00 0.  1.
     999901    1    3    3    0    0  0.54925000763E-01  0.31176794629E-01 -0.12558110851E+00  0.89115619453E+00  0.88000000000E+00 0.  1.
        -11    1    4    4    0    0 -0.33262115512E-01 -0.33839483470E-01  0.94791119616E-01  0.10600517180E+00  0.51100000000E-03 0. -1.
         11    1    4    4    0    0  0.40927819175E-03 -0.25634076074E-02  0.22444124619E-01  0.22599522519E-01  0.51100000000E-03 0.  1.
</event>
<event>
 8    1  0.1088088E+005  0.1043930E+01  0.7957747E-01            NaN
         13   -1    0    0    0    0  0.00000000000E+00  0.00000000000E+00  0.74505805969E-08  0.10566000000E+00  0.10566000000E+00 0.  1.
     999900   -1    0    0    0    0 -0.00000000000E+00 -0.00000000000E+00 -0.74505805969E-08  0.93827000000E+00  0.93827000000E+00 0.  1.
     999902    2    1    2    0    0  0.21672064762E-01 -0.11200701594E-02  0.16959845659E-01  0.10163878630E+01  0.10160146252E+01 0.  0.
     999903    2    3    3    0    0  0.18266499083E-01  0.11922466734E+00  0.37926342828E-01  0.12794312763E+00  0.19566556589E-01 0.  0.
         14    1    1    2    0    0 -0.21672064762E-01  0.11200701594E-02 -0.16959845659E-01  0.27542137044E-01  0.00000000000E+00 0. -1.
     999901    1    3    3    0    0  0.34055656789E-02 -0.12034473750E+00 -0.20966497169E-01  0.88844473532E+00  0.88000000000E+00 0. -1.
        -11    1    4    4    0    0  0.18074814200E-02  0.56728706095E-01  0.10439479839E-01  0.57711844059E-01  0.51100000000E-03 0.  1.
         11    1    4    4    0    0  0.16459017663E-01  0.62495961245E-01  0.27486862989E-01  0.70231283573E-01  0.51100000000E-03 0. -1.
</event>
<event>
 8    1  0.1088088E+005  0.1043930E+01  0.7957747E-01            NaN
         13   -1    0    0    0    0  0.00000000000E+00  0.00000000000E+00  0.74505805969E-08  0.10566000000E+00  0.10566000000E+00 0.  1.
     999900   -1    0    0    0    0 -0.00000000000E+00 -0.00000000000E+00 -0.74505805969E-08  0.93827000000E+00  0.93827000000E+00 0. -1.
     999902    2    1    2    0    0 -0.68100967939E-02  0.51700878083E-02 -0.22744546025E-01  0.10196314074E+01  0.10193418393E+01 0.  0.
     999903    2    3    3    0    0  0.86429336063E-01 -0.82562220354E-01 -0.46092134158E-01  0.13006091580E+00  0.22467902110E-01 0.  0.
         14    1    1    2    0    0  0.68100967939E-02 -0.51700878083E-02  0.22744546025E-01  0.24298592555E-01  0.00000000000E+00 0.  1.
     999901    1    3    3    0    0 -0.93239432857E-01  0.87732308162E-01  0.23347588133E-01  0.88957049165E+00  0.88000000000E+00 0.  1.
        -11    1    4    4    0    0  0.57196318909E-01 -0.42431172276E-01 -0.34199738525E-01  0.79004471479E-01  0.51100000000E-03 0. -1.
         11    1    4    4    0    0  0.29233017154E-01 -0.40131048078E-01 -0.11892395633E-01  0.51056444320E-01  0.51100000000E-03 0.  1.
</event>
<event>
 8    1  0.1088088E+005  0.1043930E+01  0.7957747E-01            NaN
         13   -1    0    0    0    0  0.00000000000E+00  0.00000000000E+00  0.74505805969E-08  0.10566000000E+00  0.10566000000E+00 0.  1.
     999900   -1    0    0    0    0 -0.00000000000E+00 -0.00000000000E+00 -0.74505805969E-08  0.93827000000E+00  0.93827000000E+00 0. -1.
     999902    2    1    2    0    0  0.13833095429E-01 -0.65321614377E-02  0.18157302968E-01  0.10201873946E+01  0.10199110788E+01 0.  0.
     999903    2    3    3    0    0  0.86135357038E-01 -0.97542888374E-01  0.14847747661E-01  0.13253795778E+00  0.20296301086E-01 0.  0.
         14    1    1    2    0    0 -0.13833095429E-01  0.65321614377E-02 -0.18157302968E-01  0.23742605444E-01  0.00000000000E+00 0. -1.
     999901    1    3    3    0    0 -0.72302261609E-01  0.91010726936E-01  0.33095553069E-02  0.88764943678E+00  0.88000000000E+00 0.  1.
        -11    1    4    4    0    0  0.15153410084E-01 -0.71514411892E-02  0.23758185530E-02  0.16931467244E-01  0.51100000000E-03 0.  1.
         11    1    4    4    0    0  0.70981946954E-01 -0.90391447185E-01  0.12471929108E-01  0.11560649054E+00  0.51100000000E-03 0. -1.
</event>
<event>
 8    1  0.1088088E+005  0.1043930E+01  0.7957747E-01            NaN
         13   -1    0    0    0    0  0.00000000000E+00  0.00000000000E+00  0.74505805969E-08  0.10566000000E+00  0.10566000000E+00 0. -1.
     999900   -1    0    0    0    0 -0.00000000000E+00 -0.00000000000E+00 -0.74505805969E-08  0.93827000000E+00  0.93827000000E+00 0. -1.
     999902    2    1    2    0    0  0.56687942301E-03  0.15833951755E-01 -0.17754936549E-01  0.10201335055E+01  0.10198559191E+01 0.  0.
     999903    2    3    3    0    0 -0.93285931403E-01  0.84804069262E-01 -0.34318169149E-01  0.13230493649E+00  0.20805391716E-01 0.  0.
         14    1    1    2    0    0 -0.56687942301E-03 -0.15833951755E-01  0.17754936549E-01  0.23796494539E-01  0.00000000000E+00 0. -1.
     999901    1    3    3    0    0  0.93852810826E-01 -0.68970117507E-01  0.16563232599E-01  0.88782856897E+00  0.88000000000E+00 0.  1.
        -11    1    4    4    0    0 -0.25612651146E-01  0.32463556719E-01 -0.40382883089E-02  0.41550683593E-01  0.51100000000E-03 0.  1.
         11    1    4    4    0    0 -0.67673280257E-01  0.52340512543E-01 -0.30279880840E-01  0.90754252896E-01  0.51100000000E-03 0. -1.
</event>
<event>
 8    1  0.1088088E+005  0.1043930E+01  0.7957747E-01            NaN
         13   -1    0    0    0    0  0.00000000000E+00  0.00000000000E+00  0.74505805969E-08  0.10566000000E+00  0.10566000000E+00 0. -1.
     999900   -1    0    0    0    0 -0.00000000000E+00 -0.00000000000E+00 -0.74505805969E-08  0.93827000000E+00  0.93827000000E+00 0. -1.
     999902    2    1    2    0    0  0.12958248551E-01  0.19366958945E-01 -0.57799059394E-02  0.10199216136E+01  0.10196390024E+01 0.  0.
     999903    2    3    3    0    0 -0.46716164222E-01 -0.11529188363E+00 -0.18049777317E-01  0.12759623060E+00  0.21917690824E-01 0.  0.
         14    1    1    2    0    0 -0.12958248551E-01 -0.19366958945E-01  0.57799059394E-02  0.24008386388E-01  0.00000000000E+00 0. -1.
     999901    1    3    3    0    0  0.59674412772E-01  0.13465884258E+00  0.12269871377E-01  0.89232538301E+00  0.88000000000E+00 0. -1.
        -11    1    4    4    0    0 -0.29394830596E-01 -0.44792998761E-01 -0.10599148820E-01  0.54617505257E-01  0.51100000000E-03 0. -1.
         11    1    4    4    0    0 -0.17321333625E-01 -0.70498884872E-01 -0.74506284968E-02  0.72978725344E-01  0.51100000000E-03 0.  1.
</event>
<event>
 8    1  0.1088088E+005  0.1043930E+01  0.7957747E-01            NaN
         13   -1    0    0    0    0  0.00000000000E+00  0.00000000000E+00  0.74505805969E-08  0.10566000000E+00  0.10566000000E+00 0. -1.
     999900   -1    0    0    0    0 -0.00000000000E+00 -0.00000000000E+00 -0.74505805969E-08  0.93827000000E+00  0.93827000000E+00 0. -1.
     999902    2    1    2    0    0  0.15476915940E-01  0.14597272678E-01 -0.10964317964E-01  0.10199961001E+01  0.10197152606E+01 0.  0.
     999903    2    3    3    0    0  0.80686923062E-01  0.94561022277E-01 -0.43719602146E-01  0.13336232286E+00  0.20541155254E-01 0.  0.
         14    1    1    2    0    0 -0.15476915940E-01 -0.14597272678E-01  0.10964317964E-01  0.23933899914E-01  0.00000000000E+00 0. -1.
     999901    1    3    3    0    0 -0.65210007122E-01 -0.79963749599E-01  0.32755284182E-01  0.88663377723E+00  0.88000000000E+00 0.  1.
        -11    1    4    4    0    0  0.39195330903E-01  0.30620112022E-01 -0.15919313629E-01  0.52225959946E-01  0.51100000000E-03 0.  1.
         11    1    4    4    0    0  0.41491592159E-01  0.63940910255E-01 -0.27800288517E-01  0.81136362913E-01  0.51100000000E-03 0. -1.
</event>
<event>
 8    1  0.1088088E+005  0.1043930E+01  0.7957747E-01            NaN
         13   -1    0    0    0    0  0.00000000000E+00  0.00000000000E+00  0.74505805969E-08  0.10566000000E+00  0.10566000000E+00 0.  1.
     999900   -1    0    0    0    0 -0.00000000000E+00 -0.00000000000E+00 -0.74505805969E-08  0.93827000000E+00  0.93827000000E+00 0. -1.
     999902    2    1    2    0    0 -0.92279854237E-02  0.20625483412E-01  0.57899070896E-02  0.10206042780E+01  0.10203376907E+01 0.  0.
     999903    2    3    3    0    0  0.70816004431E-01 -0.56821350841E-01 -0.88817691334E-01  0.12855290613E+00  0.19841748538E-01 0.  0.
         14    1    1    2    0    0  0.92279854237E-02 -0.20625483412E-01 -0.57899070896E-02  0.23325721962E-01  0.00000000000E+00 0.  1.
     999901    1    3    3    0    0 -0.80043989855E-01  0.77446834252E-01  0.94607598423E-01  0.89205137191E+00  0.88000000000E+00 0.  1.
        -11    1    4    4    0    0  0.37835179033E-01 -0.27833495311E-01 -0.59262671192E-01  0.75620959737E-01  0.51100000000E-03 0. -1.
         11    1    4    4    0    0  0.32980825399E-01 -0.28987855529E-01 -0.29555020142E-01  0.52931946391E-01  0.51100000000E-03 0.  1.
</event>
<event>
 8    1  0.1088088E+005  0.1043930E+01  0.7957747E-01            NaN
         13   -1    0    0    0    0  0.00000000000E+00  0.00000000000E+00  0.74505805969E-08  0.10566000000E+00  0.10566000000E+00 0.  1.
     999900   -1    0    0    0    0 -0.00000000000E+00 -0.00000000000E+00 -0.74505805969E-08  0.93827000000E+00  0.93827000000E+00 0. -1.
     999902    2    1    2    0    0 -0.59968920755E-02  0.80808999601E-02  0.21700582881E-01  0.10200097375E+01  0.10197292218E+01 0.  0.
     999903    2    3    3    0    0 -0.11976095420E+00 -0.38181509175E-01 -0.26946376752E-01  0.13015076050E+00  0.20312544046E-01 0.  0.
         14    1    1    2    0    0  0.59968920755E-02 -0.80808999601E-02 -0.21700582881E-01  0.23920262459E-01  0.00000000000E+00 0. -1.
     999901    1    3    3    0    0  0.11376406213E+00  0.46262409135E-01  0.48646959633E-01  0.88985897704E+00  0.88000000000E+00 0.  1.
        -11    1    4    4    0    0 -0.70158409867E-01 -0.32559607485E-01 -0.18336855688E-01  0.79491080709E-01  0.51100000000E-03 0.  1.
         11    1    4    4    0    0 -0.49602544335E-01 -0.56219016901E-02 -0.86095210643E-02  0.50659679796E-01  0.51100000000E-03 0. -1.
</event>
<event>
 8    1  0.1088088E+005  0.1043930E+01  0.7957747E-01            NaN
         13   -1    0    0    0    0  0.00000000000E+00  0.00000000000E+00  0.74505805969E-08  0.10566000000E+00  0.10566000000E+00 0. -1.
     999900   -1    0    0    0    0 -0.00000000000E+00 -0.00000000000E+00 -0.74505805969E-08  0.93827000000E+00  0.93827000000E+00 0.  1.
     999902    2    1    2    0    0 -0.86342793333E-02 -0.37883953193E-02  0.21787773160E-01  0.10201895329E+01  0.10199132675E+01 0.  0.
     999903    2    3    3    0    0  0.43712204945E-01  0.11712680611E+00  0.31910825653E-01  0.13032262345E+00  0.18336843142E-01 0.  0.
         14    1    1    2    0    0  0.86342793333E-02  0.37883953193E-02 -0.21787773160E-01  0.23740467096E-01  0.00000000000E+00 0.  1.
     999901    1    3    3    0    0 -0.52346484278E-01 -0.12091520143E+00 -0.10123052494E-01  0.88986690946E+00  0.88000000000E+00 0. -1.
        -11    1    4    4    0    0  0.26253975273E-01  0.92095421717E-01  0.26007518607E-01  0.99234520525E-01  0.51100000000E-03 0. -1.
         11    1    4    4    0    0  0.17458229672E-01  0.25031384398E-01  0.59033070460E-02  0.31088102922E-01  0.51100000000E-03 0.  1.
</event>
<event>
 8    1  0.1088088E+005  0.1043930E+01  0.7957747E-01            NaN
         13   -1    0    0    0    0  0.00000000000E+00  0.00000000000E+00  0.74505805969E-08  0.10566000000E+00  0.10566000000E+00 0. -1.
     999900   -1    0    0    0    0 -0.00000000000E+00 -0.00000000000E+00 -0.74505805969E-08  0.93827000000E+00  0.93827000000E+00 0. -1.
     999902    2    1    2    0    0 -0.56532246600E-02 -0.23415998168E-01 -0.78183697668E-02  0.10186042261E+01  0.10182893373E+01 0.  0.
     999903    2    3    3    0    0 -0.67445132936E-01 -0.37789875595E-01 -0.10393718417E+00  0.13110004312E+00  0.20183220669E-01 0.  0.
         14    1    1    2    0    0  0.56532246600E-02  0.23415998168E-01  0.78183697668E-02  0.25325773929E-01  0.00000000000E+00 0. -1.
     999901    1    3    3    0    0  0.61791908276E-01  0.14373877426E-01  0.96118814408E-01  0.88750418296E+00  0.88000000000E+00 0.  1.
        -11    1    4    4    0    0 -0.57156982575E-01 -0.26736190194E-01 -0.71804700832E-01  0.95592472014E-01  0.51100000000E-03 0. -1.
         11    1    4    4    0    0 -0.10288150361E-01 -0.11053685400E-01 -0.32132483342E-01  0.35507571101E-01  0.51100000000E-03 0.  1.
</event>
<event>
 8    1  0.1088088E+005  0.1043930E+01  0.7957747E-01            NaN
         13   -1    0    0    0    0  0.00000000000E+00  0.00000000000E+00  0.74505805969E-08  0.10566000000E+00  0.10566000000E+00 0.  1.
     999900   -1    0    0    0    0 -0.00000000000E+00 -0.00000000000E+00 -0.74505805969E-08  0.93827000000E+00  0.93827000000E+00 0.  1.
     999902    2    1    2    0    0  0.15900844878E-01 -0.93256332345E-03 -0.16249594337E-01  0.10211757508E+01  0.10209222096E+01 0.  0.
     999903    2    3    3    0    0  0.63543782730E-01 -0.65867767125E-01  0.91543503462E-01  0.13094781245E+00  0.19767182144E-01 0.  0.
         14    1    1    2    0    0 -0.15900844878E-01  0.93256332345E-03  0.16249594337E-01  0.22754249236E-01  0.00000000000E+00 0.  1.
     999901    1    3    3    0    0 -0.47642937852E-01  0.64935203801E-01 -0.10779309780E+00  0.89022793831E+00  0.88000000000E+00 0.  1.
        -11    1    4    4    0    0  0.23732175072E-01 -0.30816287021E-01  0.26745087520E-01  0.47206149037E-01  0.51100000000E-03 0. -1.
         11    1    4    4    0    0  0.39811607658E-01 -0.35051480103E-01  0.64798415942E-01  0.83741663414E-01  0.51100000000E-03 0.  1.
</event>
<event>
 8    1  0.1088088E+005  0.1043930E+01  0.7957747E-01            NaN
         13   -1    0    0    0    0  0.00000000000E+00  0.00000000000E+00  0.74505805969E-08  0.10566000000E+00  0.10566000000E+00 0. -1.
     999900   -1    0    0    0    0 -0.00000000000E+00 -0.00000000000E+00 -0.74505805969E-08  0.93827000000E+00  0.93827000000E+00 0.  1.
     999902    2    1    2    0    0 -0.58863975801E-02  0.11048491079E-01  0.19879463252E-01  0.10204371949E+01  0.10201667299E+01 0.  0.
     999903    2    3    3    0    0  0.12212695890E+00  0.91705381561E-02 -0.36268195835E-01  0.12940211942E+00  0.20746894204E-01 0.  0.
         14    1    1    2    0    0  0.58863975801E-02 -0.11048491079E-01 -0.19879463252E-01  0.23492805085E-01  0.00000000000E+00 0.  1.
     999901    1    3    3    0    0 -0.12801335649E+00  0.18779529227E-02  0.56147659087E-01  0.89103507550E+00  0.88000000000E+00 0.  1.
        -11    1    4    4    0    0  0.73969980326E-01 -0.27775511031E-02 -0.15598758447E-01  0.75649554960E-01  0.51100000000E-03 0. -1.
         11    1    4    4    0    0  0.48156978579E-01  0.11948089259E-01 -0.20669437388E-01  0.53752564457E-01  0.51100000000E-03 0.  1.
</event>
<event>
 8    1  0.1369924E+005  0.1043930E+01  0.7957747E-01            NaN
         13   -1    0    0    0    0  0.00000000000E+00  0.00000000000E+00  0.74505805969E-08  0.10566000000E+00  0.10566000000E+00 0.  1.
     999900   -1    0    0    0    0 -0.00000000000E+00 -0.00000000000E+00 -0.74505805969E-08  0.93827000000E+00  0.93827000000E+00 0.  1.
     999902    2    1    2    0    0 -0.22285479992E-01 -0.26640828129E-02  0.99172981044E-02  0.10193924215E+01  0.10190970593E+01 0.  0.
     999903    2    3    3    0    0 -0.37630702810E-02 -0.73185730883E-02 -0.12685009773E+00  0.12862305491E+00  0.19627041291E-01 0.  0.
         14    1    1    2    0    0  0.22285479992E-01  0.26640828129E-02 -0.99172981044E-02  0.24537578475E-01  0.00000000000E+00 0. -1.
     999901    1    3    3    0    0 -0.18522409711E-01  0.46544902754E-02  0.13676739583E+00  0.89076936662E+00  0.88000000000E+00 0. -1.
        -11    1    4    4    0    0  0.41163746723E-02  0.50877593421E-02 -0.37166350124E-01  0.37741602220E-01  0.51100000000E-03 0. -1.
         11    1    4    4    0    0 -0.78794449533E-02 -0.12406332430E-01 -0.89683747605E-01  0.90881452687E-01  0.51100000000E-03 0.  1.
</event>
<event>
 8    1  0.1088088E+005  0.1043930E+01  0.7957747E-01            NaN
         13   -1    0    0    0    0  0.00000000000E+00  0.00000000000E+00  0.74505805969E-08  0.10566000000E+00  0.10566000000E+00 0.  1.
     999900   -1    0    0    0    0 -0.00000000000E+00 -0.00000000000E+00 -0.74505805969E-08  0.93827000000E+00  0.93827000000E+00 0.  1.
     999902    2    1    2    0    0 -0.18373853836E-01 -0.28918041224E-02  0.15191258683E-01  0.10199146845E+01  0.10196319083E+01 0.  0.
     999903    2    3    3    0    0  0.12291949556E+00 -0.63640541555E-02  0.28908063301E-01  0.12853147973E+00  0.23129236529E-01 0.  0.
         14    1    1    2    0    0  0.18373853836E-01  0.28918041224E-02 -0.15191258683E-01  0.24015315452E-01  0.00000000000E+00 0. -1.
     999901    1    3    3    0    0 -0.14129334940E+00  0.34722500332E-02 -0.13716804618E-01  0.89138320482E+00  0.88000000000E+00 0. -1.
        -11    1    4    4    0    0  0.33913000327E-01 -0.69340897297E-02 -0.99567821888E-03  0.34632725675E-01  0.51100000000E-03 0.  1.
         11    1    4    4    0    0  0.89006495236E-01  0.57003557416E-03  0.29903741520E-01  0.93898754053E-01  0.51100000000E-03 0. -1.
</event>
<event>
 8    1  0.1088088E+005  0.1043930E+01  0.7957747E-01            NaN
         13   -1    0    0    0    0  0.00000000000E+00  0.00000000000E+00  0.74505805969E-08  0.10566000000E+00  0.10566000000E+00 0.  1.
     999900   -1    0    0    0    0 -0.00000000000E+00 -0.00000000000E+00 -0.74505805969E-08  0.93827000000E+00  0.93827000000E+00 0. -1.
     999902    2    1    2    0    0 -0.54901741749E-02  0.99388569496E-02 -0.20848786075E-01  0.10201898490E+01  0.10199135910E+01 0.  0.
     999903    2    3    3    0    0 -0.96344250694E-01  0.86252027095E-01  0.13181717627E-01  0.13157506272E+00  0.20411090899E-01 0.  0.
         14    1    1    2    0    0  0.54901741749E-02 -0.99388569496E-02  0.20848786075E-01  0.23740151026E-01  0.00000000000E+00 0.  1.
     999901    1    3    3    0    0  0.90854076519E-01 -0.76313170146E-01 -0.34030503702E-01  0.88861478625E+00  0.88000000000E+00 0.  1.
        -11    1    4    4    0    0 -0.24880985283E-01  0.28146262955E-01  0.12071962398E-01  0.39462247074E-01  0.51100000000E-03 0.  1.
         11    1    4    4    0    0 -0.71463265410E-01  0.58105764141E-01  0.11097552286E-02  0.92112815651E-01  0.51100000000E-03 0. -1.
</event>
<event>
 8    1  0.1088088E+005  0.1043930E+01  0.7957747E-01            NaN
         13   -1    0    0    0    0  0.00000000000E+00  0.00000000000E+00  0.74505805969E-08  0.10566000000E+00  0.10566000000E+00 0.  1.
     999900   -1    0    0    0    0 -0.00000000000E+00 -0.00000000000E+00 -0.74505805969E-08  0.93827000000E+00  0.93827000000E+00 0.  1.
     999902    2    1    2    0    0  0.18168055690E-01 -0.13311491147E-01 -0.54659547831E-02  0.10207534881E+01  0.10204903393E+01 0.  0.
     999903    2    3    3    0    0 -0.72504354607E-01  0.18725955479E-01 -0.10427393066E+00  0.13001733180E+00  0.20589101649E-01 0.  0.
         14    1    1    2    0    0 -0.18168055690E-01  0.13311491147E-01  0.54659547831E-02  0.23176511942E-01  0.00000000000E+00 0.  1.
     999901    1    3    3    0    0  0.90672410298E-01 -0.32037446626E-01  0.98807975876E-01  0.89073615626E+00  0.88000000000E+00 0. -1.
        -11    1    4    4    0    0 -0.39458941045E-01  0.15807252115E-01 -0.72701169250E-01  0.84217565740E-01  0.51100000000E-03 0. -1.
         11    1    4    4    0    0 -0.33045413562E-01  0.29187033631E-02 -0.31572761409E-01  0.45799766056E-01  0.51100000000E-03 0.  1.
</event>
<event>
 8    1  0.1088088E+005  0.1043930E+01  0.7957747E-01            NaN
         13   -1    0    0    0    0  0.00000000000E+00  0.00000000000E+00  0.74505805969E-08  0.10566000000E+00  0.10566000000E+00 0. -1.
     999900   -1    0    0    0    0 -0.00000000000E+00 -0.00000000000E+00 -0.74505805969E-08  0.93827000000E+00  0.93827000000E+00 0. -1.
     999902    2    1    2    0    0 -0.50566954290E-02 -0.20988159028E-01  0.14612010033E-01  0.10178611714E+01  0.10175272873E+01 0.  0.
     999903    2    3    3    0    0 -0.75760425744E-01  0.41512279879E-02  0.10389821863E+00  0.13016582201E+00  0.19784503569E-01 0.  0.
         14    1    1    2    0    0  0.50566954290E-02  0.20988159028E-01 -0.14612010033E-01  0.26068828613E-01  0.00000000000E+00 0. -1.
     999901    1    3    3    0    0  0.70703730316E-01 -0.25139387016E-01 -0.89286208600E-01  0.88769534938E+00  0.88000000000E+00 0. -1.
        -11    1    4    4    0    0 -0.68572455862E-01 -0.21758548511E-02  0.94098290268E-01  0.11645456367E+00  0.51100000000E-03 0. -1.
         11    1    4    4    0    0 -0.71879698828E-02  0.63270828390E-02  0.97999283658E-02  0.13711258340E-01  0.51100000000E-03 0.  1.
</event>
<event>
 8    1  0.1088088E+005  0.1043930E+01  0.7957747E-01            NaN
         13   -1    0    0    0    0  0.00000000000E+00  0.00000000000E+00  0.74505805969E-08  0.10566000000E+00  0.10566000000E+00 0. -1.
     999900   -1    0    0    0    0 -0.00000000000E+00 -0.00000000000E+00 -0.74505805969E-08  0.93827000000E+00  0.93827000000E+00 0.  1.
     999902    2    1    2    0    0  0.14501848361E-01  0.19440128627E-01  0.13760054441E-02  0.10196377050E+01  0.10193482888E+01 0.  0.
     999903    2    3    3    0    0  0.70830542353E-01  0.39595152105E-01  0.10200456351E+00  0.13188478133E+00  0.20097829965E-01 0.  0.
         14    1    1    2    0    0 -0.14501848361E-01 -0.19440128627E-01 -0.13760054441E-02  0.24292295031E-01  0.00000000000E+00 0. -1.
     999901    1    3    3    0    0 -0.56328693992E-01 -0.20155023479E-01 -0.10062855806E+00  0.88775292364E+00  0.88000000000E+00 0.  1.
        -11    1    4    4    0    0  0.30446670500E-01  0.10584516870E-01  0.27855953057E-01  0.42605715386E-01  0.51100000000E-03 0. -1.
         11    1    4    4    0    0  0.40383871853E-01  0.29010635236E-01  0.74148610449E-01  0.89279065940E-01  0.51100000000E-03 0.  1.
</event>
<event>
 8    1  0.1088088E+005  0.1043930E+01  0.7957747E-01            NaN
         13   -1    0    0    0    0  0.00000000000E+00  0.00000000000E+00  0.74505805969E-08  0.10566000000E+00  0.10566000000E+00 0. -1.
     999900   -1    0    0    0    0 -0.00000000000E+00 -0.00000000000E+00 -0.74505805969E-08  0.93827000000E+00  0.93827000000E+00 0.  1.
     999902    2    1    2    0    0  0.12414221588E-01  0.11132946972E-01 -0.17489247881E-01  0.10197653730E+01  0.10194790272E+01 0.  0.
     999903    2    3    3    0    0  0.89243472297E-01 -0.17397537957E-02 -0.96415414469E-01  0.13280552051E+00  0.19337787846E-01 0.  0.
         14    1    1    2    0    0 -0.12414221588E-01 -0.11132946972E-01  0.17489247881E-01  0.24164626985E-01  0.00000000000E+00 0. -1.
     999901    1    3    3    0    0 -0.76829250709E-01  0.12872700768E-01  0.78926166589E-01  0.88695985251E+00  0.88000000000E+00 0. -1.
        -11    1    4    4    0    0  0.77248498155E-01 -0.41485495552E-02 -0.72923998925E-01  0.10631421199E+00  0.51100000000E-03 0. -1.
         11    1    4    4    0    0  0.11994974142E-01  0.24087957595E-02 -0.23491415545E-01  0.26491308517E-01  0.51100000000E-03 0.  1.
</event>
<event>
 8    1  0.1200293E+005  0.1043930E+01  0.7957747E-01            NaN
         13   -1    0    0    0    0  0.00000000000E+00  0.00000000000E+00  0.74505805969E-08  0.10566000000E+00  0.10566000000E+00 0.  1.
     999900   -1    0    0    0    0 -0.00000000000E+00 -0.00000000000E+00 -0.74505805969E-08  0.93827000000E+00  0.93827000000E+00 0. -1.
     999902    2    1    2    0    0  0.99487643170E-02 -0.16121658432E-01  0.17226408215E-01  0.10183246310E+01  0.10180026617E+01 0.  0.
     999903    2    3    3    0    0  0.95630443835E-01  0.77378694859E-01 -0.29185609011E-01  0.12802258022E+00  0.20132984533E-01 0.  0.
         14    1    1    2    0    0 -0.99487643170E-02  0.16121658432E-01 -0.17226408215E-01  0.25605369008E-01  0.00000000000E+00 0. -1.
     999901    1    3    3    0    0 -0.85681679518E-01 -0.93500353290E-01  0.46412017226E-01  0.89030205077E+00  0.88000000000E+00 0.  1.
        -11    1    4    4    0    0  0.53125399399E-01  0.53318409228E-01 -0.11870290295E-01  0.76199250236E-01  0.51100000000E-03 0.  1.
         11    1    4    4    0    0  0.42505044436E-01  0.24060285631E-01 -0.17315318716E-01  0.51823329982E-01  0.51100000000E-03 0. -1.
</event>
<event>
 8    1  0.1088088E+005  0.1043930E+01  0.7957747E-01            NaN
         13   -1    0    0    0    0  0.00000000000E+00  0.00000000000E+00  0.74505805969E-08  0.10566000000E+00  0.10566000000E+00 0.  1.
     999900   -1    0    0    0    0 -0.00000000000E+00 -0.00000000000E+00 -0.74505805969E-08  0.93827000000E+00  0.93827000000E+00 0. -1.
     999902    2    1    2    0    0  0.16434986880E-01  0.16319959699E-01  0.98318429682E-02  0.10187682231E+01  0.10184574500E+01 0.  0.
     999903    2    3    3    0    0 -0.35419444568E-01 -0.58059819048E-01 -0.10498641334E+00  0.12668949034E+00  0.20064903039E-01 0.  0.
         14    1    1    2    0    0 -0.16434986880E-01 -0.16319959699E-01 -0.98318429682E-02  0.25161776854E-01  0.00000000000E+00 0. -1.
     999901    1    3    3    0    0  0.51854431448E-01  0.74379778747E-01  0.11481825631E+00  0.89207873281E+00  0.88000000000E+00 0.  1.
        -11    1    4    4    0    0 -0.89089844876E-02 -0.21374042033E-01 -0.52488474542E-01  0.57371776669E-01  0.51100000000E-03 0.  1.
         11    1    4    4    0    0 -0.26510460080E-01 -0.36685777014E-01 -0.52497938801E-01  0.69317713668E-01  0.51100000000E-03 0. -1.
</event>
<event>
 8    1  0.1088088E+005  0.1043930E+01  0.7957747E-01            NaN
         13   -1    0    0    0    0  0.00000000000E+00  0.00000000000E+00  0.74505805969E-08  0.10566000000E+00  0.10566000000E+00 0. -1.
     999900   -1    0    0    0    0 -0.00000000000E+00 -0.00000000000E+00 -0.74505805969E-08  0.93827000000E+00  0.93827000000E+00 0.  1.
     999902    2    1    2    0    0 -0.16097584056E-01  0.17483896751E-01  0.40666915273E-02  0.10198186575E+01  0.10195335881E+01 0.  0.
     999903    2    3    3    0    0  0.10717019246E+00  0.64606169930E-01 -0.26556250300E-01  0.12945175675E+00  0.19827141764E-01 0.  0.
         14    1    1    2    0    0  0.16097584056E-01 -0.17483896751E-01 -0.40666915273E-02  0.24111342518E-01  0.00000000000E+00 0.  1.
     999901    1    3    3    0    0 -0.12326777651E+00 -0.47122273179E-01  0.30622941827E-01  0.89036690073E+00  0.88000000000E+00 0.  1.
        -11    1    4    4    0    0  0.82176264372E-01  0.39343969019E-01 -0.17510639715E-01  0.92778068252E-01  0.51100000000E-03 0. -1.
         11    1    4    4    0    0  0.24993928087E-01  0.25262200911E-01 -0.90456105847E-02  0.36673688496E-01  0.51100000000E-03 0.  1.
</event>
<event>
 8    1  0.1088088E+005  0.1043930E+01  0.7957747E-01            NaN
         13   -1    0    0    0    0  0.00000000000E+00  0.00000000000E+00  0.74505805969E-08  0.10566000000E+00  0.10566000000E+00 0. -1.
     999900   -1    0    0    0    0 -0.00000000000E+00 -0.00000000000E+00 -0.74505805969E-08  0.93827000000E+00  0.93827000000E+00 0. -1.
     999902    2    1    2    0    0 -0.10802725127E-01  0.12936490823E-01 -0.16799986094E-01  0.10201331263E+01  0.10198555310E+01 0.  0.
     999903    2    3    3    0    0 -0.75021226686E-01 -0.10102467791E+00  0.23487662742E-01  0.12955227171E+00  0.19948704292E-01 0.  0.
         14    1    1    2    0    0  0.10802725127E-01 -0.12936490823E-01  0.16799986094E-01  0.23796873697E-01  0.00000000000E+00 0. -1.
     999901    1    3    3    0    0  0.64218501560E-01  0.11396116874E+00 -0.40287648836E-01  0.89058085459E+00  0.88000000000E+00 0. -1.
        -11    1    4    4    0    0 -0.66644961694E-01 -0.97773062949E-01  0.20650552945E-01  0.12011589910E+00  0.51100000000E-03 0.  1.
         11    1    4    4    0    0 -0.83762649921E-02 -0.32516149637E-02  0.28371097970E-02  0.94363726129E-02  0.51100000000E-03 0. -1.
</event>
<event>
 8    1  0.1088088E+005  0.1043930E+01  0.7957747E-01            NaN
         13   -1    0    0    0    0  0.00000000000E+00  0.00000000000E+00  0.74505805969E-08  0.10566000000E+00  0.10566000000E+00 0. -1.
     999900   -1    0    0    0    0 -0.00000000000E+00 -0.00000000000E+00 -0.74505805969E-08  0.93827000000E+00  0.93827000000E+00 0. -1.
     999902    2    1    2    0    0 -0.30755761619E-03 -0.63351098085E-02  0.22752361817E-01  0.10203101317E+01  0.10200366987E+01 0.  0.
     999903    2    3    3    0    0 -0.48200295570E-01  0.11790433928E+00  0.18632734285E-01  0.13028421842E+00  0.20052358173E-01 0.  0.
         14    1    1    2    0    0  0.30755761619E-03  0.63351098085E-02 -0.22752361817E-01  0.23619868252E-01  0.00000000000E+00 0.  1.
     999901    1    3    3    0    0  0.47892737953E-01 -0.12423944909E+00  0.41196275322E-02  0.89002591333E+00  0.88000000000E+00 0.  1.
        -11    1    4    4    0    0 -0.42652818465E-01  0.86755642553E-01  0.19532290998E-01  0.98628474338E-01  0.51100000000E-03 0.  1.
         11    1    4    4    0    0 -0.55474771051E-02  0.31148696731E-01 -0.89955671350E-03  0.31655744085E-01  0.51100000000E-03 0. -1.
</event>
<event>
 8    1  0.1088088E+005  0.1043930E+01  0.7957747E-01            NaN
         13   -1    0    0    0    0  0.00000000000E+00  0.00000000000E+00  0.74505805969E-08  0.10566000000E+00  0.10566000000E+00 0.  1.
     999900   -1    0    0    0    0 -0.00000000000E+00 -0.00000000000E+00 -0.74505805969E-08  0.93827000000E+00  0.93827000000E+00 0.  1.
     999902    2    1    2    0    0 -0.91033102867E-02 -0.61082180149E-03 -0.22255559375E-01  0.10198768654E+01  0.10195931871E+01 0.  0.
     999903    2    3    3    0    0 -0.29160482279E-01  0.11380364079E+00  0.49123510854E-01  0.12937816743E+00  0.22890795193E-01 0.  0.
         14    1    1    2    0    0  0.91033102867E-02  0.61082180149E-03  0.22255559375E-01  0.24053134609E-01  0.00000000000E+00 0.  1.
     999901    1    3    3    0    0  0.20057171992E-01 -0.11441446260E+00 -0.71379070228E-01  0.89049869796E+00  0.88000000000E+00 0. -1.
        -11    1    4    4    0    0 -0.68578294805E-02  0.70369119909E-01  0.25791997768E-01  0.75261750789E-01  0.51100000000E-03 0. -1.
         11    1    4    4    0    0 -0.22302652798E-01  0.43434520886E-01  0.23331513085E-01  0.54116416643E-01  0.51100000000E-03 0.  1.
</event>
<event>
 8    1  0.1088088E+005  0.1043930E+01  0.7957747E-01            NaN
         13   -1    0    0    0    0  0.00000000000E+00  0.00000000000E+00  0.74505805969E-08  0.10566000000E+00  0.10566000000E+00 0. -1.
     999900   -1    0    0    0    0 -0.00000000000E+00 -0.00000000000E+00 -0.74505805969E-08  0.93827000000E+00  0.93827000000E+00 0. -1.
     999902    2    1    2    0    0 -0.15029251970E-01 -0.64526854312E-02 -0.17202794556E-01  0.10201928623E+01  0.10199166753E+01 0.  0.
     999903    2    3    3    0    0 -0.15652430642E-01 -0.29377947638E-02 -0.13042374913E+00  0.13293206225E+00  0.20172992193E-01 0.  0.
         14    1    1    2    0    0  0.15029251970E-01  0.64526854312E-02  0.17202794556E-01  0.23737137666E-01  0.00000000000E+00 0. -1.
     999901    1    3    3    0    0  0.62317867141E-03 -0.35148906674E-02  0.11322095457E+00  0.88726080008E+00  0.88000000000E+00 0.  1.
        -11    1    4    4    0    0 -0.13385668330E-01 -0.79580429967E-02 -0.51270608012E-01  0.53585846377E-01  0.51100000000E-03 0. -1.
         11    1    4    4    0    0 -0.22667623119E-02  0.50202482329E-02 -0.79153141118E-01  0.79346215875E-01  0.51100000000E-03 0.  1.
</event>
<event>
 8    1  0.1088088E+005  0.1043930E+01  0.7957747E-01            NaN
         13   -1    0    0    0    0  0.00000000000E+00  0.00000000000E+00  0.74505805969E-08  0.10566000000E+00  0.10566000000E+00 0. -1.
     999900   -1    0    0    0    0 -0.00000000000E+00 -0.00000000000E+00 -0.74505805969E-08  0.93827000000E+00  0.93827000000E+00 0.  1.
     999902    2    1    2    0    0  0.10023610887E-01 -0.87906642026E-02 -0.15830131745E-01  0.10232335843E+01  0.10230242550E+01 0.  0.
     999903    2    3    3    0    0 -0.59581328713E-01 -0.37386255975E-01  0.10876638395E+00  0.13127683241E+00  0.21349791188E-01 0.  0.
         14    1    1    2    0    0 -0.10023610887E-01  0.87906642026E-02  0.15830131745E-01  0.20696415714E-01  0.00000000000E+00 0. -1.
     999901    1    3    3    0    0  0.69604939600E-01  0.28595591772E-01 -0.12459651570E+00  0.89195675187E+00  0.88000000000E+00 0.  1.
        -11    1    4    4    0    0 -0.11071519254E-01 -0.34792196379E-03  0.88250787691E-02  0.14171899117E-01  0.51100000000E-03 0.  1.
         11    1    4    4    0    0 -0.48509809459E-01 -0.37038334011E-01  0.99941305183E-01  0.11710493330E+00  0.51100000000E-03 0. -1.
</event>
<event>
 8    1  0.1088088E+005  0.1043930E+01  0.7957747E-01            NaN
         13   -1    0    0    0    0  0.00000000000E+00  0.00000000000E+00  0.74505805969E-08  0.10566000000E+00  0.10566000000E+00 0. -1.
     999900   -1    0    0    0    0 -0.00000000000E+00 -0.00000000000E+00 -0.74505805969E-08  0.93827000000E+00  0.93827000000E+00 0.  1.
     999902    2    1    2    0    0 -0.11948801797E-01 -0.80052545110E-03 -0.20150624391E-01  0.10204893863E+01  0.10202201357E+01 0.  0.
     999903    2    3    3    0    0  0.11610501130E+00 -0.38110744531E-01 -0.40464953413E-01  0.13020712579E+00  0.19587767973E-01 0.  0.
         14    1    1    2    0    0  0.11948801797E-01  0.80052545110E-03  0.20150624391E-01  0.23440613659E-01  0.00000000000E+00 0. -1.
     999901    1    3    3    0    0 -0.12805381309E+00  0.37310219080E-01  0.20314329022E-01  0.89028226055E+00  0.88000000000E+00 0. -1.
        -11    1    4    4    0    0  0.38416530918E-01 -0.21708300371E-01 -0.18265184889E-01  0.47759378689E-01  0.51100000000E-03 0. -1.
         11    1    4    4    0    0  0.77688480378E-01 -0.16402444160E-01 -0.22199768524E-01  0.82447747097E-01  0.51100000000E-03 0.  1.
</event>
<event>
 8    1  0.1088088E+005  0.1043930E+01  0.7957747E-01            NaN
         13   -1    0    0    0    0  0.00000000000E+00  0.00000000000E+00  0.74505805969E-08  0.10566000000E+00  0.10566000000E+00 0.  1.
     999900   -1    0    0    0    0 -0.00000000000E+00 -0.00000000000E+00 -0.74505805969E-08  0.93827000000E+00  0.93827000000E+00 0. -1.
     999902    2    1    2    0    0  0.16141932133E-02  0.21899126155E-01 -0.87031070785E-02  0.10203096397E+01  0.10200361952E+01 0.  0.
     999903    2    3    3    0    0 -0.12570024580E+00 -0.12224447627E-01  0.20499933363E-01  0.13001406958E+00  0.23095932719E-01 0.  0.
         14    1    1    2    0    0 -0.16141932133E-02 -0.21899126155E-01  0.87031070785E-02  0.23620360262E-01  0.00000000000E+00 0.  1.
     999901    1    3    3    0    0  0.12731443901E+00  0.34123573782E-01 -0.29203040442E-01  0.89029557016E+00  0.88000000000E+00 0.  1.
        -11    1    4    4    0    0 -0.81034583217E-01 -0.17820125486E-01  0.83870381559E-02  0.83395228158E-01  0.51100000000E-03 0. -1.
         11    1    4    4    0    0 -0.44665662580E-01  0.55956778592E-02  0.12112895207E-01  0.46618841424E-01  0.51100000000E-03 0.  1.
</event>
<event>
 8    1  0.1088088E+005  0.1043930E+01  0.7957747E-01            NaN
         13   -1    0    0    0    0  0.00000000000E+00  0.00000000000E+00  0.74505805969E-08  0.10566000000E+00  0.10566000000E+00 0. -1.
     999900   -1    0    0    0    0 -0.00000000000E+00 -0.00000000000E+00 -0.74505805969E-08  0.93827000000E+00  0.93827000000E+00 0. -1.
     999902    2    1    2    0    0  0.17488548777E-01 -0.92919259434E-02  0.11355715116E-01  0.10211014764E+01  0.10208462585E+01 0.  0.
     999903    2    3    3    0    0  0.96375688484E-01  0.25703130357E-01  0.83196643539E-01  0.13396622524E+00  0.32807678479E-01 0.  0.
         14    1    1    2    0    0 -0.17488548777E-01  0.92919259434E-02 -0.11355715116E-01  0.22828523646E-01  0.00000000000E+00 0.  1.
     999901    1    3    3    0    0 -0.78887139707E-01 -0.34995056301E-01 -0.71840928423E-01  0.88713525112E+00  0.88000000000E+00 0. -1.
        -11    1    4    4    0    0  0.89434115571E-01  0.13462770120E-01  0.67335219757E-01  0.11275637520E+00  0.51100000000E-03 0. -1.
         11    1    4    4    0    0  0.69415729130E-02  0.12240360237E-01  0.15861423782E-01  0.21209850038E-01  0.51100000000E-03 0.  1.
</event>
<event>
 8    1  0.1088088E+005  0.1043930E+01  0.7957747E-01            NaN
         13   -1    0    0    0    0  0.00000000000E+00  0.00000000000E+00  0.74505805969E-08  0.10566000000E+00  0.10566000000E+00 0.  1.
     999900   -1    0    0    0    0 -0.00000000000E+00 -0.00000000000E+00 -0.74505805969E-08  0.93827000000E+00  0.93827000000E+00 0.  1.
     999902    2    1    2    0    0  0.82737104386E-02 -0.13661593724E-01 -0.17397048478E-01  0.10203132533E+01  0.10200398934E+01 0.  0.
     999903    2    3    3    0    0 -0.10267895161E+00 -0.63312095537E-02 -0.78891793776E-01  0.13118681044E+00  0.20075178441E-01 0.  0.
         14    1    1    2    0    0 -0.82737104386E-02  0.13661593724E-01  0.17397048478E-01  0.23616746669E-01  0.00000000000E+00 0.  1.
     999901    1    3    3    0    0  0.11095266205E+00 -0.73303841707E-02  0.61494745299E-01  0.88912644289E+00  0.88000000000E+00 0. -1.
        -11    1    4    4    0    0 -0.48931673792E-01 -0.53493040471E-02 -0.25578004380E-01  0.55474491281E-01  0.51100000000E-03 0. -1.
         11    1    4    4    0    0 -0.53747277821E-01 -0.98190550665E-03 -0.53313789396E-01  0.75712319158E-01  0.51100000000E-03 0.  1.
</event>
<event>
 8    1  0.1088088E+005  0.1043930E+01  0.7957747E-01            NaN
         13   -1    0    0    0    0  0.00000000000E+00  0.00000000000E+00  0.74505805969E-08  0.10566000000E+00  0.10566000000E+00 0.  1.
     999900   -1    0    0    0    0 -0.00000000000E+00 -0.00000000000E+00 -0.74505805969E-08  0.93827000000E+00  0.93827000000E+00 0. -1.
     999902    2    1    2    0    0 -0.29253154070E-03 -0.24016850956E-01  0.21248444551E-02  0.10198175620E+01  0.10195324664E+01 0.  0.
     999903    2    3    3    0    0 -0.66465711600E-02 -0.10205660185E+00  0.82338201744E-01  0.13270721976E+00  0.19284704326E-01 0.  0.
         14    1    1    2    0    0  0.29253154070E-03  0.24016850956E-01 -0.21248444551E-02  0.24112438045E-01  0.00000000000E+00 0. -1.
     999901    1    3    3    0    0  0.63540396193E-02  0.78039750894E-01 -0.80213357289E-01  0.88711034219E+00  0.88000000000E+00 0. -1.
        -11    1    4    4    0    0 -0.61607809586E-02 -0.29961694636E-01  0.15078864365E-01  0.34107061424E-01  0.51100000000E-03 0.  1.
         11    1    4    4    0    0 -0.48579020136E-03 -0.72094907214E-01  0.67259337379E-01  0.98600158337E-01  0.51100000000E-03 0. -1.
</event>
<event>
 8    1  0.1271752E+005  0.1043930E+01  0.7957747E-01            NaN
         13   -1    0    0    0    0  0.00000000000E+00  0.00000000000E+00  0.74505805969E-08  0.10566000000E+00  0.10566000000E+00 0.  1.
     999900   -1    0    0    0    0 -0.00000000000E+00 -0.00000000000E+00 -0.74505805969E-08  0.93827000000E+00  0.93827000000E+00 0.  1.
     999902    2    1    2    0    0 -0.15851626070E-01 -0.15963244062E-01  0.64633165386E-03  0.10214240685E+01  0.10211760919E+01 0.  0.
     999903    2    3    3    0    0  0.49417204987E-01  0.30311455903E-01 -0.11493402862E+00  0.13026741116E+00  0.19973056015E-01 0.  0.
         14    1    1    2    0    0  0.15851626070E-01  0.15963244062E-01 -0.64633165386E-03  0.22505931544E-01  0.00000000000E+00 0. -1.
     999901    1    3    3    0    0 -0.65268831057E-01 -0.46274699965E-01  0.11558036028E+00  0.89115665730E+00  0.88000000000E+00 0. -1.
        -11    1    4    4    0    0  0.21966710647E-01  0.24960576181E-01 -0.58873538085E-01  0.67615984409E-01  0.51100000000E-03 0. -1.
         11    1    4    4    0    0  0.27450494340E-01  0.53508797217E-02 -0.56060490538E-01  0.62651426749E-01  0.51100000000E-03 0.  1.
</event>
<event>
 8    1  0.1088088E+005  0.1043930E+01  0.7957747E-01            NaN
         13   -1    0    0    0    0  0.00000000000E+00  0.00000000000E+00  0.74505805969E-08  0.10566000000E+00  0.10566000000E+00 0.  1.
     999900   -1    0    0    0    0 -0.00000000000E+00 -0.00000000000E+00 -0.74505805969E-08  0.93827000000E+00  0.93827000000E+00 0.  1.
     999902    2    1    2    0    0  0.88386376062E-02 -0.15828122534E-01  0.14078839535E-01  0.10209764665E+01  0.10207184139E+01 0.  0.
     999903    2    3    3    0    0  0.81679697997E-01  0.82981603608E-01  0.57612676276E-01  0.13138983384E+00  0.19660833309E-01 0.  0.
         14    1    1    2    0    0 -0.88386376062E-02  0.15828122534E-01 -0.14078839535E-01  0.22953533505E-01  0.00000000000E+00 0. -1.
     999901    1    3    3    0    0 -0.72841060391E-01 -0.98809726142E-01 -0.43533836741E-01  0.88958663266E+00  0.88000000000E+00 0.  1.
        -11    1    4    4    0    0  0.47780369409E-01  0.53953561271E-01  0.45167601847E-01  0.85054828506E-01  0.51100000000E-03 0. -1.
         11    1    4    4    0    0  0.33899328588E-01  0.29028042337E-01  0.12445074429E-01  0.46335005333E-01  0.51100000000E-03 0.  1.
</event>
<event>
 8    1  0.1088088E+005  0.1043930E+01  0.7957747E-01            NaN
         13   -1    0    0    0    0  0.00000000000E+00  0.00000000000E+00  0.74505805969E-08  0.10566000000E+00  0.10566000000E+00 0.  1.
     999900   -1    0    0    0    0 -0.00000000000E+00 -0.00000000000E+00 -0.74505805969E-08  0.93827000000E+00  0.93827000000E+00 0.  1.
     999902    2    1    2    0    0 -0.58471763496E-02 -0.18450410697E-01  0.15739998785E-01  0.10189829623E+01  0.10186775362E+01 0.  0.
     999903    2    3    3    0    0 -0.20009720828E-01 -0.58386995318E-01  0.11534496761E+00  0.13235076223E+00  0.20070689061E-01 0.  0.
         14    1    1    2    0    0  0.58471763496E-02  0.18450410697E-01 -0.15739998785E-01  0.24947037658E-01  0.00000000000E+00 0.  1.
     999901    1    3    3    0    0  0.14162544479E-01  0.39936584621E-01 -0.99604968829E-01  0.88663220011E+00  0.88000000000E+00 0.  1.
        -11    1    4    4    0    0 -0.13672412521E-01 -0.22916200048E-01  0.32831013656E-01  0.42311034819E-01  0.51100000000E-03 0.  1.
         11    1    4    4    0    0 -0.63373083074E-02 -0.35470795270E-01  0.82513953958E-01  0.90039727412E-01  0.51100000000E-03 0. -1.
</event>
<event>
 8    1  0.1088088E+005  0.1043930E+01  0.7957747E-01            NaN
         13   -1    0    0    0    0  0.00000000000E+00  0.00000000000E+00  0.74505805969E-08  0.10566000000E+00  0.10566000000E+00 0. -1.
     999900   -1    0    0    0    0 -0.00000000000E+00 -0.00000000000E+00 -0.74505805969E-08  0.93827000000E+00  0.93827000000E+00 0.  1.
     999902    2    1    2    0    0  0.10851782935E-01 -0.20168026460E-01  0.30002700200E-02  0.10208321191E+01  0.10205707732E+01 0.  0.
     999903    2    3    3    0    0  0.66737618961E-01  0.82098762052E-01 -0.73658183724E-01  0.12984489062E+00  0.15493581724E-01 0.  0.
         14    1    1    2    0    0 -0.10851782935E-01  0.20168026460E-01 -0.30002700200E-02  0.23097880950E-01  0.00000000000E+00 0. -1.
     999901    1    3    3    0    0 -0.55885836026E-01 -0.10226678851E+00  0.76658453744E-01  0.89098722843E+00  0.88000000000E+00 0. -1.
        -11    1    4    4    0    0  0.39639764989E-01  0.43046194935E-01 -0.48826599483E-01  0.76214065663E-01  0.51100000000E-03 0.  1.
         11    1    4    4    0    0  0.27097853972E-01  0.39052567117E-01 -0.24831584241E-01  0.53630824954E-01  0.51100000000E-03 0. -1.
</event>
<event>
 8    1  0.1088088E+005  0.1043930E+01  0.7957747E-01            NaN
         13   -1    0    0    0    0  0.00000000000E+00  0.00000000000E+00  0.74505805969E-08  0.10566000000E+00  0.10566000000E+00 0. -1.
     999900   -1    0    0    0    0 -0.00000000000E+00 -0.00000000000E+00 -0.74505805969E-08  0.93827000000E+00  0.93827000000E+00 0.  1.
     999902    2    1    2    0    0 -0.24483320162E-01  0.35698797603E-02  0.41735717021E-02  0.10188382542E+01  0.10185292301E+01 0.  0.
     999903    2    3    3    0    0  0.51704210131E-01 -0.94055314643E-01  0.66626902195E-01  0.12797595458E+00  0.20468837211E-01 0.  0.
         14    1    1    2    0    0  0.24483320162E-01 -0.35698797603E-02 -0.41735717021E-02  0.25091745823E-01  0.00000000000E+00 0. -1.
     999901    1    3    3    0    0 -0.76187530294E-01  0.97625194403E-01 -0.62453330492E-01  0.89086229960E+00  0.88000000000E+00 0.  1.
        -11    1    4    4    0    0  0.32934758833E-01 -0.39626224544E-01  0.28026316006E-01  0.58657237583E-01  0.51100000000E-03 0. -1.
         11    1    4    4    0    0  0.18769451299E-01 -0.54429090099E-01  0.38600586188E-01  0.69318716997E-01  0.51100000000E-03 0.  1.
</event>
<event>
 8    1  0.1088088E+005  0.1043930E+01  0.7957747E-01            NaN
         13   -1    0    0    0    0  0.00000000000E+00  0.00000000000E+00  0.74505805969E-08  0.10566000000E+00  0.10566000000E+00 0.  1.
     999900   -1    0    0    0    0 -0.00000000000E+00 -0.00000000000E+00 -0.74505805969E-08  0.93827000000E+00  0.93827000000E+00 0.  1.
     999902    2    1    2    0    0 -0.54971831932E-02 -0.21067059275E-01 -0.79609973942E-02  0.10207477333E+01  0.10204844524E+01 0.  0.
     999903    2    3    3    0    0  0.11789939597E+00  0.38349958381E-01 -0.32785542337E-01  0.12980814177E+00  0.20106591064E-01 0.  0.
         14    1    1    2    0    0  0.54971831932E-02  0.21067059275E-01  0.79609973942E-02  0.23182266693E-01  0.00000000000E+00 0. -1.
     999901    1    3    3    0    0 -0.12339657917E+00 -0.59417017656E-01  0.24824544943E-01  0.89093959154E+00  0.88000000000E+00 0. -1.
        -11    1    4    4    0    0  0.15673388695E-01  0.10864627774E-01 -0.99456142860E-02  0.21514451291E-01  0.51100000000E-03 0. -1.
         11    1    4    4    0    0  0.10222600728E+00  0.27485330608E-01 -0.22839928051E-01  0.10829369048E+00  0.51100000000E-03 0.  1.
</event>
<event>
 8    1  0.1088088E+005  0.1043930E+01  0.7957747E-01            NaN
         13   -1    0    0    0    0  0.00000000000E+00  0.00000000000E+00  0.74505805969E-08  0.10566000000E+00  0.10566000000E+00 0. -1.
     999900   -1    0    0    0    0 -0.00000000000E+00 -0.00000000000E+00 -0.74505805969E-08  0.93827000000E+00  0.93827000000E+00 0. -1.
     999902    2    1    2    0    0  0.34277609073E-02 -0.20311156964E-01 -0.13381532437E-01  0.10193666523E+01  0.10190706618E+01 0.  0.
     999903    2    3    3    0    0  0.45879732509E-01  0.37043264808E-01 -0.11487810770E+00  0.13066352163E+00  0.19970551638E-01 0.  0.
         14    1    1    2    0    0 -0.34277609073E-02  0.20311156964E-01  0.13381532437E-01  0.24563347744E-01  0.00000000000E+00 0.  1.
     999901    1    3    3    0    0 -0.42451971602E-01 -0.57354421772E-01  0.10149657527E+00  0.88870313062E+00  0.88000000000E+00 0.  1.
        -11    1    4    4    0    0  0.34372934479E-01  0.36999186779E-01 -0.88854091185E-01  0.10220444750E+00  0.51100000000E-03 0. -1.
         11    1    4    4    0    0  0.11506798029E-01  0.44078029513E-04 -0.26024016519E-01  0.28459074134E-01  0.51100000000E-03 0.  1.
</event>
<event>
 8    1  0.1088088E+005  0.1043930E+01  0.7957747E-01            NaN
         13   -1    0    0    0    0  0.00000000000E+00  0.00000000000E+00  0.74505805969E-08  0.10566000000E+00  0.10566000000E+00 0.  1.
     999900   -1    0    0    0    0 -0.00000000000E+00 -0.00000000000E+00 -0.74505805969E-08  0.93827000000E+00  0.93827000000E+00 0. -1.
     999902    2    1    2    0    0  0.13331108758E-01  0.56617931429E-02  0.18127715350E-01  0.10207268014E+01  0.10204630393E+01 0.  0.
     999903    2    3    3    0    0 -0.29263990744E-02  0.10494850085E+00  0.75394054261E-01  0.13314492321E+00  0.31946134608E-01 0.  0.
         14    1    1    2    0    0 -0.13331108758E-01 -0.56617931429E-02 -0.18127715350E-01  0.23203198619E-01  0.00000000000E+00 0. -1.
     999901    1    3    3    0    0  0.16257507833E-01 -0.99286707706E-01 -0.57266338911E-01  0.88758187817E+00  0.88000000000E+00 0.  1.
        -11    1    4    4    0    0  0.13723177293E-01  0.52346180364E-01  0.31327714665E-01  0.62531072443E-01  0.51100000000E-03 0.  1.
         11    1    4    4    0    0 -0.16649576367E-01  0.52602320484E-01  0.44066339597E-01  0.70613850766E-01  0.51100000000E-03 0. -1.
</event>
<event>
 8    1  0.1088088E+005  0.1043930E+01  0.7957747E-01            NaN
         13   -1    0    0    0    0  0.00000000000E+00  0.00000000000E+00  0.74505805969E-08  0.10566000000E+00  0.10566000000E+00 0. -1.
     999900   -1    0    0    0    0 -0.00000000000E+00 -0.00000000000E+00 -0.74505805969E-08  0.93827000000E+00  0.93827000000E+00 0. -1.
     999902    2    1    2    0    0  0.14830467519E-01 -0.17772639173E-01 -0.32270217750E-02  0.10205585829E+01  0.10202909379E+01 0.  0.
     999903    2    3    3    0    0  0.90770174923E-01 -0.11239310236E-01 -0.93891517072E-01  0.13262301410E+00  0.20191585883E-01 0.  0.
         14    1    1    2    0    0 -0.14830467519E-01  0.17772639173E-01  0.32270217750E-02  0.23371417149E-01  0.00000000000E+00 0. -1.
     999901    1    3    3    0    0 -0.75939707404E-01 -0.65333289372E-02  0.90664495297E-01  0.88793556875E+00  0.88000000000E+00 0.  1.
        -11    1    4    4    0    0  0.96532269838E-02 -0.30646166839E-02 -0.20741241180E-01  0.23087591327E-01  0.51100000000E-03 0.  1.
         11    1    4    4    0    0  0.81116947939E-01 -0.81746935520E-02 -0.73150275892E-01  0.10953542277E+00  0.51100000000E-03 0. -1.
</event>
<event>
 8    1  0.1088088E+005  0.1043930E+01  0.7957747E-01            NaN
         13   -1    0    0    0    0  0.00000000000E+00  0.00000000000E+00  0.74505805969E-08  0.10566000000E+00  0.10566000000E+00 0.  1.
     999900   -1    0    0    0    0 -0.00000000000E+00 -0.00000000000E+00 -0.74505805969E-08  0.93827000000E+00  0.93827000000E+00 0. -1.
     999902    2    1    2    0    0 -0.39164091047E-02 -0.12081376323E-02  0.22694461946E-01  0.10208684203E+01  0.10206079047E+01 0.  0.
     999903    2    3    3    0    0  0.97855487308E-01 -0.60396987665E-01 -0.55985094614E-01  0.12954843761E+00  0.20614906065E-01 0.  0.
         14    1    1    2    0    0  0.39164091047E-02  0.12081376323E-02 -0.22694461946E-01  0.23061579734E-01  0.00000000000E+00 0. -1.
     999901    1    3    3    0    0 -0.10177189641E+00  0.59188850032E-01  0.78679556560E-01  0.89131998266E+00  0.88000000000E+00 0.  1.
        -11    1    4    4    0    0  0.37153114066E-02 -0.55707792802E-02 -0.81661755603E-02  0.10572826723E-01  0.51100000000E-03 0.  1.
         11    1    4    4    0    0  0.94140175902E-01 -0.54826208384E-01 -0.47818919054E-01  0.11897561088E+00  0.51100000000E-03 0. -1.
</event>
<event>
 8    1  0.1088088E+005  0.1043930E+01  0.7957747E-01            NaN
         13   -1    0    0    0    0  0.00000000000E+00  0.00000000000E+00  0.74505805969E-08  0.10566000000E+00  0.10566000000E+00 0.  1.
     999900   -1    0    0    0    0 -0.00000000000E+00 -0.00000000000E+00 -0.74505805969E-08  0.93827000000E+00  0.93827000000E+00 0.  1.
     999902    2    1    2    0    0  0.12956655486E-01  0.18977974029E-01 -0.53625406391E-02  0.10203334905E+01  0.10200606043E+01 0.  0.
     999903    2    3    3    0    0  0.12031221538E+00  0.52774861984E-01  0.75615571262E-02  0.13307114022E+00  0.19761983377E-01 0.  0.
         14    1    1    2    0    0 -0.12956655486E-01 -0.18977974029E-01  0.53625406391E-02  0.23596509524E-01  0.00000000000E+00 0. -1.
     999901    1    3    3    0    0 -0.10735555989E+00 -0.33796887955E-01 -0.12924097765E-01  0.88726235025E+00  0.88000000000E+00 0. -1.
        -11    1    4    4    0    0  0.45458348422E-01  0.28117592891E-01 -0.30867501091E-02  0.53542969832E-01  0.51100000000E-03 0. -1.
         11    1    4    4    0    0  0.74853866957E-01  0.24657269093E-01  0.10648307235E-01  0.79528170389E-01  0.51100000000E-03 0.  1.
</event>
<event>
 8    1  0.1088088E+005  0.1043930E+01  0.7957747E-01            NaN
         13   -1    0    0    0    0  0.00000000000E+00  0.00000000000E+00  0.74505805969E-08  0.10566000000E+00  0.10566000000E+00 0.  1.
     999900   -1    0    0    0    0 -0.00000000000E+00 -0.00000000000E+00 -0.74505805969E-08  0.93827000000E+00  0.93827000000E+00 0.  1.
     999902    2    1    2    0    0  0.14245801648E-01 -0.14471436342E-01 -0.11813232088E-01  0.10204370694E+01  0.10201666015E+01 0.  0.
     999903    2    3    3    0    0 -0.26190058853E-01  0.11916164115E+00 -0.36981245695E-01  0.12907502900E+00  0.20182533877E-01 0.  0.
         14    1    1    2    0    0 -0.14245801648E-01  0.14471436342E-01  0.11813232088E-01  0.23492930570E-01  0.00000000000E+00 0.  1.
     999901    1    3    3    0    0  0.40435860502E-01 -0.13363307749E+00  0.25168013607E-01  0.89136204043E+00  0.88000000000E+00 0.  1.
        -11    1    4    4    0    0 -0.29123653436E-01  0.11154476713E+00 -0.36315319705E-01  0.12086970601E+00  0.51100000000E-03 0. -1.
         11    1    4    4    0    0  0.29335945824E-02  0.76168740183E-02 -0.66592598980E-03  0.82053229923E-02  0.51100000000E-03 0.  1.
</event>
<event>
 8    1  0.1088088E+005  0.1043930E+01  0.7957747E-01            NaN
         13   -1    0    0    0    0  0.00000000000E+00  0.00000000000E+00  0.74505805969E-08  0.10566000000E+00  0.10566000000E+00 0.  1.
     999900   -1    0    0    0    0 -0.00000000000E+00 -0.00000000000E+00 -0.74505805969E-08  0.93827000000E+00  0.93827000000E+00 0. -1.
     999902    2    1    2    0    0 -0.25546678741E-02  0.19346677608E-01 -0.13215749428E-01  0.10203614554E+01  0.10200892232E+01 0.  0.
     999903    2    3    3    0    0 -0.75523835872E-01  0.23728784260E-01 -0.10452205481E+00  0.13262244884E+00  0.19923579152E-01 0.  0.
         14    1    1    2    0    0  0.25546678741E-02 -0.19346677608E-01  0.13215749428E-01  0.23568544617E-01  0.00000000000E+00 0.  1.
     999901    1    3    3    0    0  0.72969167997E-01 -0.43821066517E-02  0.91306305386E-01  0.88773900654E+00  0.88000000000E+00 0.  1.
        -11    1    4    4    0    0 -0.36304037779E-01  0.21394481831E-01 -0.49471939001E-01  0.64988005674E-01  0.51100000000E-03 0. -1.
         11    1    4    4    0    0 -0.39219798093E-01  0.23343024285E-02 -0.55050115813E-01  0.67634443165E-01  0.51100000000E-03 0.  1.
</event>
<event>
 8    1  0.1088088E+005  0.1043930E+01  0.7957747E-01            NaN
         13   -1    0    0    0    0  0.00000000000E+00  0.00000000000E+00  0.74505805969E-08  0.10566000000E+00  0.10566000000E+00 0. -1.
     999900   -1    0    0    0    0 -0.00000000000E+00 -0.00000000000E+00 -0.74505805969E-08  0.93827000000E+00  0.93827000000E+00 0. -1.
     999902    2    1    2    0    0  0.14222041498E-01  0.32818202180E-02 -0.22054886453E-01  0.10174827917E+01  0.10171390154E+01 0.  0.
     999903    2    3    3    0    0 -0.31789798519E-01 -0.12063894637E+00 -0.17711663310E-01  0.12759947950E+00  0.20089237928E-01 0.  0.
         14    1    1    2    0    0 -0.14222041498E-01 -0.32818202180E-02  0.22054886453E-01  0.26447208260E-01  0.00000000000E+00 0. -1.
     999901    1    3    3    0    0  0.46011840017E-01  0.12392076659E+00 -0.43432231426E-02  0.88988331224E+00  0.88000000000E+00 0.  1.
        -11    1    4    4    0    0  0.95899395095E-03 -0.27168703316E-01 -0.62169779577E-02  0.27892114391E-01  0.51100000000E-03 0. -1.
         11    1    4    4    0    0 -0.32748792470E-01 -0.93470243054E-01 -0.11494685353E-01  0.99707365110E-01  0.51100000000E-03 0.  1.
</event>
<event>
 8    1  0.1088088E+005  0.1043930E+01  0.7957747E-01            NaN
         13   -1    0    0    0    0  0.00000000000E+00  0.00000000000E+00  0.74505805969E-08  0.10566000000E+00  0.10566000000E+00 0. -1.
     999900   -1    0    0    0    0 -0.00000000000E+00 -0.00000000000E+00 -0.74505805969E-08  0.93827000000E+00  0.93827000000E+00 0.  1.
     999902    2    1    2    0    0 -0.55026176183E-02  0.58227503970E-02  0.46908683361E-02  0.10346462794E+01  0.10346046278E+01 0.  0.
     999903    2    3    3    0    0 -0.57516674772E-01  0.18479040395E-01 -0.12817538897E+00  0.14306392976E+00  0.19715852784E-01 0.  0.
         14    1    1    2    0    0  0.55026176183E-02 -0.58227503970E-02 -0.46908683361E-02  0.92837206219E-02  0.00000000000E+00 0. -1.
     999901    1    3    3    0    0  0.52014057154E-01 -0.12656289998E-01  0.13286625730E+00  0.89158234962E+00  0.88000000000E+00 0. -1.
        -11    1    4    4    0    0 -0.17173638823E-01 -0.17586235975E-02 -0.48609289388E-01  0.51586342797E-01  0.51100000000E-03 0. -1.
         11    1    4    4    0    0 -0.40343035949E-01  0.20237663993E-01 -0.79566099579E-01  0.91477586964E-01  0.51100000000E-03 0.  1.
</event>
<event>
 8    1  0.1088088E+005  0.1043930E+01  0.7957747E-01            NaN
         13   -1    0    0    0    0  0.00000000000E+00  0.00000000000E+00  0.74505805969E-08  0.10566000000E+00  0.10566000000E+00 0.  1.
     999900   -1    0    0    0    0 -0.00000000000E+00 -0.00000000000E+00 -0.74505805969E-08  0.93827000000E+00  0.93827000000E+00 0. -1.
     999902    2    1    2    0    0 -0.15825172608E-01 -0.22438649346E-02  0.16377029349E-01  0.10210459857E+01  0.10207895116E+01 0.  0.
     999903    2    3    3    0    0  0.51674248862E-02 -0.11196068026E-01  0.13157982379E+00  0.13324391606E+00  0.16989317828E-01 0.  0.
         14    1    1    2    0    0  0.15825172608E-01  0.22438649346E-02 -0.16377029349E-01  0.22884014251E-01  0.00000000000E+00 0.  1.
     999901    1    3    3    0    0 -0.20992597494E-01  0.89522030914E-02 -0.11520279444E+00  0.88780206968E+00  0.88000000000E+00 0. -1.
        -11    1    4    4    0    0  0.41004400420E-02 -0.77390748301E-03  0.66031666589E-02  0.78278651148E-02  0.51100000000E-03 0. -1.
         11    1    4    4    0    0  0.10669848443E-02 -0.10422160543E-01  0.12497665713E+00  0.12541605095E+00  0.51100000000E-03 0.  1.
</event>
<event>
 8    1  0.1088088E+005  0.1043930E+01  0.7957747E-01            NaN
         13   -1    0    0    0    0  0.00000000000E+00  0.00000000000E+00  0.74505805969E-08  0.10566000000E+00  0.10566000000E+00 0.  1.
     999900   -1    0    0    0    0 -0.00000000000E+00 -0.00000000000E+00 -0.74505805969E-08  0.93827000000E+00  0.93827000000E+00 0. -1.
     999902    2    1    2    0    0  0.24094866146E-01  0.47504211899E-03  0.27453328219E-02  0.10196745863E+01  0.10193860588E+01 0.  0.
     999903    2    3    3    0    0 -0.10610486042E+00 -0.40553762326E-01 -0.53906360513E-01  0.12734911548E+00  0.20225045484E-01 0.  0.
         14    1    1    2    0    0 -0.24094866146E-01 -0.47504211899E-03 -0.27453328219E-02  0.24255413662E-01  0.00000000000E+00 0. -1.
     999901    1    3    3    0    0  0.13019972657E+00  0.41028804445E-01  0.56651693335E-01  0.89232547086E+00  0.88000000000E+00 0. -1.
        -11    1    4    4    0    0 -0.70678546219E-01 -0.16675085629E-01 -0.32512963054E-01  0.79566759793E-01  0.51100000000E-03 0. -1.
         11    1    4    4    0    0 -0.35426314203E-01 -0.23878676697E-01 -0.21393397459E-01  0.47782355683E-01  0.51100000000E-03 0.  1.
</event>
<event>
 8    1  0.1088088E+005  0.1043930E+01  0.7957747E-01            NaN
         13   -1    0    0    0    0  0.00000000000E+00  0.00000000000E+00  0.74505805969E-08  0.10566000000E+00  0.10566000000E+00 0.  1.
     999900   -1    0    0    0    0 -0.00000000000E+00 -0.00000000000E+00 -0.74505805969E-08  0.93827000000E+00  0.93827000000E+00 0. -1.
     999902    2    1    2    0    0 -0.22845249685E-01  0.84439222716E-02 -0.11856279080E-01  0.10168416887E+01  0.10164808130E+01 0.  0.
     999903    2    3    3    0    0 -0.11871111673E+00  0.42877660544E-01  0.25231952681E-01  0.13018984961E+00  0.19542837450E-01 0.  0.
         14    1    1    2    0    0  0.22845249685E-01 -0.84439222716E-02  0.11856279080E-01  0.27088311320E-01  0.00000000000E+00 0.  1.
     999901    1    3    3    0    0  0.95865867046E-01 -0.34433738272E-01 -0.37088231761E-01  0.88665183907E+00  0.88000000000E+00 0. -1.
        -11    1    4    4    0    0 -0.67576397349E-01  0.28921714103E-01  0.58101991302E-02  0.73736385593E-01  0.51100000000E-03 0.  1.
         11    1    4    4    0    0 -0.51134719382E-01  0.13955946440E-01  0.19421753550E-01  0.56453464015E-01  0.51100000000E-03 0. -1.
</event>
<event>
 8    1  0.1088088E+005  0.1043930E+01  0.7957747E-01            NaN
         13   -1    0    0    0    0  0.00000000000E+00  0.00000000000E+00  0.74505805969E-08  0.10566000000E+00  0.10566000000E+00 0.  1.
     999900   -1    0    0    0    0 -0.00000000000E+00 -0.00000000000E+00 -0.74505805969E-08  0.93827000000E+00  0.93827000000E+00 0.  1.
     999902    2    1    2    0    0  0.20265354376E-01 -0.13499684649E-01 -0.24234660640E-02  0.10194596248E+01  0.10191658979E+01 0.  0.
     999903    2    3    3    0    0  0.77942202273E-01  0.25228670250E-01  0.99932958471E-01  0.13080708198E+00  0.20308220238E-01 0.  0.
         14    1    1    2    0    0 -0.20265354376E-01  0.13499684649E-01  0.24234660640E-02  0.24470375179E-01  0.00000000000E+00 0.  1.
     999901    1    3    3    0    0 -0.57676847897E-01 -0.38728354899E-01 -0.10235642454E+00  0.88865254284E+00  0.88000000000E+00 0.  1.
        -11    1    4    4    0    0  0.58605186232E-01  0.19599485074E-01  0.60274248608E-01  0.86324700026E-01  0.51100000000E-03 0.  1.
         11    1    4    4    0    0  0.19337016042E-01  0.56291851764E-02  0.39658709864E-01  0.44482381953E-01  0.51100000000E-03 0. -1.
</event>
<event>
 8    1  0.1088088E+005  0.1043930E+01  0.7957747E-01            NaN
         13   -1    0    0    0    0  0.00000000000E+00  0.00000000000E+00  0.74505805969E-08  0.10566000000E+00  0.10566000000E+00 0. -1.
     999900   -1    0    0    0    0 -0.00000000000E+00 -0.00000000000E+00 -0.74505805969E-08  0.93827000000E+00  0.93827000000E+00 0. -1.
     999902    2    1    2    0    0  0.71689058723E-02 -0.50471698861E-02 -0.21763696921E-01  0.10204667172E+01  0.10201969395E+01 0.  0.
     999903    2    3    3    0    0  0.11549180360E+00 -0.37022769830E-02  0.56816683480E-01  0.13034844693E+00  0.20261257203E-01 0.  0.
         14    1    1    2    0    0 -0.71689058723E-02  0.50471698861E-02  0.21763696921E-01  0.23463282783E-01  0.00000000000E+00 0. -1.
     999901    1    3    3    0    0 -0.10832289773E+00 -0.13448929031E-02 -0.78580380401E-01  0.89011827028E+00  0.88000000000E+00 0. -1.
        -11    1    4    4    0    0  0.33086375737E-01  0.69579092334E-02  0.11597189344E-01  0.35747401052E-01  0.51100000000E-03 0. -1.
         11    1    4    4    0    0  0.82405427860E-01 -0.10660186216E-01  0.45219494136E-01  0.94601045882E-01  0.51100000000E-03 0.  1.
</event>
<event>
 8    1  0.1088088E+005  0.1043930E+01  0.7957747E-01            NaN
         13   -1    0    0    0    0  0.00000000000E+00  0.00000000000E+00  0.74505805969E-08  0.10566000000E+00  0.10566000000E+00 0.  1.
     999900   -1    0    0    0    0 -0.00000000000E+00 -0.00000000000E+00 -0.74505805969E-08  0.93827000000E+00  0.93827000000E+00 0.  1.
     999902    2    1    2    0    0 -0.10826008589E-01  0.18995911328E-01 -0.94757223734E-02  0.10201006814E+01  0.10198223197E+01 0.  0.
     999903    2    3    3    0    0 -0.40309565264E-01 -0.20629298541E-01  0.11956634672E+00  0.12931939909E+00  0.19415630334E-01 0.  0.
         14    1    1    2    0    0  0.10826008589E-01 -0.18995911328E-01  0.94757223734E-02  0.23829318572E-01  0.00000000000E+00 0.  1.
     999901    1    3    3    0    0  0.29483556676E-01  0.39625209868E-01 -0.12904206910E+00  0.89078128234E+00  0.88000000000E+00 0.  1.
        -11    1    4    4    0    0 -0.11177337672E-01  0.29797336589E-02  0.33254658585E-01  0.35212854595E-01  0.51100000000E-03 0.  1.
         11    1    4    4    0    0 -0.29132227592E-01 -0.23609032199E-01  0.86311688139E-01  0.94106544492E-01  0.51100000000E-03 0. -1.
</event>
<event>
 8    1  0.1088088E+005  0.1043930E+01  0.7957747E-01            NaN
         13   -1    0    0    0    0  0.00000000000E+00  0.00000000000E+00  0.74505805969E-08  0.10566000000E+00  0.10566000000E+00 0. -1.
     999900   -1    0    0    0    0 -0.00000000000E+00 -0.00000000000E+00 -0.74505805969E-08  0.93827000000E+00  0.93827000000E+00 0.  1.
     999902    2    1    2    0    0 -0.19192793388E-01  0.99772028021E-02 -0.13199604659E-01  0.10185895687E+01  0.10182743108E+01 0.  0.
     999903    2    3    3    0    0  0.31104781727E-03  0.11381073342E+00 -0.62138950726E-01  0.13092022630E+00  0.18052054276E-01 0.  0.
         14    1    1    2    0    0  0.19192793388E-01 -0.99772028021E-02  0.13199604659E-01  0.25340431270E-01  0.00000000000E+00 0. -1.
     999901    1    3    3    0    0 -0.19503841206E-01 -0.10383353062E+00  0.48939346066E-01  0.88766934243E+00  0.88000000000E+00 0. -1.
        -11    1    4    4    0    0  0.32416513588E-02  0.45019433611E-01 -0.15373603786E-01  0.47685076497E-01  0.51100000000E-03 0.  1.
         11    1    4    4    0    0 -0.29306035415E-02  0.68791299811E-01 -0.46765346940E-01  0.83235149800E-01  0.51100000000E-03 0. -1.
</event>
<event>
 8    1  0.1088088E+005  0.1043930E+01  0.7957747E-01            NaN
         13   -1    0    0    0    0  0.00000000000E+00  0.00000000000E+00  0.74505805969E-08  0.10566000000E+00  0.10566000000E+00 0.  1.
     999900   -1    0    0    0    0 -0.00000000000E+00 -0.00000000000E+00 -0.74505805969E-08  0.93827000000E+00  0.93827000000E+00 0.  1.
     999902    2    1    2    0    0 -0.29313214666E-02  0.11995457877E-01 -0.10358893776E-01  0.10278119872E+01  0.10276855992E+01 0.  0.
     999903    2    3    3    0    0 -0.10894458027E+00  0.36474052636E-01  0.72217867021E-01  0.13727454610E+00  0.20726857048E-01 0.  0.
         14    1    1    2    0    0  0.29313214666E-02 -0.11995457877E-01  0.10358893776E-01  0.16118012765E-01  0.00000000000E+00 0.  1.
     999901    1    3    3    0    0  0.10601325881E+00 -0.24478594759E-01 -0.82576760797E-01  0.89053744114E+00  0.88000000000E+00 0.  1.
        -11    1    4    4    0    0 -0.52165610083E-01  0.10955232198E-01  0.23645110043E-01  0.58314838058E-01  0.51100000000E-03 0. -1.
         11    1    4    4    0    0 -0.56778970189E-01  0.25518820438E-01  0.48572756978E-01  0.78959708039E-01  0.51100000000E-03 0.  1.
</event>
<event>
 8    1  0.1088088E+005  0.1043930E+01  0.7957747E-01            NaN
         13   -1    0    0    0    0  0.00000000000E+00  0.00000000000E+00  0.74505805969E-08  0.10566000000E+00  0.10566000000E+00 0.  1.
     999900   -1    0    0    0    0 -0.00000000000E+00 -0.00000000000E+00 -0.74505805969E-08  0.93827000000E+00  0.93827000000E+00 0. -1.
     999902    2    1    2    0    0  0.99066397080E-02  0.36097507953E-01  0.27466262758E-02  0.10063971404E+01  0.10056970164E+01 0.  0.
     999903    2    3    3    0    0  0.98959751633E-01 -0.12019108880E-01  0.56837435403E-01  0.11894489880E+00  0.31303409817E-01 0.  0.
         14    1    1    2    0    0 -0.99066397080E-02 -0.36097507953E-01 -0.27466262758E-02  0.37532859559E-01  0.00000000000E+00 0. -1.
     999901    1    3    3    0    0 -0.89053111925E-01  0.48116616834E-01 -0.54090809127E-01  0.88745224164E+00  0.88000000000E+00 0. -1.
        -11    1    4    4    0    0  0.35736185896E-01  0.46645358102E-02  0.69717621148E-02  0.36711026473E-01  0.51100000000E-03 0.  1.
         11    1    4    4    0    0  0.63223565738E-01 -0.16683644691E-01  0.49865673288E-01  0.82233872329E-01  0.51100000000E-03 0. -1.
</event>
<event>
 8    1  0.1088088E+005  0.1043930E+01  0.7957747E-01            NaN
         13   -1    0    0    0    0  0.00000000000E+00  0.00000000000E+00  0.74505805969E-08  0.10566000000E+00  0.10566000000E+00 0. -1.
     999900   -1    0    0    0    0 -0.00000000000E+00 -0.00000000000E+00 -0.74505805969E-08  0.93827000000E+00  0.93827000000E+00 0.  1.
     999902    2    1    2    0    0  0.12455595966E-01 -0.10679649867E-01  0.16990554423E-01  0.10203106069E+01  0.10200371850E+01 0.  0.
     999903    2    3    3    0    0  0.65562056035E-01 -0.11217306947E+00 -0.15062548352E-01  0.13230801019E+00  0.19933602025E-01 0.  0.
         14    1    1    2    0    0 -0.12455595966E-01  0.10679649867E-01 -0.16990554423E-01  0.23619393128E-01  0.00000000000E+00 0.  1.
     999901    1    3    3    0    0 -0.53106460069E-01  0.10149341961E+00  0.32053102774E-01  0.88800259669E+00  0.88000000000E+00 0. -1.
        -11    1    4    4    0    0  0.25735253667E-01 -0.28915943447E-01  0.47143766982E-03  0.38715868080E-01  0.51100000000E-03 0. -1.
         11    1    4    4    0    0  0.39826802368E-01 -0.83257126027E-01 -0.15533986022E-01  0.93592142105E-01  0.51100000000E-03 0.  1.
</event>
<event>
 8    1  0.1088088E+005  0.1043930E+01  0.7957747E-01            NaN
         13   -1    0    0    0    0  0.00000000000E+00  0.00000000000E+00  0.74505805969E-08  0.10566000000E+00  0.10566000000E+00 0. -1.
     999900   -1    0    0    0    0 -0.00000000000E+00 -0.00000000000E+00 -0.74505805969E-08  0.93827000000E+00  0.93827000000E+00 0. -1.
     999902    2    1    2    0    0 -0.65203876366E-02  0.20086636327E-01 -0.92366143861E-02  0.10208799792E+01  0.10206197276E+01 0.  0.
     999903    2    3    3    0    0 -0.51991239222E-01 -0.96528606628E-01 -0.67363947888E-01  0.13012440097E+00  0.19328667820E-01 0.  0.
         14    1    1    2    0    0  0.65203876366E-02 -0.20086636327E-01  0.92366143861E-02  0.23050020807E-01  0.00000000000E+00 0. -1.
     999901    1    3    3    0    0  0.45470851586E-01  0.11661524296E+00  0.58127333501E-01  0.89075557822E+00  0.88000000000E+00 0. -1.
        -11    1    4    4    0    0 -0.31311312125E-01 -0.69566938868E-01 -0.38087185676E-01  0.85269291566E-01  0.51100000000E-03 0. -1.
         11    1    4    4    0    0 -0.20679927098E-01 -0.26961667760E-01 -0.29276762212E-01  0.44855109405E-01  0.51100000000E-03 0.  1.
</event>
<event>
 8    1  0.1088088E+005  0.1043930E+01  0.7957747E-01            NaN
         13   -1    0    0    0    0  0.00000000000E+00  0.00000000000E+00  0.74505805969E-08  0.10566000000E+00  0.10566000000E+00 0.  1.
     999900   -1    0    0    0    0 -0.00000000000E+00 -0.00000000000E+00 -0.74505805969E-08  0.93827000000E+00  0.93827000000E+00 0. -1.
     999902    2    1    2    0    0 -0.74573174823E-02  0.21599543767E-01  0.55521343087E-02  0.10204145142E+01  0.10201435207E+01 0.  0.
     999903    2    3    3    0    0  0.86923750900E-01 -0.90175764410E-01 -0.16920251316E-01  0.12805443350E+00  0.20596991941E-01 0.  0.
         14    1    1    2    0    0  0.74573174823E-02 -0.21599543767E-01 -0.55521343087E-02  0.23515485757E-01  0.00000000000E+00 0. -1.
     999901    1    3    3    0    0 -0.94381068382E-01  0.11177530818E+00  0.22472385625E-01  0.89236008074E+00  0.88000000000E+00 0. -1.
        -11    1    4    4    0    0  0.26969804448E-01 -0.36664009499E-01  0.17477796322E-02  0.45551463194E-01  0.51100000000E-03 0.  1.
         11    1    4    4    0    0  0.59953946452E-01 -0.53511754912E-01 -0.18668030948E-01  0.82502970306E-01  0.51100000000E-03 0. -1.
</event>
<event>
 8    1  0.1088088E+005  0.1043930E+01  0.7957747E-01            NaN
         13   -1    0    0    0    0  0.00000000000E+00  0.00000000000E+00  0.74505805969E-08  0.10566000000E+00  0.10566000000E+00 0. -1.
     999900   -1    0    0    0    0 -0.00000000000E+00 -0.00000000000E+00 -0.74505805969E-08  0.93827000000E+00  0.93827000000E+00 0.  1.
     999902    2    1    2    0    0  0.17300091633E-01  0.11183948545E-01  0.11009165679E-01  0.10205724401E+01  0.10203051161E+01 0.  0.
     999903    2    3    3    0    0  0.92825579247E-01  0.56759436021E-01  0.75428790336E-01  0.13381931077E+00  0.19490607558E-01 0.  0.
         14    1    1    2    0    0 -0.17300091633E-01 -0.11183948545E-01 -0.11009165679E-01  0.23357559900E-01  0.00000000000E+00 0.  1.
     999901    1    3    3    0    0 -0.75525487614E-01 -0.45575487476E-01 -0.64419624657E-01  0.88675312933E+00  0.88000000000E+00 0.  1.
        -11    1    4    4    0    0  0.66598372188E-01  0.32556034779E-01  0.43637878320E-01  0.86021881658E-01  0.51100000000E-03 0. -1.
         11    1    4    4    0    0  0.26227207059E-01  0.24203401242E-01  0.31790912016E-01  0.47797429111E-01  0.51100000000E-03 0.  1.
</event>
<event>
 8    1  0.1088088E+005  0.1043930E+01  0.7957747E-01            NaN
         13   -1    0    0    0    0  0.00000000000E+00  0.00000000000E+00  0.74505805969E-08  0.10566000000E+00  0.10566000000E+00 0.  1.
     999900   -1    0    0    0    0 -0.00000000000E+00 -0.00000000000E+00 -0.74505805969E-08  0.93827000000E+00  0.93827000000E+00 0. -1.
     999902    2    1    2    0    0  0.80528073680E-02  0.10227687997E-01 -0.18747171773E-01  0.10211065525E+01  0.10208514494E+01 0.  0.
     999903    2    3    3    0    0 -0.82824533703E-01 -0.79474636206E-01 -0.60547800119E-01  0.13090854605E+00  0.17172365744E-01 0.  0.
         14    1    1    2    0    0 -0.80528073680E-02 -0.10227687997E-01  0.18747171773E-01  0.22823447543E-01  0.00000000000E+00 0. -1.
     999901    1    3    3    0    0  0.90877341071E-01  0.89702324203E-01  0.41800628346E-01  0.89019800641E+00  0.88000000000E+00 0. -1.
        -11    1    4    4    0    0 -0.17029150259E-01 -0.11909021928E-01 -0.47286076477E-02  0.21317542380E-01  0.51100000000E-03 0. -1.
         11    1    4    4    0    0 -0.65795383444E-01 -0.67565614278E-01 -0.55819192472E-01  0.10959100367E+00  0.51100000000E-03 0.  1.
</event>
<event>
 8    1  0.1088088E+005  0.1043930E+01  0.7957747E-01            NaN
         13   -1    0    0    0    0  0.00000000000E+00  0.00000000000E+00  0.74505805969E-08  0.10566000000E+00  0.10566000000E+00 0. -1.
     999900   -1    0    0    0    0 -0.00000000000E+00 -0.00000000000E+00 -0.74505805969E-08  0.93827000000E+00  0.93827000000E+00 0. -1.
     999902    2    1    2    0    0  0.95409992890E-02  0.13686377096E-01  0.13046797840E-01  0.10227506110E+01  0.10225312933E+01 0.  0.
     999903    2    3    3    0    0 -0.10903019271E+00  0.72605133197E-01 -0.83034888826E-02  0.13258973668E+00  0.18761717848E-01 0.  0.
         14    1    1    2    0    0 -0.95409992890E-02 -0.13686377096E-01 -0.13046797840E-01  0.21179389022E-01  0.00000000000E+00 0.  1.
     999901    1    3    3    0    0  0.11857119200E+00 -0.58918756101E-01  0.21350286723E-01  0.89016087430E+00  0.88000000000E+00 0. -1.
        -11    1    4    4    0    0 -0.32000575399E-01  0.11588739101E-01 -0.31978633781E-02  0.34188055678E-01  0.51100000000E-03 0. -1.
         11    1    4    4    0    0 -0.77029617307E-01  0.61016394095E-01 -0.51056255045E-02  0.98401681000E-01  0.51100000000E-03 0.  1.
</event>
<event>
 8    1  0.1088088E+005  0.1043930E+01  0.7957747E-01            NaN
         13   -1    0    0    0    0  0.00000000000E+00  0.00000000000E+00  0.74505805969E-08  0.10566000000E+00  0.10566000000E+00 0. -1.
     999900   -1    0    0    0    0 -0.00000000000E+00 -0.00000000000E+00 -0.74505805969E-08  0.93827000000E+00  0.93827000000E+00 0. -1.
     999902    2    1    2    0    0  0.95390951429E-02 -0.14149892980E-01 -0.16769057147E-01  0.10200048023E+01  0.10197241694E+01 0.  0.
     999903    2    3    3    0    0  0.75886409852E-01  0.29048519716E-01  0.98048341625E-01  0.12902157906E+00  0.20749141434E-01 0.  0.
         14    1    1    2    0    0 -0.95390951429E-02  0.14149892980E-01  0.16769057147E-01  0.23925197702E-01  0.00000000000E+00 0. -1.
     999901    1    3    3    0    0 -0.66347314709E-01 -0.43198412695E-01 -0.11481739877E+00  0.89098322324E+00  0.88000000000E+00 0. -1.
        -11    1    4    4    0    0  0.24859090823E-01 -0.96153571564E-04  0.33655168777E-01  0.41843938013E-01  0.51100000000E-03 0.  1.
         11    1    4    4    0    0  0.51027319029E-01  0.29144673287E-01  0.64393172847E-01  0.87177641048E-01  0.51100000000E-03 0. -1.
</event>
<event>
 8    1  0.1088088E+005  0.1043930E+01  0.7957747E-01            NaN
         13   -1    0    0    0    0  0.00000000000E+00  0.00000000000E+00  0.74505805969E-08  0.10566000000E+00  0.10566000000E+00 0.  1.
     999900   -1    0    0    0    0 -0.00000000000E+00 -0.00000000000E+00 -0.74505805969E-08  0.93827000000E+00  0.93827000000E+00 0.  1.
     999902    2    1    2    0    0 -0.20947293838E-01  0.62509320331E-02  0.93564500761E-02  0.10201517236E+01  0.10198745672E+01 0.  0.
     999903    2    3    3    0    0  0.89699079649E-01  0.89070528635E-01  0.17775491472E-01  0.12932481235E+00  0.20723296844E-01 0.  0.
         14    1    1    2    0    0  0.20947293838E-01 -0.62509320331E-02 -0.93564500761E-02  0.23778276398E-01  0.00000000000E+00 0. -1.
     999901    1    3    3    0    0 -0.11064637349E+00 -0.82819596602E-01 -0.84190413959E-02  0.89082691125E+00  0.88000000000E+00 0. -1.
        -11    1    4    4    0    0  0.28274988832E-01  0.29663592254E-01  0.15572553437E-01  0.43842550569E-01  0.51100000000E-03 0. -1.
         11    1    4    4    0    0  0.61424090816E-01  0.59406936381E-01  0.22029380354E-02  0.85482261785E-01  0.51100000000E-03 0.  1.
</event>
<event>
 8    1  0.1088088E+005  0.1043930E+01  0.7957747E-01            NaN
         13   -1    0    0    0    0  0.00000000000E+00  0.00000000000E+00  0.74505805969E-08  0.10566000000E+00  0.10566000000E+00 0.  1.
     999900   -1    0    0    0    0 -0.00000000000E+00 -0.00000000000E+00 -0.74505805969E-08  0.93827000000E+00  0.93827000000E+00 0. -1.
     999902    2    1    2    0    0 -0.32822278474E-02 -0.11955796742E-01  0.20752355019E-01  0.10197561643E+01  0.10194695975E+01 0.  0.
     999903    2    3    3    0    0  0.10078441092E+00  0.53535094063E-01  0.59918931827E-01  0.13034459316E+00  0.19388934811E-01 0.  0.
         14    1    1    2    0    0  0.32822278474E-02  0.11955796742E-01 -0.20752355019E-01  0.24173835736E-01  0.00000000000E+00 0. -1.
     999901    1    3    3    0    0 -0.10406663877E+00 -0.65490890805E-01 -0.39166576808E-01  0.88941157111E+00  0.88000000000E+00 0.  1.
        -11    1    4    4    0    0  0.77865229506E-01  0.36651274752E-01  0.52904211528E-01  0.10102191161E+00  0.51100000000E-03 0.  1.
         11    1    4    4    0    0  0.22919181412E-01  0.16883819311E-01  0.70147202990E-02  0.29322681545E-01  0.51100000000E-03 0. -1.
</event>
<event>
 8    1  0.1088088E+005  0.1043930E+01  0.7957747E-01            NaN
         13   -1    0    0    0    0  0.00000000000E+00  0.00000000000E+00  0.74505805969E-08  0.10566000000E+00  0.10566000000E+00 0.  1.
     999900   -1    0    0    0    0 -0.00000000000E+00 -0.00000000000E+00 -0.74505805969E-08  0.93827000000E+00  0.93827000000E+00 0. -1.
     999902    2    1    2    0    0 -0.20396529422E-02 -0.19715876660E-01 -0.13577622237E-01  0.10199044344E+01  0.10196214138E+01 0.  0.
     999903    2    3    3    0    0  0.76954645610E-01 -0.49203727743E-01 -0.93451887415E-01  0.13227301833E+00  0.20490773816E-01 0.  0.
         14    1    1    2    0    0  0.20396529422E-02  0.19715876660E-01  0.13577622237E-01  0.24025565596E-01  0.00000000000E+00 0. -1.
     999901    1    3    3    0    0 -0.78994298552E-01  0.29487851082E-01  0.79874265178E-01  0.88763141607E+00  0.88000000000E+00 0.  1.
        -11    1    4    4    0    0  0.38867142471E-01 -0.18347308511E-01 -0.55938732280E-01  0.70545597904E-01  0.51100000000E-03 0. -1.
         11    1    4    4    0    0  0.38087503138E-01 -0.30856419232E-01 -0.37513155135E-01  0.61727420425E-01  0.51100000000E-03 0.  1.
</event>
<event>
 8    1  0.1088088E+005  0.1043930E+01  0.7957747E-01            NaN
         13   -1    0    0    0    0  0.00000000000E+00  0.00000000000E+00  0.74505805969E-08  0.10566000000E+00  0.10566000000E+00 0. -1.
     999900   -1    0    0    0    0 -0.00000000000E+00 -0.00000000000E+00 -0.74505805969E-08  0.93827000000E+00  0.93827000000E+00 0.  1.
     999902    2    1    2    0    0  0.12334928208E-01  0.17484509411E-01  0.11152079775E-01  0.10198006111E+01  0.10195151098E+01 0.  0.
     999903    2    3    3    0    0 -0.61807127176E-01  0.91085290713E-01 -0.67020634387E-01  0.13017985339E+00  0.18395043936E-01 0.  0.
         14    1    1    2    0    0 -0.12334928208E-01 -0.17484509411E-01 -0.11152079775E-01  0.24129388856E-01  0.00000000000E+00 0. -1.
     999901    1    3    3    0    0  0.74142055383E-01 -0.73600781302E-01  0.78172714162E-01  0.88962075775E+00  0.88000000000E+00 0. -1.
        -11    1    4    4    0    0 -0.36015163489E-01  0.54656161370E-01 -0.50149446701E-01  0.82459784758E-01  0.51100000000E-03 0.  1.
         11    1    4    4    0    0 -0.25791963686E-01  0.36429129343E-01 -0.16871187686E-01  0.47720068634E-01  0.51100000000E-03 0. -1.
</event>
<event>
 8    1  0.1088088E+005  0.1043930E+01  0.7957747E-01            NaN
         13   -1    0    0    0    0  0.00000000000E+00  0.00000000000E+00  0.74505805969E-08  0.10566000000E+00  0.10566000000E+00 0. -1.
     999900   -1    0    0    0    0 -0.00000000000E+00 -0.00000000000E+00 -0.74505805969E-08  0.93827000000E+00  0.93827000000E+00 0.  1.
     999902    2    1    2    0    0  0.11533497929E-01  0.16211306762E-01 -0.56619821755E-02  0.10232445925E+01  0.10230354881E+01 0.  0.
     999903    2    3    3    0    0 -0.12213219283E-01 -0.34715807694E-02  0.13011188188E+00  0.13229798085E+00  0.20308602477E-01 0.  0.
         14    1    1    2    0    0 -0.11533497929E-01 -0.16211306762E-01  0.56619821755E-02  0.20685407503E-01  0.00000000000E+00 0.  1.
     999901    1    3    3    0    0  0.23746717212E-01  0.19682887531E-01 -0.13577386405E+00  0.89094661164E+00  0.88000000000E+00 0.  1.
        -11    1    4    4    0    0 -0.75938673397E-02 -0.77922700282E-02  0.28855388432E-01  0.30842841243E-01  0.51100000000E-03 0.  1.
         11    1    4    4    0    0 -0.46193519434E-02  0.43206892588E-02  0.10125649344E+00  0.10145513961E+00  0.51100000000E-03 0. -1.
</event>
<event>
 8    1  0.1088088E+005  0.1043930E+01  0.7957747E-01            NaN
         13   -1    0    0    0    0  0.00000000000E+00  0.00000000000E+00  0.74505805969E-08  0.10566000000E+00  0.10566000000E+00 0.  1.
     999900   -1    0    0    0    0 -0.00000000000E+00 -0.00000000000E+00 -0.74505805969E-08  0.93827000000E+00  0.93827000000E+00 0. -1.
     999902    2    1    2    0    0 -0.16981560017E-01  0.12941218222E-01  0.13137770046E-01  0.10188611047E+01  0.10185526502E+01 0.  0.
     999903    2    3    3    0    0  0.63637094405E-01  0.71048873179E-01  0.86344465175E-01  0.13024696616E+00  0.20280122367E-01 0.  0.
         14    1    1    2    0    0  0.16981560017E-01 -0.12941218222E-01 -0.13137770046E-01  0.25068895298E-01  0.00000000000E+00 0.  1.
     999901    1    3    3    0    0 -0.80618654423E-01 -0.58107654957E-01 -0.73206695129E-01  0.88861413854E+00  0.88000000000E+00 0. -1.
        -11    1    4    4    0    0  0.23948414310E-01  0.30192776193E-01  0.48104803355E-01  0.61639788359E-01  0.51100000000E-03 0.  1.
         11    1    4    4    0    0  0.39688680095E-01  0.40856096986E-01  0.38239661820E-01  0.68607177801E-01  0.51100000000E-03 0. -1.
</event>
<event>
 8    1  0.1088088E+005  0.1043930E+01  0.7957747E-01            NaN
         13   -1    0    0    0    0  0.00000000000E+00  0.00000000000E+00  0.74505805969E-08  0.10566000000E+00  0.10566000000E+00 0. -1.
     999900   -1    0    0    0    0 -0.00000000000E+00 -0.00000000000E+00 -0.74505805969E-08  0.93827000000E+00  0.93827000000E+00 0. -1.
     999902    2    1    2    0    0 -0.18510941877E-01 -0.82614529248E-02  0.12172305185E-01  0.10202853053E+01  0.10200112904E+01 0.  0.
     999903    2    3    3    0    0 -0.14232316248E-01  0.12736071956E+00 -0.30213361508E-02  0.12975595316E+00  0.20103909965E-01 0.  0.
         14    1    1    2    0    0  0.18510941877E-01  0.82614529248E-02 -0.12172305185E-01  0.23644694693E-01  0.00000000000E+00 0.  1.
     999901    1    3    3    0    0 -0.42786256293E-02 -0.13562217248E+00  0.15193641336E-01  0.89052935215E+00  0.88000000000E+00 0.  1.
        -11    1    4    4    0    0 -0.19272312704E-01  0.93882319071E-01 -0.12347618991E-02  0.95849348610E-01  0.51100000000E-03 0.  1.
         11    1    4    4    0    0  0.50399964558E-02  0.33478400484E-01 -0.17865742517E-02  0.33906604546E-01  0.51100000000E-03 0. -1.
</event>
<event>
 8    1  0.1088088E+005  0.1043930E+01  0.7957747E-01            NaN
         13   -1    0    0    0    0  0.00000000000E+00  0.00000000000E+00  0.74505805969E-08  0.10566000000E+00  0.10566000000E+00 0.  1.
     999900   -1    0    0    0    0 -0.00000000000E+00 -0.00000000000E+00 -0.74505805969E-08  0.93827000000E+00  0.93827000000E+00 0.  1.
     999902    2    1    2    0    0 -0.23922805568E-02 -0.22314250478E-01 -0.64979494165E-02  0.10205660935E+01  0.10202986225E+01 0.  0.
     999903    2    3    3    0    0  0.89174777617E-01  0.40563929079E-01  0.81595628128E-01  0.12921954472E+00  0.21030237812E-01 0.  0.
         14    1    1    2    0    0  0.23922805568E-02  0.22314250478E-01  0.64979494165E-02  0.23363906508E-01  0.00000000000E+00 0.  1.
     999901    1    3    3    0    0 -0.91567058173E-01 -0.62878179557E-01 -0.88093577544E-01  0.89134654877E+00  0.88000000000E+00 0.  1.
        -11    1    4    4    0    0  0.83311174985E-01  0.33363857496E-01  0.79005252021E-01  0.11956583890E+00  0.51100000000E-03 0.  1.
         11    1    4    4    0    0  0.58636026317E-02  0.72000715826E-02  0.25903761063E-02  0.96537058164E-02  0.51100000000E-03 0. -1.
</event>
<event>
 8    1  0.1088088E+005  0.1043930E+01  0.7957747E-01            NaN
         13   -1    0    0    0    0  0.00000000000E+00  0.00000000000E+00  0.74505805969E-08  0.10566000000E+00  0.10566000000E+00 0. -1.
     999900   -1    0    0    0    0 -0.00000000000E+00 -0.00000000000E+00 -0.74505805969E-08  0.93827000000E+00  0.93827000000E+00 0. -1.
     999902    2    1    2    0    0 -0.18215713853E-01 -0.14181966729E-01  0.59888887390E-02  0.10200803208E+01  0.10198014775E+01 0.  0.
     999903    2    3    3    0    0 -0.62189432357E-01  0.11223648530E+00 -0.32045295214E-02  0.12991189183E+00  0.20056831752E-01 0.  0.
         14    1    1    2    0    0  0.18215713853E-01  0.14181966729E-01 -0.59888887390E-02  0.23849679239E-01  0.00000000000E+00 0.  1.
     999901    1    3    3    0    0  0.43973718504E-01 -0.12641845203E+00  0.91934182604E-02  0.89016842893E+00  0.88000000000E+00 0.  1.
        -11    1    4    4    0    0 -0.51734929401E-01  0.82328851183E-01  0.43657666668E-02  0.97333774698E-01  0.51100000000E-03 0. -1.
         11    1    4    4    0    0 -0.10454502956E-01  0.29907634113E-01 -0.75702961882E-02  0.32578117129E-01  0.51100000000E-03 0.  1.
</event>
<event>
 8    1  0.1088088E+005  0.1043930E+01  0.7957747E-01            NaN
         13   -1    0    0    0    0  0.00000000000E+00  0.00000000000E+00  0.74505805969E-08  0.10566000000E+00  0.10566000000E+00 0. -1.
     999900   -1    0    0    0    0 -0.00000000000E+00 -0.00000000000E+00 -0.74505805969E-08  0.93827000000E+00  0.93827000000E+00 0. -1.
     999902    2    1    2    0    0  0.24033390403E-01 -0.11844971143E-01 -0.15070121815E-01  0.10131888913E+01  0.10127224267E+01 0.  0.
     999903    2    3    3    0    0 -0.10398375605E+00 -0.51429081192E-01  0.30942659860E-01  0.12185704080E+00  0.20835505245E-01 0.  0.
         14    1    1    2    0    0 -0.24033390403E-01  0.11844971143E-01  0.15070121815E-01  0.30741108749E-01  0.00000000000E+00 0.  1.
     999901    1    3    3    0    0  0.12801714645E+00  0.39584110049E-01 -0.46012781675E-01  0.89133185045E+00  0.88000000000E+00 0. -1.
        -11    1    4    4    0    0 -0.53232360192E-01 -0.28334515474E-01  0.54710274143E-02  0.60553465638E-01  0.51100000000E-03 0.  1.
         11    1    4    4    0    0 -0.50751395855E-01 -0.23094565718E-01  0.25471632446E-01  0.61303575160E-01  0.51100000000E-03 0. -1.
</event>
<event>
 8    1  0.1088088E+005  0.1043930E+01  0.7957747E-01            NaN
         13   -1    0    0    0    0  0.00000000000E+00  0.00000000000E+00  0.74505805969E-08  0.10566000000E+00  0.10566000000E+00 0.  1.
     999900   -1    0    0    0    0 -0.00000000000E+00 -0.00000000000E+00 -0.74505805969E-08  0.93827000000E+00  0.93827000000E+00 0. -1.
     999902    2    1    2    0    0 -0.16948254948E-01 -0.15173625684E-01 -0.15917204077E-02  0.10211261443E+01  0.10208714839E+01 0.  0.
     999903    2    3    3    0    0  0.11496667087E+00  0.10365935397E-01 -0.54217397224E-01  0.12937321958E+00  0.21751224240E-01 0.  0.
         14    1    1    2    0    0  0.16948254948E-01  0.15173625684E-01  0.15917204077E-02  0.22803855727E-01  0.00000000000E+00 0. -1.
     999901    1    3    3    0    0 -0.13191492582E+00 -0.25539561080E-01  0.52625676816E-01  0.89175292469E+00  0.88000000000E+00 0.  1.
        -11    1    4    4    0    0  0.42193793279E-01  0.13733031723E-01 -0.24530974198E-01  0.50704459051E-01  0.51100000000E-03 0.  1.
         11    1    4    4    0    0  0.72772877590E-01 -0.33670963258E-02 -0.29686423026E-01  0.78668760531E-01  0.51100000000E-03 0. -1.
</event>
<event>
 8    1  0.1088088E+005  0.1043930E+01  0.7957747E-01            NaN
         13   -1    0    0    0    0  0.00000000000E+00  0.00000000000E+00  0.74505805969E-08  0.10566000000E+00  0.10566000000E+00 0. -1.
     999900   -1    0    0    0    0 -0.00000000000E+00 -0.00000000000E+00 -0.74505805969E-08  0.93827000000E+00  0.93827000000E+00 0. -1.
     999902    2    1    2    0    0  0.11354031135E-02  0.22927509258E-01 -0.61578650041E-02  0.10201628142E+01  0.10198859193E+01 0.  0.
     999903    2    3    3    0    0 -0.10740610934E+00  0.72940493615E-01  0.61224413616E-02  0.13199989868E+00  0.23023923002E-01 0.  0.
         14    1    1    2    0    0 -0.11354031135E-02 -0.22927509258E-01  0.61578650041E-02  0.23767185833E-01  0.00000000000E+00 0. -1.
     999901    1    3    3    0    0  0.10854151245E+00 -0.50012984357E-01 -0.12280306366E-01  0.88816291549E+00  0.88000000000E+00 0. -1.
        -11    1    4    4    0    0 -0.27796444310E-01  0.31818223504E-01  0.18305470514E-02  0.42292477898E-01  0.51100000000E-03 0. -1.
         11    1    4    4    0    0 -0.79609665028E-01  0.41122270111E-01  0.42918943102E-02  0.89707420778E-01  0.51100000000E-03 0.  1.
</event>
<event>
 8    1  0.1088088E+005  0.1043930E+01  0.7957747E-01            NaN
         13   -1    0    0    0    0  0.00000000000E+00  0.00000000000E+00  0.74505805969E-08  0.10566000000E+00  0.10566000000E+00 0.  1.
     999900   -1    0    0    0    0 -0.00000000000E+00 -0.00000000000E+00 -0.74505805969E-08  0.93827000000E+00  0.93827000000E+00 0. -1.
     999902    2    1    2    0    0  0.62558848210E-02 -0.18033589266E-01 -0.14554240797E-01  0.10199264094E+01  0.10196439125E+01 0.  0.
     999903    2    3    3    0    0 -0.47208945850E-01  0.10078606436E+00 -0.61995983495E-01  0.12906877927E+00  0.20705856047E-01 0.  0.
         14    1    1    2    0    0 -0.62558848210E-02  0.18033589266E-01  0.14554240797E-01  0.24003590605E-01  0.00000000000E+00 0. -1.
     999901    1    3    3    0    0  0.53464830671E-01 -0.11881965363E+00  0.47441742698E-01  0.89085763013E+00  0.88000000000E+00 0.  1.
        -11    1    4    4    0    0 -0.27501962767E-01  0.63584459525E-01 -0.27121713682E-01  0.74398857002E-01  0.51100000000E-03 0.  1.
         11    1    4    4    0    0 -0.19706983083E-01  0.37201604835E-01 -0.34874269813E-01  0.54669922266E-01  0.51100000000E-03 0. -1.
</event>
<event>
 8    1  0.1088088E+005  0.1043930E+01  0.7957747E-01            NaN
         13   -1    0    0    0    0  0.00000000000E+00  0.00000000000E+00  0.74505805969E-08  0.10566000000E+00  0.10566000000E+00 0. -1.
     999900   -1    0    0    0    0 -0.00000000000E+00 -0.00000000000E+00 -0.74505805969E-08  0.93827000000E+00  0.93827000000E+00 0. -1.
     999902    2    1    2    0    0 -0.91679572450E-02  0.64884166562E-02 -0.17085467884E-01  0.10234833816E+01  0.10232791253E+01 0.  0.
     999903    2    3    3    0    0 -0.81291527917E-01  0.55022212100E-01  0.87682582515E-01  0.13301514347E+00  0.19210330062E-01 0.  0.
         14    1    1    2    0    0  0.91679572450E-02 -0.64884166562E-02  0.17085467884E-01  0.20446618390E-01  0.00000000000E+00 0. -1.
     999901    1    3    3    0    0  0.72123570672E-01 -0.48533795444E-01 -0.10476805040E+00  0.89046823814E+00  0.88000000000E+00 0. -1.
        -11    1    4    4    0    0 -0.56763840924E-01  0.41146269014E-01  0.73077395416E-01  0.10127050870E+00  0.51100000000E-03 0.  1.
         11    1    4    4    0    0 -0.24527686994E-01  0.13875943087E-01  0.14605187099E-01  0.31744634775E-01  0.51100000000E-03 0. -1.
</event>
<event>
 8    1  0.1088088E+005  0.1043930E+01  0.7957747E-01            NaN
         13   -1    0    0    0    0  0.00000000000E+00  0.00000000000E+00  0.74505805969E-08  0.10566000000E+00  0.10566000000E+00 0.  1.
     999900   -1    0    0    0    0 -0.00000000000E+00 -0.00000000000E+00 -0.74505805969E-08  0.93827000000E+00  0.93827000000E+00 0.  1.
     999902    2    1    2    0    0  0.26345128056E-01 -0.45387197295E-04 -0.72625415901E-02  0.10166021325E+01  0.10162347580E+01 0.  0.
     999903    2    3    3    0    0 -0.11981032918E+00  0.25545344255E-01 -0.41782793336E-02  0.12417520781E+00  0.19873213777E-01 0.  0.
         14    1    1    2    0    0 -0.26345128056E-01  0.45387197295E-04  0.72625415901E-02  0.27327867510E-01  0.00000000000E+00 0. -1.
     999901    1    3    3    0    0  0.14615545724E+00 -0.25590731453E-01 -0.30842622564E-02  0.89242692468E+00  0.88000000000E+00 0.  1.
        -11    1    4    4    0    0 -0.10948056003E+00  0.17281730171E-01 -0.28988417854E-02  0.11087522548E+00  0.51100000000E-03 0.  1.
         11    1    4    4    0    0 -0.10329769152E-01  0.82636140846E-02 -0.12794375482E-02  0.13299982328E-01  0.51100000000E-03 0. -1.
</event>
<event>
 8    1  0.1088088E+005  0.1043930E+01  0.7957747E-01            NaN
         13   -1    0    0    0    0  0.00000000000E+00  0.00000000000E+00  0.74505805969E-08  0.10566000000E+00  0.10566000000E+00 0. -1.
     999900   -1    0    0    0    0 -0.00000000000E+00 -0.00000000000E+00 -0.74505805969E-08  0.93827000000E+00  0.93827000000E+00 0.  1.
     999902    2    1    2    0    0 -0.14044292455E-01  0.30725882831E-02 -0.18668341108E-01  0.10203675318E+01  0.10200954416E+01 0.  0.
     999903    2    3    3    0    0  0.53081674001E-01  0.56859843815E-01 -0.10476368407E+00  0.13199183855E+00  0.19892460642E-01 0.  0.
         14    1    1    2    0    0  0.14044292455E-01 -0.30725882831E-02  0.18668341108E-01  0.23562468229E-01  0.00000000000E+00 0. -1.
     999901    1    3    3    0    0 -0.67125966456E-01 -0.53787255532E-01  0.86095342959E-01  0.88837569322E+00  0.88000000000E+00 0. -1.
        -11    1    4    4    0    0  0.26678664695E-01  0.31583800924E-01 -0.39467587113E-01  0.57159768931E-01  0.51100000000E-03 0.  1.
         11    1    4    4    0    0  0.26403009306E-01  0.25276042892E-01 -0.65296096954E-01  0.74832069617E-01  0.51100000000E-03 0. -1.
</event>
<event>
 8    1  0.1088088E+005  0.1043930E+01  0.7957747E-01            NaN
         13   -1    0    0    0    0  0.00000000000E+00  0.00000000000E+00  0.74505805969E-08  0.10566000000E+00  0.10566000000E+00 0.  1.
     999900   -1    0    0    0    0 -0.00000000000E+00 -0.00000000000E+00 -0.74505805969E-08  0.93827000000E+00  0.93827000000E+00 0. -1.
     999902    2    1    2    0    0  0.12578437099E-01  0.15450252629E-01 -0.12400304065E-01  0.10204631100E+01  0.10201932483E+01 0.  0.
     999903    2    3    3    0    0 -0.68877320554E-01  0.10373820624E+00 -0.38798759197E-01  0.13190997053E+00  0.19728048273E-01 0.  0.
         14    1    1    2    0    0 -0.12578437099E-01 -0.15450252629E-01  0.12400304065E-01  0.23466890017E-01  0.00000000000E+00 0.  1.
     999901    1    3    3    0    0  0.81455757653E-01 -0.88287953609E-01  0.26398455133E-01  0.88855313946E+00  0.88000000000E+00 0. -1.
        -11    1    4    4    0    0 -0.53156037569E-01  0.92694359903E-01 -0.32961439038E-01  0.11182363915E+00  0.51100000000E-03 0.  1.
         11    1    4    4    0    0 -0.15721282985E-01  0.11043846335E-01 -0.58373201594E-02  0.20086331377E-01  0.51100000000E-03 0. -1.
</event>
<event>
 8    1  0.1088088E+005  0.1043930E+01  0.7957747E-01            NaN
         13   -1    0    0    0    0  0.00000000000E+00  0.00000000000E+00  0.74505805969E-08  0.10566000000E+00  0.10566000000E+00 0.  1.
     999900   -1    0    0    0    0 -0.00000000000E+00 -0.00000000000E+00 -0.74505805969E-08  0.93827000000E+00  0.93827000000E+00 0.  1.
     999902    2    1    2    0    0 -0.66129314377E-02  0.26785319571E-02 -0.24227739719E-01  0.10186735401E+01  0.10183603942E+01 0.  0.
     999903    2    3    3    0    0 -0.44879809462E-01  0.96109900606E-01 -0.74563009090E-01  0.13147152591E+00  0.21767165867E-01 0.  0.
         14    1    1    2    0    0  0.66129314377E-02 -0.26785319571E-02  0.24227739719E-01  0.25256459917E-01  0.00000000000E+00 0.  1.
     999901    1    3    3    0    0  0.38266878024E-01 -0.93431368649E-01  0.50335269370E-01  0.88720201417E+00  0.88000000000E+00 0. -1.
        -11    1    4    4    0    0 -0.23532002158E-01  0.28177327398E-01 -0.30507303603E-01  0.47735454318E-01  0.51100000000E-03 0.  1.
         11    1    4    4    0    0 -0.21347807303E-01  0.67932573209E-01 -0.44055705487E-01  0.83736071596E-01  0.51100000000E-03 0. -1.
</event>
<event>
 8    1  0.1088088E+005  0.1043930E+01  0.7957747E-01            NaN
         13   -1    0    0    0    0  0.00000000000E+00  0.00000000000E+00  0.74505805969E-08  0.10566000000E+00  0.10566000000E+00 0. -1.
     999900   -1    0    0    0    0 -0.00000000000E+00 -0.00000000000E+00 -0.74505805969E-08  0.93827000000E+00  0.93827000000E+00 0.  1.
     999902    2    1    2    0    0 -0.23144858703E-02  0.95574352831E-02  0.24567966854E-01  0.10174670748E+01  0.10171228844E+01 0.  0.
     999903    2    3    3    0    0 -0.55028626009E-02 -0.28435335918E-01 -0.11954346229E+00  0.12493039746E+00  0.21865841130E-01 0.  0.
         14    1    1    2    0    0  0.23144858703E-02 -0.95574352831E-02 -0.24567966854E-01  0.26462925186E-01  0.00000000000E+00 0.  1.
     999901    1    3    3    0    0  0.31883767305E-02  0.37992771201E-01  0.14411142914E+00  0.89253667735E+00  0.88000000000E+00 0. -1.
        -11    1    4    4    0    0 -0.70693398779E-02 -0.18191227214E-02 -0.11391645592E-01  0.13539404865E-01  0.51100000000E-03 0. -1.
         11    1    4    4    0    0  0.15664772771E-02 -0.26616213197E-01 -0.10815181670E+00  0.11139099260E+00  0.51100000000E-03 0.  1.
</event>
<event>
 7    1  0.1088088E+005  0.1043930E+01  0.7957747E-01            NaN
         13   -1    0    0    0    0  0.00000000000E+00  0.00000000000E+00  0.74505805969E-08  0.10566000000E+00  0.10566000000E+00 0.  1.
     999900   -1    0    0    0    0 -0.00000000000E+00 -0.00000000000E+00 -0.74505805969E-08  0.93827000000E+00  0.93827000000E+00 0. -1.
     999903    2    1    2    0    0 -0.64960270473E-02 -0.71870597529E-01 -0.82756558306E-01  0.11166707115E+00  0.20329920811E-01 0.  0.
         14    1    1    2    0    0 -0.33601256882E-01 -0.24757039698E-01 -0.34722824676E-02  0.41880929123E-01  0.00000000000E+00 0.  1.
     999901    1    1    2    0    0  0.40097283929E-01  0.96627637227E-01  0.86228840774E-01  0.89038199973E+00  0.88000000000E+00 0.  1.
        -11    1    3    3    0    0  0.72299105702E-02 -0.31719804924E-01 -0.35925719588E-01  0.48469950280E-01  0.51100000000E-03 0. -1.
         11    1    3    3    0    0 -0.13725937617E-01 -0.40150792606E-01 -0.46830838719E-01  0.63197120871E-01  0.51100000000E-03 0.  1.
</event>
<event>
 8    1  0.1088088E+005  0.1043930E+01  0.7957747E-01            NaN
         13   -1    0    0    0    0  0.00000000000E+00  0.00000000000E+00  0.74505805969E-08  0.10566000000E+00  0.10566000000E+00 0. -1.
     999900   -1    0    0    0    0 -0.00000000000E+00 -0.00000000000E+00 -0.74505805969E-08  0.93827000000E+00  0.93827000000E+00 0.  1.
     999902    2    1    2    0    0  0.12901397872E-01 -0.11455260196E-01 -0.15806145269E-01  0.10205312120E+01  0.10202629324E+01 0.  0.
     999903    2    3    3    0    0  0.33794113380E-01  0.48489249013E-01  0.11278840010E+00  0.12892232527E+00  0.20161681145E-01 0.  0.
         14    1    1    2    0    0 -0.12901397872E-01  0.11455260196E-01  0.15806145269E-01  0.23398788034E-01  0.00000000000E+00 0. -1.
     999901    1    3    3    0    0 -0.20892715508E-01 -0.59944509209E-01 -0.12859454536E+00  0.89160888670E+00  0.88000000000E+00 0.  1.
        -11    1    4    4    0    0  0.87898180583E-02  0.15403577822E-01  0.17141077311E-01  0.24669997235E-01  0.51100000000E-03 0. -1.
         11    1    4    4    0    0  0.25004295322E-01  0.33085671191E-01  0.95647322785E-01  0.10425232803E+00  0.51100000000E-03 0.  1.
</event>
<event>
 8    1  0.1088088E+005  0.1043930E+01  0.7957747E-01            NaN
         13   -1    0    0    0    0  0.00000000000E+00  0.00000000000E+00  0.74505805969E-08  0.10566000000E+00  0.10566000000E+00 0.  1.
     999900   -1    0    0    0    0 -0.00000000000E+00 -0.00000000000E+00 -0.74505805969E-08  0.93827000000E+00  0.93827000000E+00 0.  1.
     999902    2    1    2    0    0 -0.30761015177E-01 -0.35230097138E-02 -0.33650311390E-02  0.10127855770E+01  0.10123065987E+01 0.  0.
     999903    2    3    3    0    0  0.90775125116E-02  0.11297653905E+00 -0.44344750493E-01  0.12326964649E+00  0.19566533716E-01 0.  0.
         14    1    1    2    0    0  0.30761015177E-01  0.35230097138E-02  0.33650311390E-02  0.31144423043E-01  0.00000000000E+00 0. -1.
     999901    1    3    3    0    0 -0.39838527688E-01 -0.11649954876E+00  0.40979719354E-01  0.88951593046E+00  0.88000000000E+00 0. -1.
        -11    1    4    4    0    0  0.11129963071E-01  0.48426169153E-01 -0.26245023436E-01  0.56196372774E-01  0.51100000000E-03 0.  1.
         11    1    4    4    0    0 -0.20524505597E-02  0.64550369895E-01 -0.18099727056E-01  0.67073273719E-01  0.51100000000E-03 0. -1.
</event>
<event>
 8    1  0.1088088E+005  0.1043930E+01  0.7957747E-01            NaN
         13   -1    0    0    0    0  0.00000000000E+00  0.00000000000E+00  0.74505805969E-08  0.10566000000E+00  0.10566000000E+00 0. -1.
     999900   -1    0    0    0    0 -0.00000000000E+00 -0.00000000000E+00 -0.74505805969E-08  0.93827000000E+00  0.93827000000E+00 0. -1.
     999902    2    1    2    0    0  0.15612999881E-01 -0.17806584306E-01 -0.52989789823E-03  0.10202420072E+01  0.10199669761E+01 0.  0.
     999903    2    3    3    0    0  0.17677940594E-01  0.79267150783E-01 -0.98851816612E-01  0.12945877112E+00  0.19801540238E-01 0.  0.
         14    1    1    2    0    0 -0.15612999881E-01  0.17806584306E-01  0.52989789823E-03  0.23687992775E-01  0.00000000000E+00 0. -1.
     999901    1    3    3    0    0 -0.20649407135E-02 -0.97073735089E-01  0.98321918714E-01  0.89078323610E+00  0.88000000000E+00 0.  1.
        -11    1    4    4    0    0 -0.20457636404E-02  0.20634813202E-01 -0.34040358026E-01  0.39862109331E-01  0.51100000000E-03 0.  1.
         11    1    4    4    0    0  0.19723704235E-01  0.58632337581E-01 -0.64811458586E-01  0.89596661791E-01  0.51100000000E-03 0. -1.
</event>
<event>
 8    1  0.1088088E+005  0.1043930E+01  0.7957747E-01            NaN
         13   -1    0    0    0    0  0.00000000000E+00  0.00000000000E+00  0.74505805969E-08  0.10566000000E+00  0.10566000000E+00 0.  1.
     999900   -1    0    0    0    0 -0.00000000000E+00 -0.00000000000E+00 -0.74505805969E-08  0.93827000000E+00  0.93827000000E+00 0.  1.
     999902    2    1    2    0    0 -0.34245957071E-02 -0.23542641252E-01 -0.21037251429E-02  0.10200467533E+01  0.10197671153E+01 0.  0.
     999903    2    3    3    0    0 -0.12632169089E+00  0.15234972614E-01  0.18487410951E-01  0.13042245383E+00  0.21885111798E-01 0.  0.
         14    1    1    2    0    0  0.34245957071E-02  0.23542641252E-01  0.21037251429E-02  0.23883246688E-01  0.00000000000E+00 0.  1.
     999901    1    3    3    0    0  0.12289709519E+00 -0.38777613866E-01 -0.20591136094E-01  0.88962429948E+00  0.88000000000E+00 0.  1.
        -11    1    4    4    0    0 -0.88422681520E-01  0.14659869323E-01  0.22184491487E-01  0.92335773996E-01  0.51100000000E-03 0.  1.
         11    1    4    4    0    0 -0.37899009374E-01  0.57510329145E-03 -0.36970805363E-02  0.38086679835E-01  0.51100000000E-03 0. -1.
</event>
<event>
 8    1  0.1088088E+005  0.1043930E+01  0.7957747E-01            NaN
         13   -1    0    0    0    0  0.00000000000E+00  0.00000000000E+00  0.74505805969E-08  0.10566000000E+00  0.10566000000E+00 0.  1.
     999900   -1    0    0    0    0 -0.00000000000E+00 -0.00000000000E+00 -0.74505805969E-08  0.93827000000E+00  0.93827000000E+00 0. -1.
     999902    2    1    2    0    0 -0.22608231354E-01  0.32805690728E-02  0.50406394749E-02  0.10205355070E+01  0.10202673271E+01 0.  0.
     999903    2    3    3    0    0 -0.10000853582E+00 -0.55828175052E-01 -0.63532728732E-01  0.13251131945E+00  0.20108450856E-01 0.  0.
         14    1    1    2    0    0  0.22608231354E-01 -0.32805690728E-02 -0.50406394749E-02  0.23394493043E-01  0.00000000000E+00 0.  1.
     999901    1    3    3    0    0  0.77400304470E-01  0.59108744125E-01  0.68573368207E-01  0.88802418750E+00  0.88000000000E+00 0.  1.
        -11    1    4    4    0    0 -0.51024900213E-01 -0.22146336842E-01 -0.40273370611E-01  0.68674639996E-01  0.51100000000E-03 0.  1.
         11    1    4    4    0    0 -0.48983635612E-01 -0.33681838211E-01 -0.23259358121E-01  0.63836679458E-01  0.51100000000E-03 0. -1.
</event>
<event>
 8    1  0.1088088E+005  0.1043930E+01  0.7957747E-01            NaN
         13   -1    0    0    0    0  0.00000000000E+00  0.00000000000E+00  0.74505805969E-08  0.10566000000E+00  0.10566000000E+00 0. -1.
     999900   -1    0    0    0    0 -0.00000000000E+00 -0.00000000000E+00 -0.74505805969E-08  0.93827000000E+00  0.93827000000E+00 0. -1.
     999902    2    1    2    0    0 -0.13050855544E-01  0.25186190086E-01 -0.10670682368E-01  0.10136226995E+01  0.10131695043E+01 0.  0.
     999903    2    3    3    0    0 -0.41478765829E-01  0.30391353420E-01  0.11200178515E+00  0.12464363670E+00  0.18641725086E-01 0.  0.
         14    1    1    2    0    0  0.13050855544E-01 -0.25186190086E-01  0.10670682368E-01  0.30307300502E-01  0.00000000000E+00 0. -1.
     999901    1    3    3    0    0  0.28427910285E-01 -0.52051633335E-02 -0.12267246752E+00  0.88897906280E+00  0.88000000000E+00 0. -1.
        -11    1    4    4    0    0 -0.33037879508E-01  0.16234470068E-01  0.89246636750E-01  0.96541611717E-01  0.51100000000E-03 0.  1.
         11    1    4    4    0    0 -0.84408863205E-02  0.14156883352E-01  0.22755148405E-01  0.28102024981E-01  0.51100000000E-03 0. -1.
</event>
<event>
 8    1  0.1088088E+005  0.1043930E+01  0.7957747E-01            NaN
         13   -1    0    0    0    0  0.00000000000E+00  0.00000000000E+00  0.74505805969E-08  0.10566000000E+00  0.10566000000E+00 0. -1.
     999900   -1    0    0    0    0 -0.00000000000E+00 -0.00000000000E+00 -0.74505805969E-08  0.93827000000E+00  0.93827000000E+00 0. -1.
     999902    2    1    2    0    0 -0.16810304177E-01  0.17294789628E-01  0.37427510253E-02  0.10195229465E+01  0.10192307561E+01 0.  0.
     999903    2    3    3    0    0  0.62535298177E-01 -0.47772321522E-01 -0.98554689158E-01  0.12767418140E+00  0.19869867103E-01 0.  0.
         14    1    1    2    0    0  0.16810304177E-01 -0.17294789628E-01 -0.37427510253E-02  0.24407053489E-01  0.00000000000E+00 0.  1.
     999901    1    3    3    0    0 -0.79345602354E-01  0.65067111150E-01  0.10229744018E+00  0.89184876511E+00  0.88000000000E+00 0.  1.
        -11    1    4    4    0    0  0.56826051761E-01 -0.34225878330E-01 -0.77944621609E-01  0.10235348585E+00  0.51100000000E-03 0. -1.
         11    1    4    4    0    0  0.57092464167E-02 -0.13546443192E-01 -0.20610067549E-01  0.25320695551E-01  0.51100000000E-03 0.  1.
</event>
<event>
 8    1  0.1088088E+005  0.1043930E+01  0.7957747E-01            NaN
         13   -1    0    0    0    0  0.00000000000E+00  0.00000000000E+00  0.74505805969E-08  0.10566000000E+00  0.10566000000E+00 0. -1.
     999900   -1    0    0    0    0 -0.00000000000E+00 -0.00000000000E+00 -0.74505805969E-08  0.93827000000E+00  0.93827000000E+00 0. -1.
     999902    2    1    2    0    0 -0.79383716465E-02  0.85248861965E-02  0.20223626031E-01  0.10205914808E+01  0.10203245975E+01 0.  0.
     999903    2    3    3    0    0 -0.86797536108E-01  0.86361174664E-01 -0.43532499648E-01  0.13135467364E+00  0.19154816596E-01 0.  0.
         14    1    1    2    0    0  0.79383716465E-02 -0.85248861965E-02 -0.20223626031E-01  0.23338519210E-01  0.00000000000E+00 0.  1.
     999901    1    3    3    0    0  0.78859164461E-01 -0.77836288468E-01  0.63756125679E-01  0.88923680715E+00  0.88000000000E+00 0.  1.
        -11    1    4    4    0    0 -0.63693485763E-01  0.52249475837E-01 -0.33594713599E-01  0.88970409445E-01  0.51100000000E-03 0. -1.
         11    1    4    4    0    0 -0.23104050344E-01  0.34111698827E-01 -0.99377860487E-02  0.42384264200E-01  0.51100000000E-03 0.  1.
</event>
<event>
 8    1  0.1088088E+005  0.1043930E+01  0.7957747E-01            NaN
         13   -1    0    0    0    0  0.00000000000E+00  0.00000000000E+00  0.74505805969E-08  0.10566000000E+00  0.10566000000E+00 0.  1.
     999900   -1    0    0    0    0 -0.00000000000E+00 -0.00000000000E+00 -0.74505805969E-08  0.93827000000E+00  0.93827000000E+00 0.  1.
     999902    2    1    2    0    0  0.14109926582E-01  0.13245597965E-01 -0.13495942202E-01  0.10203360103E+01  0.10200631831E+01 0.  0.
     999903    2    3    3    0    0  0.86869834096E-01  0.71480197438E-01 -0.69471037589E-01  0.13364638929E+00  0.19476796594E-01 0.  0.
         14    1    1    2    0    0 -0.14109926582E-01 -0.13245597965E-01  0.13495942202E-01  0.23593989690E-01  0.00000000000E+00 0.  1.
     999901    1    3    3    0    0 -0.72759907514E-01 -0.58234599473E-01  0.55975095387E-01  0.88668962102E+00  0.88000000000E+00 0. -1.
        -11    1    4    4    0    0  0.79905778390E-01  0.66879546430E-01 -0.69555524199E-01  0.12528383463E+00  0.51100000000E-03 0. -1.
         11    1    4    4    0    0  0.69640557057E-02  0.46006510077E-02  0.84486610216E-04  0.83625546668E-02  0.51100000000E-03 0.  1.
</event>
<event>
 8    1  0.1344695E+005  0.1043930E+01  0.7957747E-01            NaN
         13   -1    0    0    0    0  0.00000000000E+00  0.00000000000E+00  0.74505805969E-08  0.10566000000E+00  0.10566000000E+00 0.  1.
     999900   -1    0    0    0    0 -0.00000000000E+00 -0.00000000000E+00 -0.74505805969E-08  0.93827000000E+00  0.93827000000E+00 0.  1.
     999902    2    1    2    0    0 -0.18108960982E-01  0.55927643678E-02  0.15215399957E-01  0.10196252293E+01  0.10193355122E+01 0.  0.
     999903    2    3    3    0    0  0.10949352169E+00 -0.32225644718E-01  0.55831981399E-01  0.12869182423E+00  0.20421851237E-01 0.  0.
         14    1    1    2    0    0  0.18108960982E-01 -0.55927643678E-02 -0.15215399957E-01  0.24304770662E-01  0.00000000000E+00 0. -1.
     999901    1    3    3    0    0 -0.12760248267E+00  0.37818409086E-01 -0.40616581442E-01  0.89093340511E+00  0.88000000000E+00 0.  1.
        -11    1    4    4    0    0  0.63751984490E-01 -0.13962211164E-01  0.41698904241E-01  0.77448812791E-01  0.51100000000E-03 0.  1.
         11    1    4    4    0    0  0.45741537197E-01 -0.18263433554E-01  0.14133077158E-01  0.51243011438E-01  0.51100000000E-03 0. -1.
</event>
<event>
 8    1  0.1088088E+005  0.1043930E+01  0.7957747E-01            NaN
         13   -1    0    0    0    0  0.00000000000E+00  0.00000000000E+00  0.74505805969E-08  0.10566000000E+00  0.10566000000E+00 0.  1.
     999900   -1    0    0    0    0 -0.00000000000E+00 -0.00000000000E+00 -0.74505805969E-08  0.93827000000E+00  0.93827000000E+00 0. -1.
     999902    2    1    2    0    0  0.12530234781E-01  0.86525922520E-02  0.86472982532E-02  0.10264185779E+01  0.10262691885E+01 0.  0.
     999903    2    3    3    0    0  0.13483708965E-01 -0.50449388417E-01 -0.12160020602E+00  0.13487028107E+00  0.26008295101E-01 0.  0.
         14    1    1    2    0    0 -0.12530234781E-01 -0.86525922520E-02 -0.86472982532E-02  0.17511422085E-01  0.00000000000E+00 0.  1.
     999901    1    3    3    0    0 -0.95347418410E-03  0.59101980669E-01  0.13024750427E+00  0.89154829684E+00  0.88000000000E+00 0.  1.
        -11    1    4    4    0    0 -0.71108717459E-02 -0.93577606130E-02 -0.33392164203E-01  0.35403812391E-01  0.51100000000E-03 0. -1.
         11    1    4    4    0    0  0.20594580711E-01 -0.41091627804E-01 -0.88208041815E-01  0.99466468683E-01  0.51100000000E-03 0.  1.
</event>
<event>
 8    1  0.1088088E+005  0.1043930E+01  0.7957747E-01            NaN
         13   -1    0    0    0    0  0.00000000000E+00  0.00000000000E+00  0.74505805969E-08  0.10566000000E+00  0.10566000000E+00 0. -1.
     999900   -1    0    0    0    0 -0.00000000000E+00 -0.00000000000E+00 -0.74505805969E-08  0.93827000000E+00  0.93827000000E+00 0. -1.
     999902    2    1    2    0    0  0.16228817772E-01 -0.16588453534E-01  0.38784041590E-02  0.10204014357E+01  0.10201301372E+01 0.  0.
     999903    2    3    3    0    0 -0.54953086431E-01  0.92203615438E-01  0.67770041831E-01  0.12855799707E+00  0.20323179661E-01 0.  0.
         14    1    1    2    0    0 -0.16228817772E-01  0.16588453534E-01 -0.38784041590E-02  0.23528564252E-01  0.00000000000E+00 0.  1.
     999901    1    3    3    0    0  0.71181904204E-01 -0.10879206897E+00 -0.63891637672E-01  0.89184343868E+00  0.88000000000E+00 0. -1.
        -11    1    4    4    0    0 -0.36682058697E-01  0.41904877880E-01  0.36150223180E-01  0.66397981727E-01  0.51100000000E-03 0.  1.
         11    1    4    4    0    0 -0.18271027734E-01  0.50298737558E-01  0.31619818651E-01  0.62160015339E-01  0.51100000000E-03 0. -1.
</event>
<event>
 8    1  0.1088088E+005  0.1043930E+01  0.7957747E-01            NaN
         13   -1    0    0    0    0  0.00000000000E+00  0.00000000000E+00  0.74505805969E-08  0.10566000000E+00  0.10566000000E+00 0. -1.
     999900   -1    0    0    0    0 -0.00000000000E+00 -0.00000000000E+00 -0.74505805969E-08  0.93827000000E+00  0.93827000000E+00 0.  1.
     999902    2    1    2    0    0  0.23192551867E-01 -0.23081961399E-02 -0.38657223463E-02  0.10203044621E+01  0.10200308963E+01 0.  0.
     999903    2    3    3    0    0 -0.35804291628E-01 -0.89735032203E-01 -0.85067680937E-01  0.13029444122E+00  0.20144670968E-01 0.  0.
         14    1    1    2    0    0 -0.23192551867E-01  0.23081961399E-02  0.38657223463E-02  0.23625537894E-01  0.00000000000E+00 0.  1.
     999901    1    3    3    0    0  0.58996843494E-01  0.87426836063E-01  0.81201958591E-01  0.89001002089E+00  0.88000000000E+00 0. -1.
        -11    1    4    4    0    0 -0.86469054083E-02 -0.10644653782E-01 -0.20382091280E-01  0.24571699030E-01  0.51100000000E-03 0.  1.
         11    1    4    4    0    0 -0.27157386219E-01 -0.79090378421E-01 -0.64685589656E-01  0.10572274219E+00  0.51100000000E-03 0. -1.
</event>
<event>
 8    1  0.1088088E+005  0.1043930E+01  0.7957747E-01            NaN
         13   -1    0    0    0    0  0.00000000000E+00  0.00000000000E+00  0.74505805969E-08  0.10566000000E+00  0.10566000000E+00 0.  1.
     999900   -1    0    0    0    0 -0.00000000000E+00 -0.00000000000E+00 -0.74505805969E-08  0.93827000000E+00  0.93827000000E+00 0. -1.
     999902    2    1    2    0    0  0.23905953410E-01 -0.75986297102E-02  0.77743817595E-02  0.10176683399E+01  0.10173294329E+01 0.  0.
     999903    2    3    3    0    0  0.59040944716E-01  0.70675645556E-01  0.89242795994E-01  0.12975030743E+00  0.19748053420E-01 0.  0.
         14    1    1    2    0    0 -0.23905953410E-01  0.75986297102E-02 -0.77743817595E-02  0.26261660147E-01  0.00000000000E+00 0.  1.
     999901    1    3    3    0    0 -0.35134991306E-01 -0.78274275266E-01 -0.81468414235E-01  0.88791803242E+00  0.88000000000E+00 0. -1.
        -11    1    4    4    0    0  0.55991593527E-01  0.58410499775E-01  0.81878502820E-01  0.11511383659E+00  0.51100000000E-03 0. -1.
         11    1    4    4    0    0  0.30493511891E-02  0.12265145780E-01  0.73642931742E-02  0.14636470840E-01  0.51100000000E-03 0.  1.
</event>
<event>
 8    1  0.1088088E+005  0.1043930E+01  0.7957747E-01            NaN
         13   -1    0    0    0    0  0.00000000000E+00  0.00000000000E+00  0.74505805969E-08  0.10566000000E+00  0.10566000000E+00 0. -1.
     999900   -1    0    0    0    0 -0.00000000000E+00 -0.00000000000E+00 -0.74505805969E-08  0.93827000000E+00  0.93827000000E+00 0.  1.
     999902    2    1    2    0    0  0.15884204829E-02 -0.16566324120E-01  0.15297933793E-01  0.10213248468E+01  0.10210746543E+01 0.  0.
     999903    2    3    3    0    0 -0.89362370012E-01 -0.73807468510E-01 -0.59347580357E-01  0.13165044133E+00  0.19404324931E-01 0.  0.
         14    1    1    2    0    0 -0.15884204829E-02  0.16566324120E-01 -0.15297933793E-01  0.22605153236E-01  0.00000000000E+00 0.  1.
     999901    1    3    3    0    0  0.90950790495E-01  0.57241144390E-01  0.74645514150E-01  0.88967440543E+00  0.88000000000E+00 0. -1.
        -11    1    4    4    0    0 -0.93164764689E-02 -0.53860550848E-02  0.11179140467E-06  0.10773460177E-01  0.51100000000E-03 0.  1.
         11    1    4    4    0    0 -0.80045893543E-01 -0.68421413425E-01 -0.59347692149E-01  0.12087698115E+00  0.51100000000E-03 0. -1.
</event>
<event>
 8    1  0.1088088E+005  0.1043930E+01  0.7957747E-01            NaN
         13   -1    0    0    0    0  0.00000000000E+00  0.00000000000E+00  0.74505805969E-08  0.10566000000E+00  0.10566000000E+00 0. -1.
     999900   -1    0    0    0    0 -0.00000000000E+00 -0.00000000000E+00 -0.74505805969E-08  0.93827000000E+00  0.93827000000E+00 0. -1.
     999902    2    1    2    0    0 -0.18976992052E-02 -0.38572551441E-02  0.23771972698E-01  0.10197724677E+01  0.10194862920E+01 0.  0.
     999903    2    3    3    0    0 -0.11032293806E+00 -0.42917703197E-01  0.54496575540E-01  0.13172643725E+00  0.19206707573E-01 0.  0.
         14    1    1    2    0    0  0.18976992052E-02  0.38572551441E-02 -0.23771972698E-01  0.24157532272E-01  0.00000000000E+00 0.  1.
     999901    1    3    3    0    0  0.10842523885E+00  0.39060448052E-01 -0.30724602842E-01  0.88804603048E+00  0.88000000000E+00 0. -1.
        -11    1    4    4    0    0 -0.91784247730E-01 -0.29651791007E-01  0.38417939451E-01  0.10382570026E+00  0.51100000000E-03 0. -1.
         11    1    4    4    0    0 -0.18538690330E-01 -0.13265912190E-01  0.16078636090E-01  0.27900736995E-01  0.51100000000E-03 0.  1.
</event>
<event>
 8    1  0.1088088E+005  0.1043930E+01  0.7957747E-01            NaN
         13   -1    0    0    0    0  0.00000000000E+00  0.00000000000E+00  0.74505805969E-08  0.10566000000E+00  0.10566000000E+00 0.  1.
     999900   -1    0    0    0    0 -0.00000000000E+00 -0.00000000000E+00 -0.74505805969E-08  0.93827000000E+00  0.93827000000E+00 0.  1.
     999902    2    1    2    0    0  0.21834770259E-01 -0.67223428201E-02 -0.60439686463E-02  0.10202978896E+01  0.10200241697E+01 0.  0.
     999903    2    3    3    0    0  0.29352057017E-01  0.11404207900E+00 -0.53085710380E-01  0.13077358940E+00  0.20408331731E-01 0.  0.
         14    1    1    2    0    0 -0.21834770259E-01  0.67223428201E-02  0.60439686463E-02  0.23632110406E-01  0.00000000000E+00 0.  1.
     999901    1    3    3    0    0 -0.75172867584E-02 -0.12076442182E+00  0.47041741734E-01  0.88952430020E+00  0.88000000000E+00 0. -1.
        -11    1    4    4    0    0  0.19985674616E-01  0.82802621915E-01 -0.28137332906E-01  0.89708817905E-01  0.51100000000E-03 0.  1.
         11    1    4    4    0    0  0.93663824008E-02  0.31239457081E-01 -0.24948377474E-01  0.41064771491E-01  0.51100000000E-03 0. -1.
</event>
<event>
 8    1  0.1088088E+005  0.1043930E+01  0.7957747E-01            NaN
         13   -1    0    0    0    0  0.00000000000E+00  0.00000000000E+00  0.74505805969E-08  0.10566000000E+00  0.10566000000E+00 0.  1.
     999900   -1    0    0    0    0 -0.00000000000E+00 -0.00000000000E+00 -0.74505805969E-08  0.93827000000E+00  0.93827000000E+00 0. -1.
     999902    2    1    2    0    0  0.59896119330E-02  0.84309248304E-03 -0.23734278996E-01  0.10194370979E+01  0.10191428233E+01 0.  0.
     999903    2    3    3    0    0  0.12312080515E+00  0.19525449993E-01 -0.37011896986E-01  0.13138020663E+00  0.18732386895E-01 0.  0.
         14    1    1    2    0    0 -0.59896119330E-02 -0.84309248304E-03  0.23734278996E-01  0.24492902146E-01  0.00000000000E+00 0.  1.
     999901    1    3    3    0    0 -0.11713119321E+00 -0.18682357510E-01  0.13277617989E-01  0.88805689122E+00  0.88000000000E+00 0.  1.
        -11    1    4    4    0    0  0.42634330217E-01 -0.19779867672E-02 -0.14537176753E-01  0.45090899011E-01  0.51100000000E-03 0. -1.
         11    1    4    4    0    0  0.80486474931E-01  0.21503436760E-01 -0.22474720233E-01  0.86289307622E-01  0.51100000000E-03 0.  1.
</event>
<event>
 8    1  0.1088088E+005  0.1043930E+01  0.7957747E-01            NaN
         13   -1    0    0    0    0  0.00000000000E+00  0.00000000000E+00  0.74505805969E-08  0.10566000000E+00  0.10566000000E+00 0.  1.
     999900   -1    0    0    0    0 -0.00000000000E+00 -0.00000000000E+00 -0.74505805969E-08  0.93827000000E+00  0.93827000000E+00 0.  1.
     999902    2    1    2    0    0 -0.17804169278E-01  0.16588135788E-01  0.37962736601E-02  0.10193014315E+01  0.10190038478E+01 0.  0.
     999903    2    3    3    0    0 -0.28601425172E-01  0.12084585274E+00 -0.39935216012E-01  0.13200289354E+00  0.20203484319E-01 0.  0.
         14    1    1    2    0    0  0.17804169278E-01 -0.16588135788E-01 -0.37962736601E-02  0.24628568499E-01  0.00000000000E+00 0. -1.
     999901    1    3    3    0    0  0.10797255894E-01 -0.10425771695E+00  0.43731489672E-01  0.88729853796E+00  0.88000000000E+00 0.  1.
        -11    1    4    4    0    0 -0.16575293990E-01  0.56852454046E-01 -0.29125233752E-01  0.65996077641E-01  0.51100000000E-03 0. -1.
         11    1    4    4    0    0 -0.12026131182E-01  0.63993398694E-01 -0.10809982260E-01  0.66006815899E-01  0.51100000000E-03 0.  1.
</event>
<event>
 8    1  0.1088088E+005  0.1043930E+01  0.7957747E-01            NaN
         13   -1    0    0    0    0  0.00000000000E+00  0.00000000000E+00  0.74505805969E-08  0.10566000000E+00  0.10566000000E+00 0.  1.
     999900   -1    0    0    0    0 -0.00000000000E+00 -0.00000000000E+00 -0.74505805969E-08  0.93827000000E+00  0.93827000000E+00 0. -1.
     999902    2    1    2    0    0 -0.16501893378E-01 -0.15136292511E-01 -0.97184614624E-02  0.10195195856E+01  0.10192273138E+01 0.  0.
     999903    2    3    3    0    0  0.54167206398E-01  0.11115194016E+00  0.21661937093E-01  0.12714770756E+00  0.20210392592E-01 0.  0.
         14    1    1    2    0    0  0.16501893378E-01  0.15136292511E-01  0.97184614624E-02  0.24410414360E-01  0.00000000000E+00 0.  1.
     999901    1    3    3    0    0 -0.70669099776E-01 -0.12628823267E+00 -0.31380398556E-01  0.89237187808E+00  0.88000000000E+00 0.  1.
        -11    1    4    4    0    0  0.31867692625E-01  0.85077085546E-01  0.18238240152E-01  0.92663665172E-01  0.51100000000E-03 0.  1.
         11    1    4    4    0    0  0.22299513773E-01  0.26074854615E-01  0.34236969407E-02  0.34484042388E-01  0.51100000000E-03 0. -1.
</event>
<event>
 8    1  0.1088088E+005  0.1043930E+01  0.7957747E-01            NaN
         13   -1    0    0    0    0  0.00000000000E+00  0.00000000000E+00  0.74505805969E-08  0.10566000000E+00  0.10566000000E+00 0. -1.
     999900   -1    0    0    0    0 -0.00000000000E+00 -0.00000000000E+00 -0.74505805969E-08  0.93827000000E+00  0.93827000000E+00 0.  1.
     999902    2    1    2    0    0  0.14143262910E-02 -0.23171266472E-01 -0.44175829908E-02  0.10202990257E+01  0.10200253324E+01 0.  0.
     999903    2    3    3    0    0  0.94153377746E-01  0.46782950139E-01 -0.73643383160E-01  0.12996968463E+00  0.20378127381E-01 0.  0.
         14    1    1    2    0    0 -0.14143262910E-02  0.23171266472E-01  0.44175829908E-02  0.23630974340E-01  0.00000000000E+00 0.  1.
     999901    1    3    3    0    0 -0.92739051455E-01 -0.69954216611E-01  0.69225800169E-01  0.89032934103E+00  0.88000000000E+00 0. -1.
        -11    1    4    4    0    0  0.24488687272E-01  0.95443446539E-02 -0.29362039007E-01  0.39410414548E-01  0.51100000000E-03 0. -1.
         11    1    4    4    0    0  0.69664690473E-01  0.37238605485E-01 -0.44281344153E-01  0.90559270084E-01  0.51100000000E-03 0.  1.
</event>
<event>
 8    1  0.1088088E+005  0.1043930E+01  0.7957747E-01            NaN
         13   -1    0    0    0    0  0.00000000000E+00  0.00000000000E+00  0.74505805969E-08  0.10566000000E+00  0.10566000000E+00 0.  1.
     999900   -1    0    0    0    0 -0.00000000000E+00 -0.00000000000E+00 -0.74505805969E-08  0.93827000000E+00  0.93827000000E+00 0. -1.
     999902    2    1    2    0    0  0.22749496359E-01 -0.34080041377E-02  0.94422699126E-02  0.10190641492E+01  0.10187607322E+01 0.  0.
     999903    2    3    3    0    0  0.46474867585E-01  0.52414172367E-01  0.10873565438E+00  0.13140532685E+00  0.23168051488E-01 0.  0.
         14    1    1    2    0    0 -0.22749496359E-01  0.34080041377E-02 -0.94422699126E-02  0.24865850838E-01  0.00000000000E+00 0.  1.
     999901    1    3    3    0    0 -0.23725371226E-01 -0.55822176505E-01 -0.99293384464E-01  0.88765882231E+00  0.88000000000E+00 0. -1.
        -11    1    4    4    0    0  0.43137997493E-01  0.44686434038E-01  0.78982263523E-01  0.10047996460E+00  0.51100000000E-03 0.  1.
         11    1    4    4    0    0  0.33368700923E-02  0.77277383293E-02  0.29753390854E-01  0.30925362245E-01  0.51100000000E-03 0. -1.
</event>
<event>
 8    1  0.1088088E+005  0.1043930E+01  0.7957747E-01            NaN
         13   -1    0    0    0    0  0.00000000000E+00  0.00000000000E+00  0.74505805969E-08  0.10566000000E+00  0.10566000000E+00 0.  1.
     999900   -1    0    0    0    0 -0.00000000000E+00 -0.00000000000E+00 -0.74505805969E-08  0.93827000000E+00  0.93827000000E+00 0. -1.
     999902    2    1    2    0    0  0.17028633532E-01  0.15583089636E-01 -0.11915563952E-03  0.10208470790E+01  0.10205860755E+01 0.  0.
     999903    2    3    3    0    0  0.40111259704E-02 -0.91480627701E-01 -0.89632284082E-01  0.12975522336E+00  0.20437153991E-01 0.  0.
         14    1    1    2    0    0 -0.17028633532E-01 -0.15583089636E-01  0.11915563952E-03  0.23082920973E-01  0.00000000000E+00 0.  1.
     999901    1    3    3    0    0  0.13017507561E-01  0.10706371734E+00  0.89513128443E-01  0.89109185567E+00  0.88000000000E+00 0.  1.
        -11    1    4    4    0    0 -0.19837368778E-02 -0.50034679245E-01 -0.61474092206E-01  0.79288898799E-01  0.51100000000E-03 0.  1.
         11    1    4    4    0    0  0.59948628482E-02 -0.41445948456E-01 -0.28158191876E-01  0.50466324561E-01  0.51100000000E-03 0. -1.
</event>
<event>
 8    1  0.1088088E+005  0.1043930E+01  0.7957747E-01            NaN
         13   -1    0    0    0    0  0.00000000000E+00  0.00000000000E+00  0.74505805969E-08  0.10566000000E+00  0.10566000000E+00 0. -1.
     999900   -1    0    0    0    0 -0.00000000000E+00 -0.00000000000E+00 -0.74505805969E-08  0.93827000000E+00  0.93827000000E+00 0.  1.
     999902    2    1    2    0    0 -0.20492228174E-01  0.57745532642E-02 -0.65989937032E-02  0.10216404599E+01  0.10213972810E+01 0.  0.
     999903    2    3    3    0    0  0.60210912614E-01  0.36874089648E-01  0.10711063730E+00  0.13011925526E+00  0.21754987514E-01 0.  0.
         14    1    1    2    0    0  0.20492228174E-01 -0.57745532642E-02  0.65989937032E-02  0.22289540121E-01  0.00000000000E+00 0. -1.
     999901    1    3    3    0    0 -0.80703140787E-01 -0.31099536383E-01 -0.11370963101E+00  0.89152120462E+00  0.88000000000E+00 0.  1.
        -11    1    4    4    0    0  0.28444110503E-01  0.16377301021E-01  0.31073535871E-01  0.45200765077E-01  0.51100000000E-03 0.  1.
         11    1    4    4    0    0  0.31766802111E-01  0.20496788627E-01  0.76037101432E-01  0.84918490186E-01  0.51100000000E-03 0. -1.
</event>
<event>
 8    1  0.1088088E+005  0.1043930E+01  0.7957747E-01            NaN
         13   -1    0    0    0    0  0.00000000000E+00  0.00000000000E+00  0.74505805969E-08  0.10566000000E+00  0.10566000000E+00 0. -1.
     999900   -1    0    0    0    0 -0.00000000000E+00 -0.00000000000E+00 -0.74505805969E-08  0.93827000000E+00  0.93827000000E+00 0.  1.
     999902    2    1    2    0    0  0.18097875366E-01 -0.13784040665E-01  0.74690366119E-02  0.10199859114E+01  0.10197048299E+01 0.  0.
     999903    2    3    3    0    0 -0.12485698067E+00  0.14794284649E-01 -0.10484161590E-01  0.12781152888E+00  0.20438512396E-01 0.  0.
         14    1    1    2    0    0 -0.18097875366E-01  0.13784040665E-01 -0.74690366119E-02  0.23944088576E-01  0.00000000000E+00 0.  1.
     999901    1    3    3    0    0  0.14295485604E+00 -0.28578325314E-01  0.17953198202E-01  0.89217438254E+00  0.88000000000E+00 0. -1.
        -11    1    4    4    0    0 -0.51572807275E-01 -0.32304045646E-02 -0.45783143837E-03  0.51678435488E-01  0.51100000000E-03 0. -1.
         11    1    4    4    0    0 -0.73284173400E-01  0.18024689214E-01 -0.10026330151E-01  0.76133093392E-01  0.51100000000E-03 0.  1.
</event>
<event>
 8    1  0.1088088E+005  0.1043930E+01  0.7957747E-01            NaN
         13   -1    0    0    0    0  0.00000000000E+00  0.00000000000E+00  0.74505805969E-08  0.10566000000E+00  0.10566000000E+00 0.  1.
     999900   -1    0    0    0    0 -0.00000000000E+00 -0.00000000000E+00 -0.74505805969E-08  0.93827000000E+00  0.93827000000E+00 0.  1.
     999902    2    1    2    0    0  0.45594088208E-02  0.69475734590E-02  0.21532784900E-01  0.10208493195E+01  0.10205883672E+01 0.  0.
     999903    2    3    3    0    0  0.15994715325E-01 -0.12686575380E+00  0.18355880170E-01  0.13065447259E+00  0.19567893752E-01 0.  0.
         14    1    1    2    0    0 -0.45594088208E-02 -0.69475734590E-02 -0.21532784900E-01  0.23080680478E-01  0.00000000000E+00 0. -1.
     999901    1    3    3    0    0 -0.11435306504E-01  0.13381332725E+00  0.31769047301E-02  0.89019484693E+00  0.88000000000E+00 0.  1.
        -11    1    4    4    0    0  0.19918330035E-01 -0.84995472284E-01  0.12739430242E-01  0.88224284549E-01  0.51100000000E-03 0. -1.
         11    1    4    4    0    0 -0.39236147105E-02 -0.41870281511E-01  0.56164499274E-02  0.42430188039E-01  0.51100000000E-03 0.  1.
</event>
<event>
 8    1  0.1088088E+005  0.1043930E+01  0.7957747E-01            NaN
         13   -1    0    0    0    0  0.00000000000E+00  0.00000000000E+00  0.74505805969E-08  0.10566000000E+00  0.10566000000E+00 0. -1.
     999900   -1    0    0    0    0 -0.00000000000E+00 -0.00000000000E+00 -0.74505805969E-08  0.93827000000E+00  0.93827000000E+00 0. -1.
     999902    2    1    2    0    0 -0.56969566744E-02  0.18982653950E-01 -0.12364413604E-01  0.10205703084E+01  0.10203029350E+01 0.  0.
     999903    2    3    3    0    0  0.63881301053E-01 -0.10884996161E+00  0.11027463497E-01  0.12830942088E+00  0.20311764261E-01 0.  0.
         14    1    1    2    0    0  0.56969566744E-02 -0.18982653950E-01  0.12364413604E-01  0.23359691567E-01  0.00000000000E+00 0. -1.
     999901    1    3    3    0    0 -0.69578257727E-01  0.12783261556E+00 -0.23391877100E-01  0.89226088756E+00  0.88000000000E+00 0. -1.
        -11    1    4    4    0    0  0.42125675243E-01 -0.60455243261E-01  0.14631029224E-01  0.75124810080E-01  0.51100000000E-03 0.  1.
         11    1    4    4    0    0  0.21755625810E-01 -0.48394718350E-01 -0.36035657271E-02  0.53184610796E-01  0.51100000000E-03 0. -1.
</event>
<event>
 8    1  0.1088088E+005  0.1043930E+01  0.7957747E-01            NaN
         13   -1    0    0    0    0  0.00000000000E+00  0.00000000000E+00  0.74505805969E-08  0.10566000000E+00  0.10566000000E+00 0.  1.
     999900   -1    0    0    0    0 -0.00000000000E+00 -0.00000000000E+00 -0.74505805969E-08  0.93827000000E+00  0.93827000000E+00 0. -1.
     999902    2    1    2    0    0 -0.11210512464E-02  0.67352493412E-02  0.21193701375E-01  0.10216635832E+01  0.10214209142E+01 0.  0.
     999903    2    3    3    0    0  0.43875387681E-01 -0.13959307926E-01 -0.11901639080E+00  0.12918847756E+00  0.20120873088E-01 0.  0.
         14    1    1    2    0    0  0.11210512464E-02 -0.67352493412E-02 -0.21193701375E-01  0.22266416810E-01  0.00000000000E+00 0. -1.
     999901    1    3    3    0    0 -0.44996438927E-01  0.20694557267E-01  0.14021009218E+00  0.89247510563E+00  0.88000000000E+00 0.  1.
        -11    1    4    4    0    0  0.12923046593E-01  0.45151863786E-02 -0.41425559825E-01  0.43631756429E-01  0.51100000000E-03 0.  1.
         11    1    4    4    0    0  0.30952341087E-01 -0.18474494305E-01 -0.77590830976E-01  0.85556721133E-01  0.51100000000E-03 0. -1.
</event>
<event>
 8    1  0.1088088E+005  0.1043930E+01  0.7957747E-01            NaN
         13   -1    0    0    0    0  0.00000000000E+00  0.00000000000E+00  0.74505805969E-08  0.10566000000E+00  0.10566000000E+00 0.  1.
     999900   -1    0    0    0    0 -0.00000000000E+00 -0.00000000000E+00 -0.74505805969E-08  0.93827000000E+00  0.93827000000E+00 0. -1.
     999902    2    1    2    0    0  0.74883986993E-02 -0.36987182167E-02  0.22463116031E-01  0.10199644369E+01  0.10196828450E+01 0.  0.
     999903    2    3    3    0    0  0.95448011485E-01  0.86339603223E-01  0.11327225459E-01  0.13093811512E+00  0.21251681661E-01 0.  0.
         14    1    1    2    0    0 -0.74883986993E-02  0.36987182167E-02 -0.22463116031E-01  0.23965563072E-01  0.00000000000E+00 0. -1.
     999901    1    3    3    0    0 -0.87959612786E-01 -0.90038321440E-01  0.11135890571E-01  0.88902632181E+00  0.88000000000E+00 0. -1.
        -11    1    4    4    0    0  0.16453309161E-01  0.26088644873E-01 -0.74223066629E-03  0.30856778850E-01  0.51100000000E-03 0.  1.
         11    1    4    4    0    0  0.78994702324E-01  0.60250958351E-01  0.12069456126E-01  0.10008133627E+00  0.51100000000E-03 0. -1.
</event>
<event>
 8    1  0.1088088E+005  0.1043930E+01  0.7957747E-01            NaN
         13   -1    0    0    0    0  0.00000000000E+00  0.00000000000E+00  0.74505805969E-08  0.10566000000E+00  0.10566000000E+00 0.  1.
     999900   -1    0    0    0    0 -0.00000000000E+00 -0.00000000000E+00 -0.74505805969E-08  0.93827000000E+00  0.93827000000E+00 0.  1.
     999902    2    1    2    0    0 -0.74164109633E-02 -0.20369199978E-01  0.68307063862E-02  0.10212019115E+01  0.10209489595E+01 0.  0.
     999903    2    3    3    0    0  0.73030077739E-01 -0.95484251629E-01 -0.51737115217E-01  0.13241391746E+00  0.20151473484E-01 0.  0.
         14    1    1    2    0    0  0.74164109633E-02  0.20369199978E-01 -0.68307063862E-02  0.22728088548E-01  0.00000000000E+00 0. -1.
     999901    1    3    3    0    0 -0.80446488702E-01  0.75115051651E-01  0.58567821603E-01  0.88878799399E+00  0.88000000000E+00 0. -1.
        -11    1    4    4    0    0  0.23367427321E-01 -0.27460497965E-01 -0.25609879425E-01  0.44229431980E-01  0.51100000000E-03 0. -1.
         11    1    4    4    0    0  0.49662650418E-01 -0.68023753664E-01 -0.26127235792E-01  0.88184485485E-01  0.51100000000E-03 0.  1.
</event>
<event>
 8    1  0.1088088E+005  0.1043930E+01  0.7957747E-01            NaN
         13   -1    0    0    0    0  0.00000000000E+00  0.00000000000E+00  0.74505805969E-08  0.10566000000E+00  0.10566000000E+00 0.  1.
     999900   -1    0    0    0    0 -0.00000000000E+00 -0.00000000000E+00 -0.74505805969E-08  0.93827000000E+00  0.93827000000E+00 0.  1.
     999902    2    1    2    0    0  0.58319633018E-04 -0.55623375973E-03 -0.22756897752E-01  0.10211662307E+01  0.10209124750E+01 0.  0.
     999903    2    3    3    0    0  0.10902471599E+00 -0.57545277902E-01  0.38715930341E-01  0.13049214032E+00  0.18205156333E-01 0.  0.
         14    1    1    2    0    0 -0.58319633018E-04  0.55623375973E-03  0.22756897752E-01  0.22763769294E-01  0.00000000000E+00 0.  1.
     999901    1    3    3    0    0 -0.10896639636E+00  0.56989044142E-01 -0.61472828093E-01  0.89067409038E+00  0.88000000000E+00 0.  1.
        -11    1    4    4    0    0  0.34933215381E-01 -0.17298755912E-01  0.21189286801E-01  0.44371426494E-01  0.51100000000E-03 0.  1.
         11    1    4    4    0    0  0.74091500613E-01 -0.40246521990E-01  0.17526643539E-01  0.86120713827E-01  0.51100000000E-03 0. -1.
</event>
<event>
 8    1  0.1088088E+005  0.1043930E+01  0.7957747E-01            NaN
         13   -1    0    0    0    0  0.00000000000E+00  0.00000000000E+00  0.74505805969E-08  0.10566000000E+00  0.10566000000E+00 0. -1.
     999900   -1    0    0    0    0 -0.00000000000E+00 -0.00000000000E+00 -0.74505805969E-08  0.93827000000E+00  0.93827000000E+00 0.  1.
     999902    2    1    2    0    0  0.22961025157E-01  0.62444361316E-03 -0.22906290210E-02  0.10208465517E+01  0.10205855361E+01 0.  0.
     999903    2    3    3    0    0  0.11887004729E+00 -0.20892926714E-01  0.53366363372E-01  0.13362660229E+00  0.21011843559E-01 0.  0.
         14    1    1    2    0    0 -0.22961025157E-01 -0.62444361316E-03  0.22906290210E-02  0.23083448343E-01  0.00000000000E+00 0. -1.
     999901    1    3    3    0    0 -0.95909022137E-01  0.21517370327E-01 -0.55656992393E-01  0.88721994937E+00  0.88000000000E+00 0.  1.
        -11    1    4    4    0    0  0.65871009193E-01 -0.20940425440E-01  0.35428192801E-01  0.77671804639E-01  0.51100000000E-03 0. -1.
         11    1    4    4    0    0  0.52999038101E-01  0.47498726495E-04  0.17938170571E-01  0.55954797652E-01  0.51100000000E-03 0.  1.
</event>
<event>
 8    1  0.1088088E+005  0.1043930E+01  0.7957747E-01            NaN
         13   -1    0    0    0    0  0.00000000000E+00  0.00000000000E+00  0.74505805969E-08  0.10566000000E+00  0.10566000000E+00 0.  1.
     999900   -1    0    0    0    0 -0.00000000000E+00 -0.00000000000E+00 -0.74505805969E-08  0.93827000000E+00  0.93827000000E+00 0. -1.
     999902    2    1    2    0    0 -0.10001034251E-01  0.19691682656E-01 -0.89850492341E-02  0.10200864650E+01  0.10198077671E+01 0.  0.
     999903    2    3    3    0    0 -0.93057649261E-01 -0.56991746638E-01 -0.69331965311E-01  0.13080557579E+00  0.19884465606E-01 0.  0.
         14    1    1    2    0    0  0.10001034251E-01 -0.19691682656E-01  0.89850492341E-02  0.23843535007E-01  0.00000000000E+00 0.  1.
     999901    1    3    3    0    0  0.83056615010E-01  0.76683429294E-01  0.60346916077E-01  0.88928088921E+00  0.88000000000E+00 0.  1.
        -11    1    4    4    0    0 -0.19276762428E-01 -0.21336593619E-01 -0.14511113609E-01  0.32212999490E-01  0.51100000000E-03 0. -1.
         11    1    4    4    0    0 -0.73780886833E-01 -0.35655153019E-01 -0.54820851702E-01  0.98592576298E-01  0.51100000000E-03 0.  1.
</event>
<event>
 8    1  0.1088088E+005  0.1043930E+01  0.7957747E-01            NaN
         13   -1    0    0    0    0  0.00000000000E+00  0.00000000000E+00  0.74505805969E-08  0.10566000000E+00  0.10566000000E+00 0. -1.
     999900   -1    0    0    0    0 -0.00000000000E+00 -0.00000000000E+00 -0.74505805969E-08  0.93827000000E+00  0.93827000000E+00 0. -1.
     999902    2    1    2    0    0  0.10458975301E-01  0.15008982248E-01  0.17920034187E-01  0.10183216549E+01  0.10179996098E+01 0.  0.
     999903    2    3    3    0    0  0.21784196924E-02  0.12911674691E+00 -0.18349063475E-02  0.13069594144E+00  0.20054485335E-01 0.  0.
         14    1    1    2    0    0 -0.10458975301E-01 -0.15008982248E-01 -0.17920034187E-01  0.25608345080E-01  0.00000000000E+00 0.  1.
     999901    1    3    3    0    0  0.82805556081E-02 -0.11410776466E+00  0.19754940534E-01  0.88762571348E+00  0.88000000000E+00 0.  1.
        -11    1    4    4    0    0 -0.38373747505E-02  0.66045364074E-01 -0.96398544130E-02  0.66857336730E-01  0.51100000000E-03 0.  1.
         11    1    4    4    0    0  0.60157944430E-02  0.63071382838E-01  0.78049480655E-02  0.63838604709E-01  0.51100000000E-03 0. -1.
</event>
<event>
 8    1  0.1088088E+005  0.1043930E+01  0.7957747E-01            NaN
         13   -1    0    0    0    0  0.00000000000E+00  0.00000000000E+00  0.74505805969E-08  0.10566000000E+00  0.10566000000E+00 0.  1.
     999900   -1    0    0    0    0 -0.00000000000E+00 -0.00000000000E+00 -0.74505805969E-08  0.93827000000E+00  0.93827000000E+00 0. -1.
     999902    2    1    2    0    0 -0.16912870916E-01 -0.47011254830E-02 -0.17903200787E-01  0.10188566998E+01  0.10185481355E+01 0.  0.
     999903    2    3    3    0    0  0.35218227421E-01  0.90637677695E-01 -0.83557901528E-01  0.12974608885E+00  0.19915132552E-01 0.  0.
         14    1    1    2    0    0  0.16912870916E-01  0.47011254830E-02  0.17903200787E-01  0.25073300179E-01  0.00000000000E+00 0.  1.
     999901    1    3    3    0    0 -0.52131098337E-01 -0.95338803178E-01  0.65654700741E-01  0.88911061097E+00  0.88000000000E+00 0.  1.
        -11    1    4    4    0    0  0.16581917042E-01  0.42058356199E-01 -0.26000859002E-01  0.52155259454E-01  0.51100000000E-03 0.  1.
         11    1    4    4    0    0  0.18636310380E-01  0.48579321496E-01 -0.57557042526E-01  0.77590829400E-01  0.51100000000E-03 0. -1.
</event>
<event>
 8    1  0.1088088E+005  0.1043930E+01  0.7957747E-01            NaN
         13   -1    0    0    0    0  0.00000000000E+00  0.00000000000E+00  0.74505805969E-08  0.10566000000E+00  0.10566000000E+00 0.  1.
     999900   -1    0    0    0    0 -0.00000000000E+00 -0.00000000000E+00 -0.74505805969E-08  0.93827000000E+00  0.93827000000E+00 0.  1.
     999902    2    1    2    0    0 -0.19247371821E-02  0.23335234519E-01  0.32724377424E-02  0.10202879478E+01  0.10200139949E+01 0.  0.
     999903    2    3    3    0    0 -0.35484780978E-01  0.12172744611E+00  0.38018649423E-01  0.13348774310E+00  0.17228436837E-01 0.  0.
         14    1    1    2    0    0  0.19247371821E-02 -0.23335234519E-01 -0.32724377424E-02  0.23642052196E-01  0.00000000000E+00 0.  1.
     999901    1    3    3    0    0  0.33560043795E-01 -0.98392211591E-01 -0.34746211681E-01  0.88680020471E+00  0.88000000000E+00 0.  1.
        -11    1    4    4    0    0 -0.22915525320E-01  0.48609779013E-01  0.14684032883E-01  0.55712780034E-01  0.51100000000E-03 0. -1.
         11    1    4    4    0    0 -0.12569255657E-01  0.73117667097E-01  0.23334616540E-01  0.77774963064E-01  0.51100000000E-03 0.  1.
</event>
<event>
 8    1  0.1088088E+005  0.1043930E+01  0.7957747E-01            NaN
         13   -1    0    0    0    0  0.00000000000E+00  0.00000000000E+00  0.74505805969E-08  0.10566000000E+00  0.10566000000E+00 0. -1.
     999900   -1    0    0    0    0 -0.00000000000E+00 -0.00000000000E+00 -0.74505805969E-08  0.93827000000E+00  0.93827000000E+00 0.  1.
     999902    2    1    2    0    0  0.13805190669E-01 -0.19218108918E-01 -0.34065878497E-02  0.10200234352E+01  0.10197432444E+01 0.  0.
     999903    2    3    3    0    0  0.11184883119E+00  0.18024910271E-01 -0.64110911462E-01  0.13171908824E+00  0.20115934198E-01 0.  0.
         14    1    1    2    0    0 -0.13805190669E-01  0.19218108918E-01  0.34065878497E-02  0.23906564800E-01  0.00000000000E+00 0. -1.
     999901    1    3    3    0    0 -0.98043640523E-01 -0.37243019188E-01  0.60704323612E-01  0.88830434696E+00  0.88000000000E+00 0. -1.
        -11    1    4    4    0    0  0.43590039602E-01  0.87547164775E-02 -0.14288021309E-01  0.46702733186E-01  0.51100000000E-03 0.  1.
         11    1    4    4    0    0  0.68258791590E-01  0.92701937934E-02 -0.49822890153E-01  0.85016355053E-01  0.51100000000E-03 0. -1.
</event>
<event>
 8    1  0.1088088E+005  0.1043930E+01  0.7957747E-01            NaN
         13   -1    0    0    0    0  0.00000000000E+00  0.00000000000E+00  0.74505805969E-08  0.10566000000E+00  0.10566000000E+00 0.  1.
     999900   -1    0    0    0    0 -0.00000000000E+00 -0.00000000000E+00 -0.74505805969E-08  0.93827000000E+00  0.93827000000E+00 0. -1.
     999902    2    1    2    0    0 -0.19914809818E-01  0.99856953086E-02  0.67966024790E-02  0.10206382082E+01  0.10203724048E+01 0.  0.
     999903    2    3    3    0    0 -0.38609179287E-01 -0.86506551562E-01 -0.87043018321E-01  0.13020791468E+00  0.20088848099E-01 0.  0.
         14    1    1    2    0    0  0.19914809818E-01 -0.99856953086E-02 -0.67966024790E-02  0.23291791819E-01  0.00000000000E+00 0. -1.
     999901    1    3    3    0    0  0.18694369470E-01  0.96492246871E-01  0.93839620800E-01  0.89043029350E+00  0.88000000000E+00 0.  1.
        -11    1    4    4    0    0 -0.26105143081E-01 -0.75489348171E-01 -0.68043148131E-01  0.10492974464E+00  0.51100000000E-03 0. -1.
         11    1    4    4    0    0 -0.12504036206E-01 -0.11017203391E-01 -0.18999870190E-01  0.25278170033E-01  0.51100000000E-03 0.  1.
</event>
<event>
 8    1  0.1088088E+005  0.1043930E+01  0.7957747E-01            NaN
         13   -1    0    0    0    0  0.00000000000E+00  0.00000000000E+00  0.74505805969E-08  0.10566000000E+00  0.10566000000E+00 0. -1.
     999900   -1    0    0    0    0 -0.00000000000E+00 -0.00000000000E+00 -0.74505805969E-08  0.93827000000E+00  0.93827000000E+00 0. -1.
     999902    2    1    2    0    0  0.10329877710E-01 -0.92381616394E-02  0.19904336955E-01  0.10196764923E+01  0.10193880107E+01 0.  0.
     999903    2    3    3    0    0  0.26198873278E-01  0.12455382741E+00  0.10896613506E-01  0.12937695824E+00  0.20484732219E-01 0.  0.
         14    1    1    2    0    0 -0.10329877710E-01  0.92381616394E-02 -0.19904336955E-01  0.24253507655E-01  0.00000000000E+00 0.  1.
     999901    1    3    3    0    0 -0.15868995568E-01 -0.13379198904E+00  0.90077234482E-02  0.89029953411E+00  0.88000000000E+00 0.  1.
        -11    1    4    4    0    0  0.15404260825E-01  0.41508319021E-01  0.11032196099E-01  0.45631154612E-01  0.51100000000E-03 0. -1.
         11    1    4    4    0    0  0.10794612453E-01  0.83045508385E-01 -0.13558259298E-03  0.83745803623E-01  0.51100000000E-03 0.  1.
</event>
<event>
 8    1  0.1088088E+005  0.1043930E+01  0.7957747E-01            NaN
         13   -1    0    0    0    0  0.00000000000E+00  0.00000000000E+00  0.74505805969E-08  0.10566000000E+00  0.10566000000E+00 0.  1.
     999900   -1    0    0    0    0 -0.00000000000E+00 -0.00000000000E+00 -0.74505805969E-08  0.93827000000E+00  0.93827000000E+00 0. -1.
     999902    2    1    2    0    0  0.77236818955E-02 -0.20039469316E-01  0.39106423679E-02  0.10221004623E+01  0.10218673232E+01 0.  0.
     999903    2    3    3    0    0 -0.91416840097E-01 -0.78800087870E-01 -0.51687969972E-01  0.13284635965E+00  0.20248864899E-01 0.  0.
         14    1    1    2    0    0 -0.77236818955E-02  0.20039469316E-01 -0.39106423679E-02  0.21829537700E-01  0.00000000000E+00 0. -1.
     999901    1    3    3    0    0  0.99140521992E-01  0.58760618554E-01  0.55598612340E-01  0.88925410265E+00  0.88000000000E+00 0.  1.
        -11    1    4    4    0    0 -0.67917737726E-01 -0.46085893302E-01 -0.33635453331E-01  0.88703627327E-01  0.51100000000E-03 0. -1.
         11    1    4    4    0    0 -0.23499102371E-01 -0.32714194568E-01 -0.18052516641E-01  0.44142732318E-01  0.51100000000E-03 0.  1.
</event>
<event>
 8    1  0.1088088E+005  0.1043930E+01  0.7957747E-01            NaN
         13   -1    0    0    0    0  0.00000000000E+00  0.00000000000E+00  0.74505805969E-08  0.10566000000E+00  0.10566000000E+00 0. -1.
     999900   -1    0    0    0    0 -0.00000000000E+00 -0.00000000000E+00 -0.74505805969E-08  0.93827000000E+00  0.93827000000E+00 0. -1.
     999902    2    1    2    0    0  0.17675933504E-01 -0.47811971178E-02  0.15610218157E-01  0.10198680512E+01  0.10195841625E+01 0.  0.
     999903    2    3    3    0    0  0.43472435576E-01 -0.48934415756E-01  0.11395284246E+00  0.13291470515E+00  0.19915793738E-01 0.  0.
         14    1    1    2    0    0 -0.17675933504E-01  0.47811971178E-02 -0.15610218157E-01  0.24061948841E-01  0.00000000000E+00 0. -1.
     999901    1    3    3    0    0 -0.25796502073E-01  0.44153218638E-01 -0.98342624307E-01  0.88695334601E+00  0.88000000000E+00 0. -1.
        -11    1    4    4    0    0  0.37291005462E-01 -0.49048183258E-01  0.97575736156E-01  0.11540203108E+00  0.51100000000E-03 0. -1.
         11    1    4    4    0    0  0.61814301146E-02  0.11376750240E-03  0.16377106308E-01  0.17512674077E-01  0.51100000000E-03 0.  1.
</event>
<event>
 7    1  0.1088088E+005  0.1043930E+01  0.7957747E-01            NaN
         13   -1    0    0    0    0  0.00000000000E+00  0.00000000000E+00  0.74505805969E-08  0.10566000000E+00  0.10566000000E+00 0. -1.
     999900   -1    0    0    0    0 -0.00000000000E+00 -0.00000000000E+00 -0.74505805969E-08  0.93827000000E+00  0.93827000000E+00 0.  1.
     999903    2    1    2    0    0  0.81240887091E-01 -0.13823540052E-01 -0.69137112783E-01  0.10946305089E+00  0.20274297792E-01 0.  0.
         14    1    1    2    0    0 -0.47703498758E-01  0.12907813805E-01 -0.94994033954E-02  0.50323693385E-01  0.00000000000E+00 0. -1.
     999901    1    1    2    0    0 -0.33537388333E-01  0.91572624695E-03  0.78636516178E-01  0.88414325573E+00  0.88000000000E+00 0. -1.
        -11    1    3    3    0    0  0.65403080795E-01 -0.26297079156E-02 -0.53916190235E-01  0.84803862127E-01  0.51100000000E-03 0.  1.
         11    1    3    3    0    0  0.15837806296E-01 -0.11193832136E-01 -0.15220922547E-01  0.24659188761E-01  0.51100000000E-03 0. -1.
</event>
<event>
 7    1  0.1387562E+005  0.1043930E+01  0.7957747E-01            NaN
         13   -1    0    0    0    0  0.00000000000E+00  0.00000000000E+00  0.74505805969E-08  0.10566000000E+00  0.10566000000E+00 0. -1.
     999900   -1    0    0    0    0 -0.00000000000E+00 -0.00000000000E+00 -0.74505805969E-08  0.93827000000E+00  0.93827000000E+00 0. -1.
     999903    2    1    2    0    0  0.43350702094E-02 -0.61004966465E-01  0.21301563298E-01  0.67674807856E-01  0.19639863857E-01 0.  0.
         14    1    1    2    0    0  0.33763923237E-01 -0.59506681172E-01  0.49444703346E-01  0.84414609550E-01  0.00000000000E+00 0. -1.
     999901    1    1    2    0    0 -0.38098993447E-01  0.12051164764E+00 -0.70746266643E-01  0.89184058259E+00  0.88000000000E+00 0. -1.
        -11    1    3    3    0    0 -0.10952628755E-02 -0.38742445605E-01  0.22325446049E-01  0.44731011105E-01  0.51100000000E-03 0.  1.
         11    1    3    3    0    0  0.54303330849E-02 -0.22262520860E-01 -0.10238827514E-02  0.22943796751E-01  0.51100000000E-03 0. -1.
</event>
<event>
 8    1  0.1088088E+005  0.1043930E+01  0.7957747E-01            NaN
         13   -1    0    0    0    0  0.00000000000E+00  0.00000000000E+00  0.74505805969E-08  0.10566000000E+00  0.10566000000E+00 0. -1.
     999900   -1    0    0    0    0 -0.00000000000E+00 -0.00000000000E+00 -0.74505805969E-08  0.93827000000E+00  0.93827000000E+00 0.  1.
     999902    2    1    2    0    0  0.40726060243E-03  0.17125396417E-01 -0.15397922595E-01  0.10208965225E+01  0.10206366487E+01 0.  0.
     999903    2    3    3    0    0  0.52558900388E-01  0.31456459465E-01 -0.11678074088E+00  0.13342615755E+00  0.20318740744E-01 0.  0.
         14    1    1    2    0    0 -0.40726060243E-03 -0.17125396417E-01  0.15397922595E-01  0.23033477460E-01  0.00000000000E+00 0.  1.
     999901    1    3    3    0    0 -0.52151639785E-01 -0.14331063047E-01  0.10138281828E+00  0.88747036499E+00  0.88000000000E+00 0. -1.
        -11    1    4    4    0    0  0.38003798539E-01  0.23337836270E-01 -0.10125676908E+00  0.11064419420E+00  0.51100000000E-03 0.  1.
         11    1    4    4    0    0  0.14555101849E-01  0.81186231946E-02 -0.15523971798E-01  0.22781963344E-01  0.51100000000E-03 0. -1.
</event>
<event>
 8    1  0.1088088E+005  0.1043930E+01  0.7957747E-01            NaN
         13   -1    0    0    0    0  0.00000000000E+00  0.00000000000E+00  0.74505805969E-08  0.10566000000E+00  0.10566000000E+00 0. -1.
     999900   -1    0    0    0    0 -0.00000000000E+00 -0.00000000000E+00 -0.74505805969E-08  0.93827000000E+00  0.93827000000E+00 0.  1.
     999902    2    1    2    0    0  0.23586005955E-01  0.16348311361E-04  0.29562136247E-02  0.10201594480E+01  0.10198824737E+01 0.  0.
     999903    2    3    3    0    0  0.71716139454E-01 -0.10651828747E+00  0.22622470683E-01  0.13221074449E+00  0.21875889830E-01 0.  0.
         14    1    1    2    0    0 -0.23586005955E-01 -0.16348311361E-04 -0.29562136247E-02  0.23770552016E-01  0.00000000000E+00 0. -1.
     999901    1    3    3    0    0 -0.48130133500E-01  0.10653463578E+00 -0.19666257058E-01  0.88794870349E+00  0.88000000000E+00 0. -1.
        -11    1    4    4    0    0  0.37413700338E-01 -0.74294093005E-01  0.15205014228E-01  0.84562703404E-01  0.51100000000E-03 0. -1.
         11    1    4    4    0    0  0.34302439117E-01 -0.32224194461E-01  0.74174564546E-02  0.47648041085E-01  0.51100000000E-03 0.  1.
</event>
<event>
 8    1  0.1088088E+005  0.1043930E+01  0.7957747E-01            NaN
         13   -1    0    0    0    0  0.00000000000E+00  0.00000000000E+00  0.74505805969E-08  0.10566000000E+00  0.10566000000E+00 0.  1.
     999900   -1    0    0    0    0 -0.00000000000E+00 -0.00000000000E+00 -0.74505805969E-08  0.93827000000E+00  0.93827000000E+00 0.  1.
     999902    2    1    2    0    0  0.24331426859E-01  0.71853334666E-02 -0.15453060843E-01  0.10142240336E+01  0.10137889060E+01 0.  0.
     999903    2    3    3    0    0  0.68741683112E-01  0.37394657342E-01 -0.99719177403E-01  0.12856854048E+00  0.21498275825E-01 0.  0.
         14    1    1    2    0    0 -0.24331426859E-01 -0.71853334666E-02  0.15453060843E-01  0.29705966395E-01  0.00000000000E+00 0.  1.
     999901    1    3    3    0    0 -0.44410256253E-01 -0.30209323875E-01  0.84266116560E-01  0.88565549313E+00  0.88000000000E+00 0. -1.
        -11    1    4    4    0    0  0.24274613119E-01  0.25096427069E-01 -0.39886451334E-01  0.53012051599E-01  0.51100000000E-03 0. -1.
         11    1    4    4    0    0  0.44467069993E-01  0.12298230273E-01 -0.59832726068E-01  0.75556488877E-01  0.51100000000E-03 0.  1.
</event>
<event>
 8    1  0.1088088E+005  0.1043930E+01  0.7957747E-01            NaN
         13   -1    0    0    0    0  0.00000000000E+00  0.00000000000E+00  0.74505805969E-08  0.10566000000E+00  0.10566000000E+00 0.  1.
     999900   -1    0    0    0    0 -0.00000000000E+00 -0.00000000000E+00 -0.74505805969E-08  0.93827000000E+00  0.93827000000E+00 0. -1.
     999902    2    1    2    0    0  0.16592146768E-01 -0.13441096736E-01  0.85811386104E-02  0.10209169959E+01  0.10206575891E+01 0.  0.
     999903    2    3    3    0    0  0.10364889314E+00 -0.59527193152E-01  0.57239246171E-01  0.13408532262E+00  0.20395162861E-01 0.  0.
         14    1    1    2    0    0 -0.16592146768E-01  0.13441096736E-01 -0.85811386104E-02  0.23013004057E-01  0.00000000000E+00 0. -1.
     999901    1    3    3    0    0 -0.87056746367E-01  0.46086096416E-01 -0.48658107561E-01  0.88683167332E+00  0.88000000000E+00 0. -1.
        -11    1    4    4    0    0  0.70712714204E-01 -0.32905229129E-01  0.44786024203E-01  0.89939374798E-01  0.51100000000E-03 0.  1.
         11    1    4    4    0    0  0.32936178931E-01 -0.26621964024E-01  0.12453221968E-01  0.44145947826E-01  0.51100000000E-03 0. -1.
</event>
<event>
 8    1  0.1088088E+005  0.1043930E+01  0.7957747E-01            NaN
         13   -1    0    0    0    0  0.00000000000E+00  0.00000000000E+00  0.74505805969E-08  0.10566000000E+00  0.10566000000E+00 0.  1.
     999900   -1    0    0    0    0 -0.00000000000E+00 -0.00000000000E+00 -0.74505805969E-08  0.93827000000E+00  0.93827000000E+00 0. -1.
     999902    2    1    2    0    0  0.54832772342E-02 -0.20350108868E-01 -0.16025206964E-01  0.10174535856E+01  0.10171090396E+01 0.  0.
     999903    2    3    3    0    0  0.33095468764E-01  0.47928284695E-01  0.10941417779E+00  0.12551221345E+00  0.19733800862E-01 0.  0.
         14    1    1    2    0    0 -0.54832772342E-02  0.20350108868E-01  0.16025206964E-01  0.26476414380E-01  0.00000000000E+00 0.  1.
     999901    1    3    3    0    0 -0.27612191529E-01 -0.68278393563E-01 -0.12543938475E+00  0.89194137217E+00  0.88000000000E+00 0. -1.
        -11    1    4    4    0    0  0.21245328916E-01  0.14044664787E-01  0.49376300034E-01  0.55559848234E-01  0.51100000000E-03 0. -1.
         11    1    4    4    0    0  0.11850139848E-01  0.33883619908E-01  0.60037877755E-01  0.69952365212E-01  0.51100000000E-03 0.  1.
</event>
<event>
 8    1  0.1088088E+005  0.1043930E+01  0.7957747E-01            NaN
         13   -1    0    0    0    0  0.00000000000E+00  0.00000000000E+00  0.74505805969E-08  0.10566000000E+00  0.10566000000E+00 0.  1.
     999900   -1    0    0    0    0 -0.00000000000E+00 -0.00000000000E+00 -0.74505805969E-08  0.93827000000E+00  0.93827000000E+00 0.  1.
     999902    2    1    2    0    0 -0.55423506926E-02 -0.21170098583E-01 -0.93881348214E-02  0.10201176544E+01  0.10198396938E+01 0.  0.
     999903    2    3    3    0    0 -0.67985643207E-01  0.65042968841E-01 -0.87646340387E-01  0.13025462875E+00  0.20778639242E-01 0.  0.
         14    1    1    2    0    0  0.55423506926E-02  0.21170098583E-01  0.93881348214E-02  0.23812345551E-01  0.00000000000E+00 0. -1.
     999901    1    3    3    0    0  0.62443292514E-01 -0.86213067424E-01  0.78258205565E-01  0.88986302570E+00  0.88000000000E+00 0. -1.
        -11    1    4    4    0    0 -0.56222186265E-01  0.46610244903E-01 -0.76281620624E-01  0.10560585175E+00  0.51100000000E-03 0. -1.
         11    1    4    4    0    0 -0.11763456941E-01  0.18432723939E-01 -0.11364719763E-01  0.24648776994E-01  0.51100000000E-03 0.  1.
</event>
<event>
 8    1  0.1088088E+005  0.1043930E+01  0.7957747E-01            NaN
         13   -1    0    0    0    0  0.00000000000E+00  0.00000000000E+00  0.74505805969E-08  0.10566000000E+00  0.10566000000E+00 0.  1.
     999900   -1    0    0    0    0 -0.00000000000E+00 -0.00000000000E+00 -0.74505805969E-08  0.93827000000E+00  0.93827000000E+00 0.  1.
     999902    2    1    2    0    0  0.13128108521E-01  0.10474663141E-01  0.15157372598E-01  0.10213067433E+01  0.10210561454E+01 0.  0.
     999903    2    3    3    0    0  0.11155650090E+00  0.50240704333E-01  0.51217965937E-01  0.13419353017E+00  0.20387305819E-01 0.  0.
         14    1    1    2    0    0 -0.13128108521E-01 -0.10474663141E-01 -0.15157372598E-01  0.22623256735E-01  0.00000000000E+00 0. -1.
     999901    1    3    3    0    0 -0.98428392382E-01 -0.39766041192E-01 -0.36060593339E-01  0.88711321310E+00  0.88000000000E+00 0.  1.
        -11    1    4    4    0    0  0.10719549497E+00  0.51868005118E-01  0.47480863733E-01  0.12820240887E+00  0.51100000000E-03 0. -1.
         11    1    4    4    0    0  0.43610059290E-02 -0.16273007842E-02  0.37371022033E-02  0.59911213001E-02  0.51100000000E-03 0.  1.
</event>
<event>
 8    1  0.1088088E+005  0.1043930E+01  0.7957747E-01            NaN
         13   -1    0    0    0    0  0.00000000000E+00  0.00000000000E+00  0.74505805969E-08  0.10566000000E+00  0.10566000000E+00 0. -1.
     999900   -1    0    0    0    0 -0.00000000000E+00 -0.00000000000E+00 -0.74505805969E-08  0.93827000000E+00  0.93827000000E+00 0. -1.
     999902    2    1    2    0    0 -0.10562545408E-01  0.13514001328E-01 -0.15250516676E-01  0.10209784454E+01  0.10207204378E+01 0.  0.
     999903    2    3    3    0    0 -0.94959220663E-01 -0.58034272604E-01 -0.68699831435E-01  0.13244100474E+00  0.20873967308E-01 0.  0.
         14    1    1    2    0    0  0.10562545408E-01 -0.13514001328E-01  0.15250516676E-01  0.22951554551E-01  0.00000000000E+00 0. -1.
     999901    1    3    3    0    0  0.84396675256E-01  0.71548273933E-01  0.53449314759E-01  0.88853744071E+00  0.88000000000E+00 0.  1.
        -11    1    4    4    0    0 -0.57330570314E-01 -0.24341614620E-01 -0.32158401582E-01  0.70098020002E-01  0.51100000000E-03 0. -1.
         11    1    4    4    0    0 -0.37628650349E-01 -0.33692657985E-01 -0.36541429853E-01  0.62342984737E-01  0.51100000000E-03 0.  1.
</event>
<event>
 8    1  0.1088088E+005  0.1043930E+01  0.7957747E-01            NaN
         13   -1    0    0    0    0  0.00000000000E+00  0.00000000000E+00  0.74505805969E-08  0.10566000000E+00  0.10566000000E+00 0. -1.
     999900   -1    0    0    0    0 -0.00000000000E+00 -0.00000000000E+00 -0.74505805969E-08  0.93827000000E+00  0.93827000000E+00 0. -1.
     999902    2    1    2    0    0  0.15937233062E-01 -0.87534335360E-02 -0.15753220401E-01  0.10198721125E+01  0.10195883208E+01 0.  0.
     999903    2    3    3    0    0  0.11371790095E+00 -0.13140778217E-01  0.61024271864E-01  0.13112294031E+00  0.19100331690E-01 0.  0.
         14    1    1    2    0    0 -0.15937233062E-01  0.87534335360E-02  0.15753220401E-01  0.24057887467E-01  0.00000000000E+00 0. -1.
     999901    1    3    3    0    0 -0.97780667889E-01  0.43873446805E-02 -0.76777492265E-01  0.88874917222E+00  0.88000000000E+00 0. -1.
        -11    1    4    4    0    0  0.58889594076E-02 -0.51275855800E-02  0.55651834478E-02  0.96023103779E-02  0.51100000000E-03 0.  1.
         11    1    4    4    0    0  0.10782894154E+00 -0.80131926365E-02  0.55459088416E-01  0.12152062993E+00  0.51100000000E-03 0. -1.
</event>
<event>
 8    1  0.1088088E+005  0.1043930E+01  0.7957747E-01            NaN
         13   -1    0    0    0    0  0.00000000000E+00  0.00000000000E+00  0.74505805969E-08  0.10566000000E+00  0.10566000000E+00 0.  1.
     999900   -1    0    0    0    0 -0.00000000000E+00 -0.00000000000E+00 -0.74505805969E-08  0.93827000000E+00  0.93827000000E+00 0. -1.
     999902    2    1    2    0    0  0.49130481061E-02  0.21764010851E-01  0.88931514981E-02  0.10199112916E+01  0.10196284345E+01 0.  0.
     999903    2    3    3    0    0  0.30022332957E-01  0.88927969602E-01 -0.90093711995E-01  0.13146327810E+00  0.18873057334E-01 0.  0.
         14    1    1    2    0    0 -0.49130481061E-02 -0.21764010851E-01 -0.88931514981E-02  0.24018708408E-01  0.00000000000E+00 0. -1.
     999901    1    3    3    0    0 -0.25109284851E-01 -0.67163958751E-01  0.98986863493E-01  0.88844801350E+00  0.88000000000E+00 0.  1.
        -11    1    4    4    0    0  0.65575768899E-02  0.29651787635E-01 -0.40860955758E-01  0.50912760199E-01  0.51100000000E-03 0.  1.
         11    1    4    4    0    0  0.23464756067E-01  0.59276181967E-01 -0.49232756237E-01  0.80550517897E-01  0.51100000000E-03 0. -1.
</event>
<event>
 8    1  0.1417244E+005  0.1043930E+01  0.7957747E-01            NaN
         13   -1    0    0    0    0  0.00000000000E+00  0.00000000000E+00  0.74505805969E-08  0.10566000000E+00  0.10566000000E+00 0.  1.
     999900   -1    0    0    0    0 -0.00000000000E+00 -0.00000000000E+00 -0.74505805969E-08  0.93827000000E+00  0.93827000000E+00 0. -1.
     999902    2    1    2    0    0  0.18343954127E-02 -0.11740317844E-02 -0.23252270252E-01  0.10205759548E+01  0.10203087121E+01 0.  0.
     999903    2    3    3    0    0 -0.83651082669E-01  0.53841161719E-02 -0.10165285160E+00  0.13294009056E+00  0.17699522620E-01 0.  0.
         14    1    1    2    0    0 -0.18343954127E-02  0.11740317844E-02  0.23252270252E-01  0.23354045239E-01  0.00000000000E+00 0.  1.
     999901    1    3    3    0    0  0.85485478082E-01 -0.65581479563E-02  0.78400581343E-01  0.88763586420E+00  0.88000000000E+00 0.  1.
        -11    1    4    4    0    0 -0.46926408379E-01  0.11633456161E-01 -0.60003115766E-01  0.77058809543E-01  0.51100000000E-03 0. -1.
         11    1    4    4    0    0 -0.36724674290E-01 -0.62493399886E-02 -0.41649735829E-01  0.55881281013E-01  0.51100000000E-03 0.  1.
</event>
<event>
 8    1  0.1088088E+005  0.1043930E+01  0.7957747E-01            NaN
         13   -1    0    0    0    0  0.00000000000E+00  0.00000000000E+00  0.74505805969E-08  0.10566000000E+00  0.10566000000E+00 0. -1.
     999900   -1    0    0    0    0 -0.00000000000E+00 -0.00000000000E+00 -0.74505805969E-08  0.93827000000E+00  0.93827000000E+00 0. -1.
     999902    2    1    2    0    0  0.18017396300E-01  0.22269497686E-01  0.50941723284E-02  0.10148351948E+01  0.10144180425E+01 0.  0.
     999903    2    3    3    0    0 -0.57847613610E-01  0.10008531856E+00 -0.47587502630E-01  0.12658626542E+00  0.19902130413E-01 0.  0.
         14    1    1    2    0    0 -0.18017396300E-01 -0.22269497686E-01 -0.50941723284E-02  0.29094805177E-01  0.00000000000E+00 0. -1.
     999901    1    3    3    0    0  0.75865009910E-01 -0.77815820874E-01  0.52681674958E-01  0.88824892940E+00  0.88000000000E+00 0.  1.
        -11    1    4    4    0    0 -0.49288510206E-01  0.89273981908E-01 -0.48155336160E-01  0.11277587777E+00  0.51100000000E-03 0. -1.
         11    1    4    4    0    0 -0.85591034040E-02  0.10811336652E-01  0.56783352961E-03  0.13810387656E-01  0.51100000000E-03 0.  1.
</event>
<event>
 8    1  0.1088088E+005  0.1043930E+01  0.7957747E-01            NaN
         13   -1    0    0    0    0  0.00000000000E+00  0.00000000000E+00  0.74505805969E-08  0.10566000000E+00  0.10566000000E+00 0.  1.
     999900   -1    0    0    0    0 -0.00000000000E+00 -0.00000000000E+00 -0.74505805969E-08  0.93827000000E+00  0.93827000000E+00 0. -1.
     999902    2    1    2    0    0  0.19283696626E-01 -0.14618877311E-01 -0.25759313508E-02  0.10195946769E+01  0.10193042221E+01 0.  0.
     999903    2    3    3    0    0 -0.11182546403E+00 -0.64357094961E-02  0.52737347319E-01  0.12812614964E+00  0.32995903674E-01 0.  0.
         14    1    1    2    0    0 -0.19283696626E-01  0.14618877311E-01  0.25759313508E-02  0.24335323127E-01  0.00000000000E+00 0. -1.
     999901    1    3    3    0    0  0.13110916065E+00 -0.81831678146E-02 -0.55313278670E-01  0.89146852723E+00  0.88000000000E+00 0.  1.
        -11    1    4    4    0    0 -0.83312073833E-01 -0.54965461004E-02  0.54218827134E-01  0.99554286709E-01  0.51100000000E-03 0.  1.
         11    1    4    4    0    0 -0.28513390192E-01 -0.93916339571E-03 -0.14814798149E-02  0.28571862935E-01  0.51100000000E-03 0. -1.
</event>
<event>
 8    1  0.1088088E+005  0.1043930E+01  0.7957747E-01            NaN
         13   -1    0    0    0    0  0.00000000000E+00  0.00000000000E+00  0.74505805969E-08  0.10566000000E+00  0.10566000000E+00 0.  1.
     999900   -1    0    0    0    0 -0.00000000000E+00 -0.00000000000E+00 -0.74505805969E-08  0.93827000000E+00  0.93827000000E+00 0. -1.
     999902    2    1    2    0    0 -0.22493559755E-01  0.53808648232E-02 -0.55108012696E-02  0.10201543219E+01  0.10198772268E+01 0.  0.
     999903    2    3    3    0    0  0.55302740646E-01 -0.23052990651E-01  0.11170981480E+00  0.12852579989E+00  0.21212378787E-01 0.  0.
         14    1    1    2    0    0  0.22493559755E-01 -0.53808648232E-02  0.55108012696E-02  0.23775678063E-01  0.00000000000E+00 0.  1.
     999901    1    3    3    0    0 -0.77796300401E-01  0.28433855475E-01 -0.11722061607E+00  0.89162852205E+00  0.88000000000E+00 0. -1.
        -11    1    4    4    0    0  0.16457074959E-01 -0.17491629468E-02  0.15846916339E-01  0.22919004465E-01  0.51100000000E-03 0.  1.
         11    1    4    4    0    0  0.38845665687E-01 -0.21303827705E-01  0.95862898463E-01  0.10560679543E+00  0.51100000000E-03 0. -1.
</event>
<event>
 8    1  0.1088088E+005  0.1043930E+01  0.7957747E-01            NaN
         13   -1    0    0    0    0  0.00000000000E+00  0.00000000000E+00  0.74505805969E-08  0.10566000000E+00  0.10566000000E+00 0. -1.
     999900   -1    0    0    0    0 -0.00000000000E+00 -0.00000000000E+00 -0.74505805969E-08  0.93827000000E+00  0.93827000000E+00 0.  1.
     999902    2    1    2    0    0  0.10850862197E-01 -0.25440046460E-01 -0.10571755739E-01  0.10143208934E+01  0.10138886406E+01 0.  0.
     999903    2    3    3    0    0  0.86258065426E-02 -0.49065897904E-01  0.11327562874E+00  0.12533196975E+00  0.19871278244E-01 0.  0.
         14    1    1    2    0    0 -0.10850862197E-01  0.25440046460E-01  0.10571755739E-01  0.29609106601E-01  0.00000000000E+00 0. -1.
     999901    1    3    3    0    0  0.22250556545E-02  0.23625851444E-01 -0.12384738448E+00  0.88898892365E+00  0.88000000000E+00 0.  1.
        -11    1    4    4    0    0  0.12271220804E-01 -0.32999431095E-01  0.60041934781E-01  0.69604887514E-01  0.51100000000E-03 0. -1.
         11    1    4    4    0    0 -0.36454142615E-02 -0.16066466809E-01  0.53233693960E-01  0.55727082235E-01  0.51100000000E-03 0.  1.
</event>
<event>
 8    1  0.1088088E+005  0.1043930E+01  0.7957747E-01            NaN
         13   -1    0    0    0    0  0.00000000000E+00  0.00000000000E+00  0.74505805969E-08  0.10566000000E+00  0.10566000000E+00 0.  1.
     999900   -1    0    0    0    0 -0.00000000000E+00 -0.00000000000E+00 -0.74505805969E-08  0.93827000000E+00  0.93827000000E+00 0.  1.
     999902    2    1    2    0    0 -0.13374557128E-01 -0.16855563543E-01  0.16003231625E-01  0.10171141050E+01  0.10167605472E+01 0.  0.
     999903    2    3    3    0    0  0.25702962322E-01  0.88352278377E-01  0.85668436066E-01  0.12725513685E+00  0.19698262649E-01 0.  0.
         14    1    1    2    0    0  0.13374557128E-01  0.16855563543E-01 -0.16003231625E-01  0.26815894972E-01  0.00000000000E+00 0. -1.
     999901    1    3    3    0    0 -0.39077519450E-01 -0.10520784192E+00 -0.69665204441E-01  0.88985896817E+00  0.88000000000E+00 0. -1.
        -11    1    4    4    0    0  0.27505676661E-01  0.64934810993E-01  0.61872855824E-01  0.93816860618E-01  0.51100000000E-03 0.  1.
         11    1    4    4    0    0 -0.18027143393E-02  0.23417467384E-01  0.23795580242E-01  0.33438276237E-01  0.51100000000E-03 0. -1.
</event>
<event>
 8    1  0.1088088E+005  0.1043930E+01  0.7957747E-01            NaN
         13   -1    0    0    0    0  0.00000000000E+00  0.00000000000E+00  0.74505805969E-08  0.10566000000E+00  0.10566000000E+00 0. -1.
     999900   -1    0    0    0    0 -0.00000000000E+00 -0.00000000000E+00 -0.74505805969E-08  0.93827000000E+00  0.93827000000E+00 0. -1.
     999902    2    1    2    0    0  0.21746871228E-01 -0.37228593905E-02  0.98683489470E-02  0.10197603827E+01  0.10194739171E+01 0.  0.
     999903    2    3    3    0    0  0.16640699107E-01  0.37275396814E-01  0.12325334772E+00  0.13152444108E+00  0.20998161903E-01 0.  0.
         14    1    1    2    0    0 -0.21746871228E-01  0.37228593905E-02 -0.98683489470E-02  0.24169617316E-01  0.00000000000E+00 0.  1.
     999901    1    3    3    0    0  0.51061721217E-02 -0.40998256204E-01 -0.11338499877E+00  0.88823594160E+00  0.88000000000E+00 0. -1.
        -11    1    4    4    0    0  0.19535398072E-01  0.27278899826E-01  0.75089127850E-01  0.82246023587E-01  0.51100000000E-03 0. -1.
         11    1    4    4    0    0 -0.28946989656E-02  0.99964969878E-02  0.48164219871E-01  0.49278417496E-01  0.51100000000E-03 0.  1.
</event>
<event>
 8    1  0.1088088E+005  0.1043930E+01  0.7957747E-01            NaN
         13   -1    0    0    0    0  0.00000000000E+00  0.00000000000E+00  0.74505805969E-08  0.10566000000E+00  0.10566000000E+00 0. -1.
     999900   -1    0    0    0    0 -0.00000000000E+00 -0.00000000000E+00 -0.74505805969E-08  0.93827000000E+00  0.93827000000E+00 0.  1.
     999902    2    1    2    0    0 -0.11059978429E-01 -0.10250988306E-01  0.17026637788E-01  0.10211855000E+01  0.10209321786E+01 0.  0.
     999903    2    3    3    0    0 -0.13101063017E+00  0.41346731761E-02 -0.11398780702E-02  0.13274578435E+00  0.20958606903E-01 0.  0.
         14    1    1    2    0    0  0.11059978429E-01  0.10250988306E-01 -0.17026637788E-01  0.22744499960E-01  0.00000000000E+00 0.  1.
     999901    1    3    3    0    0  0.11995065174E+00 -0.14385661482E-01  0.18166515858E-01  0.88843971569E+00  0.88000000000E+00 0.  1.
        -11    1    4    4    0    0 -0.40283020558E-01 -0.48133431297E-02  0.71593201223E-02  0.41199599549E-01  0.51100000000E-03 0.  1.
         11    1    4    4    0    0 -0.90727609607E-01  0.89480163059E-02 -0.82991981925E-02  0.91546184806E-01  0.51100000000E-03 0. -1.
</event>
<event>
 8    1  0.1088088E+005  0.1043930E+01  0.7957747E-01            NaN
         13   -1    0    0    0    0  0.00000000000E+00  0.00000000000E+00  0.74505805969E-08  0.10566000000E+00  0.10566000000E+00 0. -1.
     999900   -1    0    0    0    0 -0.00000000000E+00 -0.00000000000E+00 -0.74505805969E-08  0.93827000000E+00  0.93827000000E+00 0. -1.
     999902    2    1    2    0    0  0.13772756062E-01 -0.66699092098E-02  0.16802933657E-01  0.10212030319E+01  0.10209501052E+01 0.  0.
     999903    2    3    3    0    0 -0.10156000277E+00  0.77801835189E-01  0.32938657494E-02  0.12956430701E+00  0.20211392266E-01 0.  0.
         14    1    1    2    0    0 -0.13772756062E-01  0.66699092098E-02 -0.16802933657E-01  0.22726968075E-01  0.00000000000E+00 0.  1.
     999901    1    3    3    0    0  0.11533275883E+00 -0.84471744399E-01  0.13509067907E-01  0.89163872492E+00  0.88000000000E+00 0. -1.
        -11    1    4    4    0    0 -0.82077729231E-01  0.70940157201E-01  0.63732772103E-02  0.10867446491E+00  0.51100000000E-03 0. -1.
         11    1    4    4    0    0 -0.19482273536E-01  0.68616779881E-02 -0.30794114609E-02  0.20889842098E-01  0.51100000000E-03 0.  1.
</event>
<event>
 8    1  0.1088088E+005  0.1043930E+01  0.7957747E-01            NaN
         13   -1    0    0    0    0  0.00000000000E+00  0.00000000000E+00  0.74505805969E-08  0.10566000000E+00  0.10566000000E+00 0.  1.
     999900   -1    0    0    0    0 -0.00000000000E+00 -0.00000000000E+00 -0.74505805969E-08  0.93827000000E+00  0.93827000000E+00 0. -1.
     999902    2    1    2    0    0 -0.29394032504E-02  0.15424606923E-01 -0.17219730926E-01  0.10206259719E+01  0.10203598860E+01 0.  0.
     999903    2    3    3    0    0 -0.15247413524E-01 -0.12631176121E+00  0.30516805872E-02  0.12896930299E+00  0.20895543070E-01 0.  0.
         14    1    1    2    0    0  0.29394032504E-02 -0.15424606923E-01  0.17219730926E-01  0.23304028050E-01  0.00000000000E+00 0.  1.
     999901    1    3    3    0    0  0.12308010273E-01  0.14173636814E+00 -0.20271411513E-01  0.89165666896E+00  0.88000000000E+00 0. -1.
        -11    1    4    4    0    0  0.21312601332E-02 -0.66030890930E-01  0.44356993531E-02  0.66215990339E-01  0.51100000000E-03 0.  1.
         11    1    4    4    0    0 -0.17378673657E-01 -0.60280870283E-01 -0.13840187659E-02  0.62753312655E-01  0.51100000000E-03 0. -1.
</event>
<event>
 8    1  0.1088088E+005  0.1043930E+01  0.7957747E-01            NaN
         13   -1    0    0    0    0  0.00000000000E+00  0.00000000000E+00  0.74505805969E-08  0.10566000000E+00  0.10566000000E+00 0.  1.
     999900   -1    0    0    0    0 -0.00000000000E+00 -0.00000000000E+00 -0.74505805969E-08  0.93827000000E+00  0.93827000000E+00 0. -1.
     999902    2    1    2    0    0 -0.20261819866E-01 -0.92973184593E-02  0.77923495236E-02  0.10203142810E+01  0.10200409451E+01 0.  0.
     999903    2    3    3    0    0 -0.23021236828E-01  0.10487164761E+00  0.71703248833E-01  0.13063637843E+00  0.19911495627E-01 0.  0.
         14    1    1    2    0    0  0.20261819866E-01  0.92973184593E-02 -0.77923495236E-02  0.23615719043E-01  0.00000000000E+00 0.  1.
     999901    1    3    3    0    0  0.27594169618E-02 -0.11416896607E+00 -0.63910899310E-01  0.88967790253E+00  0.88000000000E+00 0. -1.
        -11    1    4    4    0    0 -0.10857120895E-01  0.71002245281E-01  0.57243382370E-01  0.91849125501E-01  0.51100000000E-03 0. -1.
         11    1    4    4    0    0 -0.12164115933E-01  0.33869402329E-01  0.14459866463E-01  0.38787252928E-01  0.51100000000E-03 0.  1.
</event>
<event>
 8    1  0.1088088E+005  0.1043930E+01  0.7957747E-01            NaN
         13   -1    0    0    0    0  0.00000000000E+00  0.00000000000E+00  0.74505805969E-08  0.10566000000E+00  0.10566000000E+00 0.  1.
     999900   -1    0    0    0    0 -0.00000000000E+00 -0.00000000000E+00 -0.74505805969E-08  0.93827000000E+00  0.93827000000E+00 0. -1.
     999902    2    1    2    0    0  0.14875156559E-01  0.13528482468E-01 -0.10089593993E-01  0.10214335552E+01  0.10211857900E+01 0.  0.
     999903    2    3    3    0    0  0.34784592561E-01  0.55174021749E-01  0.11284080859E+00  0.13169054712E+00  0.18847057124E-01 0.  0.
         14    1    1    2    0    0 -0.14875156559E-01 -0.13528482468E-01  0.10089593993E-01  0.22496444774E-01  0.00000000000E+00 0.  1.
     999901    1    3    3    0    0 -0.19909436002E-01 -0.41645539280E-01 -0.12293040259E+00  0.88974300810E+00  0.88000000000E+00 0. -1.
        -11    1    4    4    0    0  0.29461616580E-01  0.37521714505E-01  0.66755919891E-01  0.82051690247E-01  0.51100000000E-03 0.  1.
         11    1    4    4    0    0  0.53229759804E-02  0.17652307244E-01  0.46084888703E-01  0.49638856878E-01  0.51100000000E-03 0. -1.
</event>
<event>
 8    1  0.1088088E+005  0.1043930E+01  0.7957747E-01            NaN
         13   -1    0    0    0    0  0.00000000000E+00  0.00000000000E+00  0.74505805969E-08  0.10566000000E+00  0.10566000000E+00 0.  1.
     999900   -1    0    0    0    0 -0.00000000000E+00 -0.00000000000E+00 -0.74505805969E-08  0.93827000000E+00  0.93827000000E+00 0. -1.
     999902    2    1    2    0    0  0.68019170497E-03 -0.23199057745E-02  0.20111915832E-01  0.10236733028E+01  0.10234728609E+01 0.  0.
     999903    2    3    3    0    0 -0.16252469946E-01  0.12686096970E+00 -0.25289700427E-01  0.13292321417E+00  0.25906823510E-01 0.  0.
         14    1    1    2    0    0 -0.68019170497E-03  0.23199057745E-02 -0.20111915832E-01  0.20256697213E-01  0.00000000000E+00 0. -1.
     999901    1    3    3    0    0  0.16932661651E-01 -0.12918087547E+00  0.45401616259E-01  0.89075008862E+00  0.88000000000E+00 0.  1.
        -11    1    4    4    0    0 -0.17076250145E-01  0.96153655002E-01 -0.29251437792E-01  0.10194621829E+00  0.51100000000E-03 0.  1.
         11    1    4    4    0    0  0.82378019951E-03  0.30707314697E-01  0.39617373653E-02  0.30976995879E-01  0.51100000000E-03 0. -1.
</event>
<event>
 8    1  0.1088088E+005  0.1043930E+01  0.7957747E-01            NaN
         13   -1    0    0    0    0  0.00000000000E+00  0.00000000000E+00  0.74505805969E-08  0.10566000000E+00  0.10566000000E+00 0.  1.
     999900   -1    0    0    0    0 -0.00000000000E+00 -0.00000000000E+00 -0.74505805969E-08  0.93827000000E+00  0.93827000000E+00 0.  1.
     999902    2    1    2    0    0 -0.28910359578E-03  0.15647785383E-01 -0.17683188018E-01  0.10203157690E+01  0.10200424680E+01 0.  0.
     999903    2    3    3    0    0  0.44558842493E-01 -0.16496266198E-01 -0.12200312278E+00  0.13243783418E+00  0.19934911857E-01 0.  0.
         14    1    1    2    0    0  0.28910359578E-03 -0.15647785383E-01  0.17683188018E-01  0.23614231022E-01  0.00000000000E+00 0.  1.
     999901    1    3    3    0    0 -0.44847946088E-01  0.32144051581E-01  0.10431993476E+00  0.88787793480E+00  0.88000000000E+00 0. -1.
        -11    1    4    4    0    0  0.26102993637E-01 -0.19375521962E-01 -0.84458932163E-01  0.90500549563E-01  0.51100000000E-03 0. -1.
         11    1    4    4    0    0  0.18455848856E-01  0.28792557633E-02 -0.37544190615E-01  0.41937284613E-01  0.51100000000E-03 0.  1.
</event>
<event>
 8    1  0.1088088E+005  0.1043930E+01  0.7957747E-01            NaN
         13   -1    0    0    0    0  0.00000000000E+00  0.00000000000E+00  0.74505805969E-08  0.10566000000E+00  0.10566000000E+00 0.  1.
     999900   -1    0    0    0    0 -0.00000000000E+00 -0.00000000000E+00 -0.74505805969E-08  0.93827000000E+00  0.93827000000E+00 0. -1.
     999902    2    1    2    0    0 -0.17299651874E-01 -0.17463673738E-03  0.16586035484E-01  0.10199632517E+01  0.10196816315E+01 0.  0.
     999903    2    3    3    0    0 -0.82478864334E-01 -0.21472279089E-02  0.10283687371E+00  0.13334527984E+00  0.19954132697E-01 0.  0.
         14    1    1    2    0    0  0.17299651874E-01  0.17463673738E-03 -0.16586035484E-01  0.23966748341E-01  0.00000000000E+00 0. -1.
     999901    1    3    3    0    0  0.65179212459E-01  0.19725911716E-02 -0.86250838229E-01  0.88661797182E+00  0.88000000000E+00 0. -1.
        -11    1    4    4    0    0 -0.18904415404E-01 -0.23782363205E-02  0.38145979857E-01  0.42642816863E-01  0.51100000000E-03 0.  1.
         11    1    4    4    0    0 -0.63574448930E-01  0.23100841160E-03  0.64690893857E-01  0.90702462980E-01  0.51100000000E-03 0. -1.
</event>
<event>
 8    1  0.1088088E+005  0.1043930E+01  0.7957747E-01            NaN
         13   -1    0    0    0    0  0.00000000000E+00  0.00000000000E+00  0.74505805969E-08  0.10566000000E+00  0.10566000000E+00 0.  1.
     999900   -1    0    0    0    0 -0.00000000000E+00 -0.00000000000E+00 -0.74505805969E-08  0.93827000000E+00  0.93827000000E+00 0.  1.
     999902    2    1    2    0    0  0.99441682027E-02  0.13925276889E-01 -0.14783131746E-01  0.10213171541E+01  0.10210667894E+01 0.  0.
     999903    2    3    3    0    0  0.12303792014E+00 -0.44059565023E-01 -0.68064740296E-02  0.13215121583E+00  0.18385883029E-01 0.  0.
         14    1    1    2    0    0 -0.99441682027E-02 -0.13925276889E-01  0.14783131746E-01  0.22612845949E-01  0.00000000000E+00 0.  1.
     999901    1    3    3    0    0 -0.11309375194E+00  0.57984841912E-01 -0.79766577164E-02  0.88916593822E+00  0.88000000000E+00 0.  1.
        -11    1    4    4    0    0  0.79448496919E-01 -0.19491896096E-01 -0.13658148389E-02  0.81817627974E-01  0.51100000000E-03 0.  1.
         11    1    4    4    0    0  0.43589423223E-01 -0.24567668927E-01 -0.54406591907E-02  0.50333587860E-01  0.51100000000E-03 0. -1.
</event>
<event>
 8    1  0.1088088E+005  0.1043930E+01  0.7957747E-01            NaN
         13   -1    0    0    0    0  0.00000000000E+00  0.00000000000E+00  0.74505805969E-08  0.10566000000E+00  0.10566000000E+00 0. -1.
     999900   -1    0    0    0    0 -0.00000000000E+00 -0.00000000000E+00 -0.74505805969E-08  0.93827000000E+00  0.93827000000E+00 0.  1.
     999902    2    1    2    0    0  0.18847359508E-01 -0.29509803963E-02  0.12798597533E-01  0.10209575090E+01  0.10206990251E+01 0.  0.
     999903    2    3    3    0    0  0.12035811357E+00 -0.33614874901E-01 -0.40010088345E-01  0.13301974936E+00  0.21849742183E-01 0.  0.
         14    1    1    2    0    0 -0.18847359508E-01  0.29509803963E-02 -0.12798597533E-01  0.22972491039E-01  0.00000000000E+00 0.  1.
     999901    1    3    3    0    0 -0.10151075407E+00  0.30663894504E-01  0.52808685878E-01  0.88793775960E+00  0.88000000000E+00 0.  1.
        -11    1    4    4    0    0  0.41292730264E-01 -0.11658422914E-01 -0.30412487853E-02  0.43017655825E-01  0.51100000000E-03 0. -1.
         11    1    4    4    0    0  0.79065383310E-01 -0.21956451986E-01 -0.36968839560E-01  0.90002093537E-01  0.51100000000E-03 0.  1.
</event>
<event>
 8    1  0.1088088E+005  0.1043930E+01  0.7957747E-01            NaN
         13   -1    0    0    0    0  0.00000000000E+00  0.00000000000E+00  0.74505805969E-08  0.10566000000E+00  0.10566000000E+00 0.  1.
     999900   -1    0    0    0    0 -0.00000000000E+00 -0.00000000000E+00 -0.74505805969E-08  0.93827000000E+00  0.93827000000E+00 0. -1.
     999902    2    1    2    0    0 -0.10464881359E-01 -0.11450315751E-01 -0.16878416380E-01  0.10210061170E+01  0.10207487382E+01 0.  0.
     999903    2    3    3    0    0 -0.17397408850E-01  0.11894223460E+00 -0.49833488283E-01  0.13076103058E+00  0.12850897112E-01 0.  0.
         14    1    1    2    0    0  0.10464881359E-01  0.11450315751E-01  0.16878416380E-01  0.22923883008E-01  0.00000000000E+00 0. -1.
     999901    1    3    3    0    0  0.69325274905E-02 -0.13039255035E+00  0.32955071903E-01  0.89024508642E+00  0.88000000000E+00 0.  1.
        -11    1    4    4    0    0 -0.12498780177E-01  0.59050533943E-01 -0.30531783202E-01  0.67643447364E-01  0.51100000000E-03 0. -1.
         11    1    4    4    0    0 -0.48986286732E-02  0.59891700657E-01 -0.19301705081E-01  0.63117583212E-01  0.51100000000E-03 0.  1.
</event>
<event>
 8    1  0.1088088E+005  0.1043930E+01  0.7957747E-01            NaN
         13   -1    0    0    0    0  0.00000000000E+00  0.00000000000E+00  0.74505805969E-08  0.10566000000E+00  0.10566000000E+00 0. -1.
     999900   -1    0    0    0    0 -0.00000000000E+00 -0.00000000000E+00 -0.74505805969E-08  0.93827000000E+00  0.93827000000E+00 0.  1.
     999902    2    1    2    0    0  0.12124428864E-01  0.13856159649E-01  0.15306794795E-01  0.10199864643E+01  0.10197053959E+01 0.  0.
     999903    2    3    3    0    0 -0.29590970217E-02  0.10387810768E+00 -0.76073113309E-01  0.13055869798E+00  0.21425161329E-01 0.  0.
         14    1    1    2    0    0 -0.12124428864E-01 -0.13856159649E-01 -0.15306794795E-01  0.23943535712E-01  0.00000000000E+00 0.  1.
     999901    1    3    3    0    0  0.15083525886E-01 -0.90021948033E-01  0.91379908104E-01  0.88942776631E+00  0.88000000000E+00 0. -1.
        -11    1    4    4    0    0 -0.54474477146E-02  0.91746961566E-01 -0.58125923877E-01  0.10874770706E+00  0.51100000000E-03 0.  1.
         11    1    4    4    0    0  0.24883506929E-02  0.12131146116E-01 -0.17947189432E-01  0.21810990917E-01  0.51100000000E-03 0. -1.
</event>
<event>
 8    1  0.1088088E+005  0.1043930E+01  0.7957747E-01            NaN
         13   -1    0    0    0    0  0.00000000000E+00  0.00000000000E+00  0.74505805969E-08  0.10566000000E+00  0.10566000000E+00 0.  1.
     999900   -1    0    0    0    0 -0.00000000000E+00 -0.00000000000E+00 -0.74505805969E-08  0.93827000000E+00  0.93827000000E+00 0.  1.
     999902    2    1    2    0    0 -0.65105240459E-03  0.10326480632E-01 -0.19109461035E-01  0.10221991102E+01  0.10219680960E+01 0.  0.
     999903    2    3    3    0    0  0.66736850129E-01  0.10839321017E+00 -0.36992376490E-01  0.13401106054E+00  0.19688404039E-01 0.  0.
         14    1    1    2    0    0  0.65105240459E-03 -0.10326480632E-01  0.19109461035E-01  0.21730889824E-01  0.00000000000E+00 0.  1.
     999901    1    3    3    0    0 -0.67387902534E-01 -0.98066729535E-01  0.17882915454E-01  0.88818804964E+00  0.88000000000E+00 0.  1.
        -11    1    4    4    0    0  0.99647058699E-02  0.28726976068E-01 -0.35058804557E-02  0.30611874099E-01  0.51100000000E-03 0.  1.
         11    1    4    4    0    0  0.56772144259E-01  0.79666234099E-01 -0.33486496034E-01  0.10339918644E+00  0.51100000000E-03 0. -1.
</event>
<event>
 8    1  0.1088088E+005  0.1043930E+01  0.7957747E-01            NaN
         13   -1    0    0    0    0  0.00000000000E+00  0.00000000000E+00  0.74505805969E-08  0.10566000000E+00  0.10566000000E+00 0.  1.
     999900   -1    0    0    0    0 -0.00000000000E+00 -0.00000000000E+00 -0.74505805969E-08  0.93827000000E+00  0.93827000000E+00 0. -1.
     999902    2    1    2    0    0  0.20315701795E-01  0.27145953474E-02  0.13295116483E-01  0.10194993453E+01  0.10192065827E+01 0.  0.
     999903    2    3    3    0    0 -0.61206566604E-01 -0.10656434749E+00  0.33019848132E-01  0.12878231243E+00  0.19808323313E-01 0.  0.
         14    1    1    2    0    0 -0.20315701795E-01 -0.27145953474E-02 -0.13295116483E-01  0.24430654711E-01  0.00000000000E+00 0. -1.
     999901    1    3    3    0    0  0.81522268399E-01  0.10927894283E+00 -0.19724731649E-01  0.89071703286E+00  0.88000000000E+00 0. -1.
        -11    1    4    4    0    0 -0.16998686571E-01 -0.33088669237E-01  0.90356942235E-03  0.37214149671E-01  0.51100000000E-03 0.  1.
         11    1    4    4    0    0 -0.44207880033E-01 -0.73475678250E-01  0.32116278710E-01  0.91568162755E-01  0.51100000000E-03 0. -1.
</event>
<event>
 8    1  0.1088088E+005  0.1043930E+01  0.7957747E-01            NaN
         13   -1    0    0    0    0  0.00000000000E+00  0.00000000000E+00  0.74505805969E-08  0.10566000000E+00  0.10566000000E+00 0. -1.
     999900   -1    0    0    0    0 -0.00000000000E+00 -0.00000000000E+00 -0.74505805969E-08  0.93827000000E+00  0.93827000000E+00 0. -1.
     999902    2    1    2    0    0  0.13217095499E-03 -0.23669215868E-01  0.52946017460E-02  0.10196754735E+01  0.10193869673E+01 0.  0.
     999903    2    3    3    0    0 -0.10520006307E+00  0.67597468409E-01 -0.20100013323E-01  0.12834535862E+00  0.20785801363E-01 0.  0.
         14    1    1    2    0    0 -0.13217095499E-03  0.23669215868E-01 -0.52946017460E-02  0.24254526518E-01  0.00000000000E+00 0.  1.
     999901    1    3    3    0    0  0.10533223403E+00 -0.91266684277E-01  0.25394615069E-01  0.89133011486E+00  0.88000000000E+00 0. -1.
        -11    1    4    4    0    0 -0.17644064801E-01  0.13763987027E-01  0.40899662634E-02  0.22754105269E-01  0.51100000000E-03 0.  1.
         11    1    4    4    0    0 -0.87555998271E-01  0.53833481382E-01 -0.24189979587E-01  0.10559125335E+00  0.51100000000E-03 0. -1.
</event>
<event>
 8    1  0.1088088E+005  0.1043930E+01  0.7957747E-01            NaN
         13   -1    0    0    0    0  0.00000000000E+00  0.00000000000E+00  0.74505805969E-08  0.10566000000E+00  0.10566000000E+00 0.  1.
     999900   -1    0    0    0    0 -0.00000000000E+00 -0.00000000000E+00 -0.74505805969E-08  0.93827000000E+00  0.93827000000E+00 0.  1.
     999902    2    1    2    0    0 -0.10358498666E-01 -0.14558200488E-01 -0.95071312726E-02  0.10236907994E+01  0.10234907071E+01 0.  0.
     999903    2    3    3    0    0  0.38252411168E-01  0.11950452265E+00 -0.35602954758E-01  0.13182936044E+00  0.19152858603E-01 0.  0.
         14    1    1    2    0    0  0.10358498666E-01  0.14558200488E-01  0.95071312726E-02  0.20239200604E-01  0.00000000000E+00 0. -1.
     999901    1    3    3    0    0 -0.48610909834E-01 -0.13406272314E+00  0.26095823485E-01  0.89186143895E+00  0.88000000000E+00 0. -1.
        -11    1    4    4    0    0  0.23874710653E-01  0.48823210461E-01 -0.20805492298E-01  0.58196540441E-01  0.51100000000E-03 0.  1.
         11    1    4    4    0    0  0.14377700515E-01  0.70681312190E-01 -0.14797462459E-01  0.73632820001E-01  0.51100000000E-03 0. -1.
</event>
<event>
 8    1  0.1088088E+005  0.1043930E+01  0.7957747E-01            NaN
         13   -1    0    0    0    0  0.00000000000E+00  0.00000000000E+00  0.74505805969E-08  0.10566000000E+00  0.10566000000E+00 0. -1.
     999900   -1    0    0    0    0 -0.00000000000E+00 -0.00000000000E+00 -0.74505805969E-08  0.93827000000E+00  0.93827000000E+00 0.  1.
     999902    2    1    2    0    0 -0.21305549684E-01 -0.55082449793E-02 -0.10033188758E-01  0.10197446307E+01  0.10194577872E+01 0.  0.
     999903    2    3    3    0    0 -0.72892515059E-01 -0.10176451957E+00  0.35876338224E-01  0.13180647406E+00  0.20408301413E-01 0.  0.
         14    1    1    2    0    0  0.21305549684E-01  0.55082449793E-02  0.10033188758E-01  0.24185369271E-01  0.00000000000E+00 0.  1.
     999901    1    3    3    0    0  0.51586965375E-01  0.96256274587E-01 -0.45909526982E-01  0.88793815667E+00  0.88000000000E+00 0.  1.
        -11    1    4    4    0    0 -0.10771786584E-01 -0.30019317792E-01  0.78015815828E-02  0.32837731698E-01  0.51100000000E-03 0.  1.
         11    1    4    4    0    0 -0.62120728476E-01 -0.71745201775E-01  0.28074756641E-01  0.98968742366E-01  0.51100000000E-03 0. -1.
</event>
<event>
 8    1  0.1088088E+005  0.1043930E+01  0.7957747E-01            NaN
         13   -1    0    0    0    0  0.00000000000E+00  0.00000000000E+00  0.74505805969E-08  0.10566000000E+00  0.10566000000E+00 0.  1.
     999900   -1    0    0    0    0 -0.00000000000E+00 -0.00000000000E+00 -0.74505805969E-08  0.93827000000E+00  0.93827000000E+00 0. -1.
     999902    2    1    2    0    0  0.23604293960E-01 -0.38493973842E-02 -0.20656741801E-02  0.10199248430E+01  0.10196423087E+01 0.  0.
     999903    2    3    3    0    0  0.87118696975E-01  0.94339455699E-01  0.26248966540E-01  0.13173744770E+00  0.13272023896E-01 0.  0.
         14    1    1    2    0    0 -0.23604293960E-01  0.38493973842E-02  0.20656741801E-02  0.24005157016E-01  0.00000000000E+00 0.  1.
     999901    1    3    3    0    0 -0.63514403015E-01 -0.98188853083E-01 -0.28314640720E-01  0.88818739528E+00  0.88000000000E+00 0. -1.
        -11    1    4    4    0    0  0.16839731826E-01  0.14116593205E-01  0.34482821329E-03  0.21982602193E-01  0.51100000000E-03 0.  1.
         11    1    4    4    0    0  0.70278965149E-01  0.80222862493E-01  0.25904138326E-01  0.10975484551E+00  0.51100000000E-03 0. -1.
</event>
<event>
 8    1  0.1088088E+005  0.1043930E+01  0.7957747E-01            NaN
         13   -1    0    0    0    0  0.00000000000E+00  0.00000000000E+00  0.74505805969E-08  0.10566000000E+00  0.10566000000E+00 0.  1.
     999900   -1    0    0    0    0 -0.00000000000E+00 -0.00000000000E+00 -0.74505805969E-08  0.93827000000E+00  0.93827000000E+00 0.  1.
     999902    2    1    2    0    0  0.11613570338E-01  0.19171551672E-01 -0.70112692507E-02  0.10204442318E+01  0.10201739308E+01 0.  0.
     999903    2    3    3    0    0 -0.15401864140E-01  0.10097915452E+00 -0.82767930491E-01  0.13299767610E+00  0.20095881735E-01 0.  0.
         14    1    1    2    0    0 -0.11613570338E-01 -0.19171551672E-01  0.70112692507E-02  0.23485768159E-01  0.00000000000E+00 0. -1.
     999901    1    3    3    0    0  0.27015434478E-01 -0.81807602847E-01  0.75756661240E-01  0.88744655575E+00  0.88000000000E+00 0. -1.
        -11    1    4    4    0    0 -0.10344479928E-01  0.25593464621E-01 -0.30403388877E-01  0.41068977008E-01  0.51100000000E-03 0. -1.
         11    1    4    4    0    0 -0.50573842116E-02  0.75385689898E-01 -0.52364541613E-01  0.91928699087E-01  0.51100000000E-03 0.  1.
</event>
<event>
 8    1  0.1088088E+005  0.1043930E+01  0.7957747E-01            NaN
         13   -1    0    0    0    0  0.00000000000E+00  0.00000000000E+00  0.74505805969E-08  0.10566000000E+00  0.10566000000E+00 0.  1.
     999900   -1    0    0    0    0 -0.00000000000E+00 -0.00000000000E+00 -0.74505805969E-08  0.93827000000E+00  0.93827000000E+00 0. -1.
     999902    2    1    2    0    0 -0.22388016013E-01  0.34413815340E-02 -0.10529488469E-01  0.10189512792E+01  0.10186450671E+01 0.  0.
     999903    2    3    3    0    0 -0.30758866351E-01  0.11828033222E+00  0.39602349552E-01  0.13003550310E+00  0.20113207787E-01 0.  0.
         14    1    1    2    0    0  0.22388016013E-01 -0.34413815340E-02  0.10529488469E-01  0.24978720849E-01  0.00000000000E+00 0. -1.
     999901    1    3    3    0    0  0.83708503383E-02 -0.11483895068E+00 -0.50131838021E-01  0.88891577605E+00  0.88000000000E+00 0.  1.
        -11    1    4    4    0    0 -0.69556645124E-02  0.48031242124E-01  0.70948777646E-02  0.49050788987E-01  0.51100000000E-03 0. -1.
         11    1    4    4    0    0 -0.23803201839E-01  0.70249090094E-01  0.32507471788E-01  0.80984714112E-01  0.51100000000E-03 0.  1.
</event>
<event>
 8    1  0.1088088E+005  0.1043930E+01  0.7957747E-01            NaN
         13   -1    0    0    0    0  0.00000000000E+00  0.00000000000E+00  0.74505805969E-08  0.10566000000E+00  0.10566000000E+00 0. -1.
     999900   -1    0    0    0    0 -0.00000000000E+00 -0.00000000000E+00 -0.74505805969E-08  0.93827000000E+00  0.93827000000E+00 0. -1.
     999902    2    1    2    0    0 -0.20441673528E-01  0.37243871332E-02  0.10660060898E-01  0.10205768423E+01  0.10203096202E+01 0.  0.
     999903    2    3    3    0    0 -0.10834907835E+00  0.41233140733E-01  0.63696880201E-01  0.13381446002E+00  0.20231719885E-01 0.  0.
         14    1    1    2    0    0  0.20441673528E-01 -0.37243871332E-02 -0.10660060898E-01  0.23353157698E-01  0.00000000000E+00 0.  1.
     999901    1    3    3    0    0  0.87907404826E-01 -0.37508753600E-01 -0.53036819304E-01  0.88676238228E+00  0.88000000000E+00 0. -1.
        -11    1    4    4    0    0 -0.17904289815E-01 -0.69936610753E-03  0.81592146978E-02  0.19694837197E-01  0.51100000000E-03 0.  1.
         11    1    4    4    0    0 -0.90444788539E-01  0.41932506841E-01  0.55537665503E-01  0.11411962283E+00  0.51100000000E-03 0. -1.
</event>
<event>
 8    1  0.1088088E+005  0.1043930E+01  0.7957747E-01            NaN
         13   -1    0    0    0    0  0.00000000000E+00  0.00000000000E+00  0.74505805969E-08  0.10566000000E+00  0.10566000000E+00 0. -1.
     999900   -1    0    0    0    0 -0.00000000000E+00 -0.00000000000E+00 -0.74505805969E-08  0.93827000000E+00  0.93827000000E+00 0. -1.
     999902    2    1    2    0    0  0.23236487258E-01 -0.34129315385E-02 -0.30970871038E-02  0.10202408803E+01  0.10199658227E+01 0.  0.
     999903    2    3    3    0    0  0.26086455084E-01  0.10955292275E+00  0.63071923791E-01  0.13055119030E+00  0.19575487167E-01 0.  0.
         14    1    1    2    0    0 -0.23236487258E-01  0.34129315385E-02  0.30970871038E-02  0.23689119661E-01  0.00000000000E+00 0. -1.
     999901    1    3    3    0    0 -0.28499678256E-02 -0.11296585429E+00 -0.66169010895E-01  0.88968969003E+00  0.88000000000E+00 0. -1.
        -11    1    4    4    0    0  0.70500148179E-02  0.38233785752E-01  0.32411835165E-01  0.50619297324E-01  0.51100000000E-03 0. -1.
         11    1    4    4    0    0  0.19036440266E-01  0.71319136995E-01  0.30660088626E-01  0.79931892980E-01  0.51100000000E-03 0.  1.
</event>
<event>
 8    1  0.1088088E+005  0.1043930E+01  0.7957747E-01            NaN
         13   -1    0    0    0    0  0.00000000000E+00  0.00000000000E+00  0.74505805969E-08  0.10566000000E+00  0.10566000000E+00 0. -1.
     999900   -1    0    0    0    0 -0.00000000000E+00 -0.00000000000E+00 -0.74505805969E-08  0.93827000000E+00  0.93827000000E+00 0. -1.
     999902    2    1    2    0    0 -0.10858835370E-01  0.15317310544E-01  0.14678585051E-01  0.10200973508E+01  0.10198189104E+01 0.  0.
     999903    2    3    3    0    0 -0.11666520321E+00 -0.54063268146E-01  0.15867404143E-01  0.13104725917E+00  0.19697792253E-01 0.  0.
         14    1    1    2    0    0  0.10858835370E-01 -0.15317310544E-01 -0.14678585051E-01  0.23832649181E-01  0.00000000000E+00 0.  1.
     999901    1    3    3    0    0  0.10580636784E+00  0.69380578690E-01 -0.11888190926E-02  0.88905009165E+00  0.88000000000E+00 0. -1.
        -11    1    4    4    0    0 -0.13901425888E-01 -0.11175784318E-01 -0.30314029620E-02  0.18099677393E-01  0.51100000000E-03 0.  1.
         11    1    4    4    0    0 -0.10276377732E+00 -0.42887483828E-01  0.18898807105E-01  0.11294758177E+00  0.51100000000E-03 0. -1.
</event>
<event>
 8    1  0.1088088E+005  0.1043930E+01  0.7957747E-01            NaN
         13   -1    0    0    0    0  0.00000000000E+00  0.00000000000E+00  0.74505805969E-08  0.10566000000E+00  0.10566000000E+00 0. -1.
     999900   -1    0    0    0    0 -0.00000000000E+00 -0.00000000000E+00 -0.74505805969E-08  0.93827000000E+00  0.93827000000E+00 0.  1.
     999902    2    1    2    0    0 -0.22725376142E-01  0.96556278980E-03  0.12816610225E-01  0.10178217536E+01  0.10174868459E+01 0.  0.
     999903    2    3    3    0    0 -0.24616279140E-01 -0.12458580983E+00  0.67089617309E-03  0.12882555504E+00  0.21633037726E-01 0.  0.
         14    1    1    2    0    0  0.22725376142E-01 -0.96556278980E-03 -0.12816610225E-01  0.26108246397E-01  0.00000000000E+00 0.  1.
     999901    1    3    3    0    0  0.18909029983E-02  0.12555137262E+00  0.12145714052E-01  0.88899619856E+00  0.88000000000E+00 0. -1.
        -11    1    4    4    0    0 -0.92023702644E-02 -0.26415280897E-01  0.82342715180E-02  0.29163590859E-01  0.51100000000E-03 0.  1.
         11    1    4    4    0    0 -0.15413908876E-01 -0.98170528933E-01 -0.75633753450E-02  0.99661964186E-01  0.51100000000E-03 0. -1.
</event>
<event>
 8    1  0.1088088E+005  0.1043930E+01  0.7957747E-01            NaN
         13   -1    0    0    0    0  0.00000000000E+00  0.00000000000E+00  0.74505805969E-08  0.10566000000E+00  0.10566000000E+00 0. -1.
     999900   -1    0    0    0    0 -0.00000000000E+00 -0.00000000000E+00 -0.74505805969E-08  0.93827000000E+00  0.93827000000E+00 0.  1.
     999902    2    1    2    0    0  0.23773531558E-01  0.12478184004E-02 -0.71058483316E-02  0.10190858672E+01  0.10187829866E+01 0.  0.
     999903    2    3    3    0    0  0.12201048982E+00  0.13974048134E-02  0.46542915669E-01  0.13199584234E+00  0.19187157954E-01 0.  0.
         14    1    1    2    0    0 -0.23773531558E-01 -0.12478184004E-02  0.71058483316E-02  0.24844132788E-01  0.00000000000E+00 0.  1.
     999901    1    3    3    0    0 -0.98236958262E-01 -0.14958641298E-03 -0.53648764001E-01  0.88709002487E+00  0.88000000000E+00 0.  1.
        -11    1    4    4    0    0  0.94213356200E-01 -0.49470132566E-02  0.29856680553E-01  0.98956111086E-01  0.51100000000E-03 0.  1.
         11    1    4    4    0    0  0.27797133620E-01  0.63444180700E-02  0.16686235117E-01  0.33039731256E-01  0.51100000000E-03 0. -1.
</event>
<event>
 8    1  0.1088088E+005  0.1043930E+01  0.7957747E-01            NaN
         13   -1    0    0    0    0  0.00000000000E+00  0.00000000000E+00  0.74505805969E-08  0.10566000000E+00  0.10566000000E+00 0. -1.
     999900   -1    0    0    0    0 -0.00000000000E+00 -0.00000000000E+00 -0.74505805969E-08  0.93827000000E+00  0.93827000000E+00 0.  1.
     999902    2    1    2    0    0  0.29862181580E-01  0.26663737985E-02 -0.15113445025E-01  0.10103550740E+01  0.10097970587E+01 0.  0.
     999903    2    3    3    0    0  0.10570012742E+00  0.54804398534E-01 -0.33746943515E-01  0.12535960792E+00  0.20003401335E-01 0.  0.
         14    1    1    2    0    0 -0.29862181580E-01 -0.26663737985E-02  0.15113445025E-01  0.33574926038E-01  0.00000000000E+00 0.  1.
     999901    1    3    3    0    0 -0.75837945842E-01 -0.52138024735E-01  0.18633498490E-01  0.88499546604E+00  0.88000000000E+00 0.  1.
        -11    1    4    4    0    0  0.51791522185E-01  0.17459486667E-01 -0.97238527618E-02  0.55515852497E-01  0.51100000000E-03 0. -1.
         11    1    4    4    0    0  0.53908605237E-01  0.37344911867E-01 -0.24023090753E-01  0.69843755420E-01  0.51100000000E-03 0.  1.
</event>
<event>
 8    1  0.1088088E+005  0.1043930E+01  0.7957747E-01            NaN
         13   -1    0    0    0    0  0.00000000000E+00  0.00000000000E+00  0.74505805969E-08  0.10566000000E+00  0.10566000000E+00 0. -1.
     999900   -1    0    0    0    0 -0.00000000000E+00 -0.00000000000E+00 -0.74505805969E-08  0.93827000000E+00  0.93827000000E+00 0.  1.
     999902    2    1    2    0    0  0.16237664828E-01  0.45873066904E-02  0.17124576336E-01  0.10198892792E+01  0.10196058972E+01 0.  0.
     999903    2    3    3    0    0  0.28663481277E-01  0.12636043467E+00 -0.37870872426E-02  0.13117087988E+00  0.20072446058E-01 0.  0.
         14    1    1    2    0    0 -0.16237664828E-01 -0.45873066904E-02 -0.17124576336E-01  0.24040720797E-01  0.00000000000E+00 0. -1.
     999901    1    3    3    0    0 -0.12425816449E-01 -0.12177312798E+00  0.20911663579E-01  0.88871839932E+00  0.88000000000E+00 0. -1.
        -11    1    4    4    0    0  0.15698951320E-01  0.55869127359E-01 -0.11224486852E-01  0.59110630943E-01  0.51100000000E-03 0. -1.
         11    1    4    4    0    0  0.12964529957E-01  0.70491307313E-01  0.74373996091E-02  0.72060248942E-01  0.51100000000E-03 0.  1.
</event>
<event>
 8    1  0.1088088E+005  0.1043930E+01  0.7957747E-01            NaN
         13   -1    0    0    0    0  0.00000000000E+00  0.00000000000E+00  0.74505805969E-08  0.10566000000E+00  0.10566000000E+00 0.  1.
     999900   -1    0    0    0    0 -0.00000000000E+00 -0.00000000000E+00 -0.74505805969E-08  0.93827000000E+00  0.93827000000E+00 0. -1.
     999902    2    1    2    0    0  0.87356582262E-02  0.54245687280E-02 -0.21270811094E-01  0.10203040593E+01  0.10200304840E+01 0.  0.
     999903    2    3    3    0    0  0.59952975221E-01  0.11514476226E+00 -0.69876232598E-02  0.13189776490E+00  0.22260233471E-01 0.  0.
         14    1    1    2    0    0 -0.87356582262E-02 -0.54245687280E-02  0.21270811094E-01  0.23625940724E-01  0.00000000000E+00 0.  1.
     999901    1    3    3    0    0 -0.51217316995E-01 -0.10972019353E+00 -0.14283187834E-01  0.88840629437E+00  0.88000000000E+00 0. -1.
        -11    1    4    4    0    0  0.44364177483E-01  0.61771749766E-01 -0.58904375081E-02  0.76281634014E-01  0.51100000000E-03 0.  1.
         11    1    4    4    0    0  0.15588797738E-01  0.53373012491E-01 -0.10971857516E-02  0.55616130888E-01  0.51100000000E-03 0. -1.
</event>
<event>
 8    1  0.1088088E+005  0.1043930E+01  0.7957747E-01            NaN
         13   -1    0    0    0    0  0.00000000000E+00  0.00000000000E+00  0.74505805969E-08  0.10566000000E+00  0.10566000000E+00 0.  1.
     999900   -1    0    0    0    0 -0.00000000000E+00 -0.00000000000E+00 -0.74505805969E-08  0.93827000000E+00  0.93827000000E+00 0. -1.
     999902    2    1    2    0    0 -0.35752453496E-02 -0.22014756594E-01 -0.62960068728E-02  0.10207551949E+01  0.10204920854E+01 0.  0.
     999903    2    3    3    0    0  0.83846896439E-01 -0.65014088951E-01  0.75311130550E-01  0.13162567775E+00  0.19910270041E-01 0.  0.
         14    1    1    2    0    0  0.35752453496E-02  0.22014756594E-01  0.62960068728E-02  0.23174805064E-01  0.00000000000E+00 0.  1.
     999901    1    3    3    0    0 -0.87422141789E-01  0.42999332358E-01 -0.81607137423E-01  0.88912951719E+00  0.88000000000E+00 0. -1.
        -11    1    4    4    0    0  0.73484529369E-01 -0.50989262849E-01  0.69387021847E-01  0.11320203578E+00  0.51100000000E-03 0.  1.
         11    1    4    4    0    0  0.10362367070E-01 -0.14024826102E-01  0.59241087032E-02  0.18423641970E-01  0.51100000000E-03 0. -1.
</event>
<event>
 8    1  0.1088088E+005  0.1043930E+01  0.7957747E-01            NaN
         13   -1    0    0    0    0  0.00000000000E+00  0.00000000000E+00  0.74505805969E-08  0.10566000000E+00  0.10566000000E+00 0.  1.
     999900   -1    0    0    0    0 -0.00000000000E+00 -0.00000000000E+00 -0.74505805969E-08  0.93827000000E+00  0.93827000000E+00 0.  1.
     999902    2    1    2    0    0  0.11522707908E-01  0.20117977465E-01 -0.41570124862E-02  0.10203760923E+01  0.10201042021E+01 0.  0.
     999903    2    3    3    0    0  0.11297687517E+00 -0.24161087042E-04  0.64702918394E-01  0.13164646870E+00  0.19507694997E-01 0.  0.
         14    1    1    2    0    0 -0.11522707908E-01 -0.20117977465E-01  0.41570124862E-02  0.23553907693E-01  0.00000000000E+00 0.  1.
     999901    1    3    3    0    0 -0.10145416727E+00  0.20142138552E-01 -0.68859930880E-01  0.88872962361E+00  0.88000000000E+00 0.  1.
        -11    1    4    4    0    0  0.71519789077E-01 -0.39544578065E-02  0.50509740148E-01  0.87648234078E-01  0.51100000000E-03 0.  1.
         11    1    4    4    0    0  0.41457086096E-01  0.39302967195E-02  0.14193178246E-01  0.43998234619E-01  0.51100000000E-03 0. -1.
</event>
<event>
 8    1  0.1088088E+005  0.1043930E+01  0.7957747E-01            NaN
         13   -1    0    0    0    0  0.00000000000E+00  0.00000000000E+00  0.74505805969E-08  0.10566000000E+00  0.10566000000E+00 0. -1.
     999900   -1    0    0    0    0 -0.00000000000E+00 -0.00000000000E+00 -0.74505805969E-08  0.93827000000E+00  0.93827000000E+00 0.  1.
     999902    2    1    2    0    0  0.17597213905E-01  0.24824669069E-01 -0.36883785960E-02  0.10132782420E+01  0.10128145267E+01 0.  0.
     999903    2    3    3    0    0  0.55734739418E-01  0.47975882237E-01 -0.10178301953E+00  0.12670449544E+00  0.16917436104E-01 0.  0.
         14    1    1    2    0    0 -0.17597213905E-01 -0.24824669069E-01  0.36883785960E-02  0.30651757997E-01  0.00000000000E+00 0.  1.
     999901    1    3    3    0    0 -0.38137525513E-01 -0.23151213168E-01  0.98094640935E-01  0.88657374657E+00  0.88000000000E+00 0. -1.
        -11    1    4    4    0    0  0.21677251670E-01  0.26272156935E-01 -0.56963917170E-01  0.66372271698E-01  0.51100000000E-03 0. -1.
         11    1    4    4    0    0  0.34057487748E-01  0.21703725302E-01 -0.44819102361E-01  0.60332223738E-01  0.51100000000E-03 0.  1.
</event>
<event>
 8    1  0.1088088E+005  0.1043930E+01  0.7957747E-01            NaN
         13   -1    0    0    0    0  0.00000000000E+00  0.00000000000E+00  0.74505805969E-08  0.10566000000E+00  0.10566000000E+00 0. -1.
     999900   -1    0    0    0    0 -0.00000000000E+00 -0.00000000000E+00 -0.74505805969E-08  0.93827000000E+00  0.93827000000E+00 0.  1.
     999902    2    1    2    0    0  0.22091777674E-01  0.37928373595E-02  0.26453561803E-03  0.10215134384E+01  0.10212674491E+01 0.  0.
     999903    2    3    3    0    0  0.89049230888E-02 -0.92788008532E-01  0.90930557279E-01  0.13150103374E+00  0.18309654385E-01 0.  0.
         14    1    1    2    0    0 -0.22091777674E-01 -0.37928373595E-02 -0.26453561803E-03  0.22416561626E-01  0.00000000000E+00 0.  1.
     999901    1    3    3    0    0  0.13186854585E-01  0.96580845892E-01 -0.90666021661E-01  0.89001240464E+00  0.88000000000E+00 0.  1.
        -11    1    4    4    0    0  0.10693761122E-01 -0.37938576435E-01  0.45949263463E-01  0.60541622398E-01  0.51100000000E-03 0.  1.
         11    1    4    4    0    0 -0.17888380327E-02 -0.54849432097E-01  0.44981293817E-01  0.70959411337E-01  0.51100000000E-03 0. -1.
</event>
<event>
 8    1  0.1088088E+005  0.1043930E+01  0.7957747E-01            NaN
         13   -1    0    0    0    0  0.00000000000E+00  0.00000000000E+00  0.74505805969E-08  0.10566000000E+00  0.10566000000E+00 0.  1.
     999900   -1    0    0    0    0 -0.00000000000E+00 -0.00000000000E+00 -0.74505805969E-08  0.93827000000E+00  0.93827000000E+00 0.  1.
     999902    2    1    2    0    0 -0.79012858869E-02 -0.50681064681E-02 -0.20874308000E-01  0.10210421701E+01  0.10207856094E+01 0.  0.
     999903    2    3    3    0    0 -0.36500706708E-01  0.44096941540E-01  0.11382244506E+00  0.12897807820E+00  0.20073709551E-01 0.  0.
         14    1    1    2    0    0  0.79012858869E-02  0.50681064681E-02  0.20874308000E-01  0.22887829873E-01  0.00000000000E+00 0.  1.
     999901    1    3    3    0    0  0.28599420821E-01 -0.49165048008E-01 -0.13469675305E+00  0.89206409192E+00  0.88000000000E+00 0.  1.
        -11    1    4    4    0    0 -0.26550533771E-01  0.25523510345E-01  0.52478513266E-01  0.64114241004E-01  0.51100000000E-03 0. -1.
         11    1    4    4    0    0 -0.99501729368E-02  0.18573431196E-01  0.61343931789E-01  0.64863837199E-01  0.51100000000E-03 0.  1.
</event>
<event>
 8    1  0.1088088E+005  0.1043930E+01  0.7957747E-01            NaN
         13   -1    0    0    0    0  0.00000000000E+00  0.00000000000E+00  0.74505805969E-08  0.10566000000E+00  0.10566000000E+00 0. -1.
     999900   -1    0    0    0    0 -0.00000000000E+00 -0.00000000000E+00 -0.74505805969E-08  0.93827000000E+00  0.93827000000E+00 0.  1.
     999902    2    1    2    0    0  0.20398145320E-01  0.33563202063E-03  0.11543869518E-01  0.10204894816E+01  0.10202202331E+01 0.  0.
     999903    2    3    3    0    0 -0.53154924020E-01  0.10971797809E+00  0.40982681871E-01  0.13018549116E+00  0.20129610842E-01 0.  0.
         14    1    1    2    0    0 -0.20398145320E-01 -0.33563202063E-03 -0.11543869518E-01  0.23440518442E-01  0.00000000000E+00 0.  1.
     999901    1    3    3    0    0  0.73553069340E-01 -0.10938234607E+00 -0.29438812353E-01  0.89030399040E+00  0.88000000000E+00 0.  1.
        -11    1    4    4    0    0 -0.93927976023E-02  0.38082262552E-01  0.82637637233E-02  0.40087832066E-01  0.51100000000E-03 0.  1.
         11    1    4    4    0    0 -0.43762126417E-01  0.71635715536E-01  0.32718918148E-01  0.90097659097E-01  0.51100000000E-03 0. -1.
</event>
<event>
 8    1  0.1088088E+005  0.1043930E+01  0.7957747E-01            NaN
         13   -1    0    0    0    0  0.00000000000E+00  0.00000000000E+00  0.74505805969E-08  0.10566000000E+00  0.10566000000E+00 0. -1.
     999900   -1    0    0    0    0 -0.00000000000E+00 -0.00000000000E+00 -0.74505805969E-08  0.93827000000E+00  0.93827000000E+00 0.  1.
     999902    2    1    2    0    0  0.87641677777E-02  0.14230030705E-01 -0.16822769348E-01  0.10202169239E+01  0.10199413031E+01 0.  0.
     999903    2    3    3    0    0  0.83259724213E-01 -0.69398972214E-01  0.67061886280E-01  0.12916135125E+00  0.20903565365E-01 0.  0.
         14    1    1    2    0    0 -0.87641677777E-02 -0.14230030705E-01  0.16822769348E-01  0.23713076124E-01  0.00000000000E+00 0. -1.
     999901    1    3    3    0    0 -0.74495556435E-01  0.83629002919E-01 -0.83884655629E-01  0.89105557263E+00  0.88000000000E+00 0.  1.
        -11    1    4    4    0    0  0.72792979394E-01 -0.56690515456E-01  0.48121536077E-01  0.10406044276E+00  0.51100000000E-03 0. -1.
         11    1    4    4    0    0  0.10466744819E-01 -0.12708456757E-01  0.18940350204E-01  0.25100908492E-01  0.51100000000E-03 0.  1.
</event>
<event>
 8    1  0.1088088E+005  0.1043930E+01  0.7957747E-01            NaN
         13   -1    0    0    0    0  0.00000000000E+00  0.00000000000E+00  0.74505805969E-08  0.10566000000E+00  0.10566000000E+00 0.  1.
     999900   -1    0    0    0    0 -0.00000000000E+00 -0.00000000000E+00 -0.74505805969E-08  0.93827000000E+00  0.93827000000E+00 0.  1.
     999902    2    1    2    0    0 -0.14882049277E-01 -0.93723578367E-02 -0.13434941288E-01  0.10217982552E+01  0.10215585446E+01 0.  0.
     999903    2    3    3    0    0  0.50771731613E-01 -0.11220514625E+00 -0.45152168613E-01  0.13281513731E+00  0.20817751842E-01 0.  0.
         14    1    1    2    0    0  0.14882049277E-01  0.93723578367E-02  0.13434941288E-01  0.22131744837E-01  0.00000000000E+00 0.  1.
     999901    1    3    3    0    0 -0.65653780890E-01  0.10283278842E+00  0.31717227326E-01  0.88898311785E+00  0.88000000000E+00 0. -1.
        -11    1    4    4    0    0  0.13745422397E-01 -0.50519675613E-01 -0.12635747948E-01  0.53861837214E-01  0.51100000000E-03 0. -1.
         11    1    4    4    0    0  0.37026309215E-01 -0.61685470640E-01 -0.32516420665E-01  0.78953300096E-01  0.51100000000E-03 0.  1.
</event>
<event>
 7    1  0.1088088E+005  0.1043930E+01  0.7957747E-01            NaN
         13   -1    0    0    0    0  0.00000000000E+00  0.00000000000E+00  0.74505805969E-08  0.10566000000E+00  0.10566000000E+00 0. -1.
     999900   -1    0    0    0    0 -0.00000000000E+00 -0.00000000000E+00 -0.74505805969E-08  0.93827000000E+00  0.93827000000E+00 0.  1.
     999903    2    1    2    0    0  0.91804946952E-01  0.77012778866E-02  0.61955931384E-01  0.11280673943E+00  0.19984120247E-01 0.  0.
         14    1    1    2    0    0  0.33288565310E-01 -0.20245725247E-01  0.67288085753E-02  0.39538523443E-01  0.00000000000E+00 0. -1.
     999901    1    1    2    0    0 -0.12509351226E+00  0.12544447360E-01 -0.68684739959E-01  0.89158473712E+00  0.88000000000E+00 0.  1.
        -11    1    3    3    0    0  0.65896959442E-01 -0.35945931156E-02  0.42842443544E-01  0.78683330212E-01  0.51100000000E-03 0. -1.
         11    1    3    3    0    0  0.25907987509E-01  0.11295871002E-01  0.19113487840E-01  0.34123409221E-01  0.51100000000E-03 0.  1.
</event>
<event>
 8    1  0.1088088E+005  0.1043930E+01  0.7957747E-01            NaN
         13   -1    0    0    0    0  0.00000000000E+00  0.00000000000E+00  0.74505805969E-08  0.10566000000E+00  0.10566000000E+00 0.  1.
     999900   -1    0    0    0    0 -0.00000000000E+00 -0.00000000000E+00 -0.74505805969E-08  0.93827000000E+00  0.93827000000E+00 0. -1.
     999902    2    1    2    0    0 -0.29780295718E-02  0.95711016532E-02 -0.28813981336E-01  0.10134222933E+01  0.10129629926E+01 0.  0.
     999903    2    3    3    0    0  0.28148875427E-03  0.69843470716E-01 -0.10554221515E+00  0.12802373628E+00  0.19306170862E-01 0.  0.
         14    1    1    2    0    0  0.29780295718E-02 -0.95711016532E-02  0.28813981336E-01  0.30507706689E-01  0.00000000000E+00 0.  1.
     999901    1    3    3    0    0 -0.32595183261E-02 -0.60272369063E-01  0.76728233817E-01  0.88539855703E+00  0.88000000000E+00 0.  1.
        -11    1    4    4    0    0  0.71872943642E-02  0.14504966396E-01 -0.17879050970E-01  0.24124113144E-01  0.51100000000E-03 0.  1.
         11    1    4    4    0    0 -0.69058056099E-02  0.55338504320E-01 -0.87663164183E-01  0.10389962313E+00  0.51100000000E-03 0. -1.
</event>
<event>
 8    1  0.1088088E+005  0.1043930E+01  0.7957747E-01            NaN
         13   -1    0    0    0    0  0.00000000000E+00  0.00000000000E+00  0.74505805969E-08  0.10566000000E+00  0.10566000000E+00 0. -1.
     999900   -1    0    0    0    0 -0.00000000000E+00 -0.00000000000E+00 -0.74505805969E-08  0.93827000000E+00  0.93827000000E+00 0.  1.
     999902    2    1    2    0    0  0.18391408342E-01  0.12043352565E-02 -0.14087482722E-01  0.10207319075E+01  0.10204682629E+01 0.  0.
     999903    2    3    3    0    0 -0.30603275083E-02  0.84085737565E-01 -0.10002801768E+00  0.13241029947E+00  0.21144886367E-01 0.  0.
         14    1    1    2    0    0 -0.18391408342E-01 -0.12043352565E-02  0.14087482722E-01  0.23198092457E-01  0.00000000000E+00 0. -1.
     999901    1    3    3    0    0  0.21451735850E-01 -0.82881402308E-01  0.85940534953E-01  0.88832160807E+00  0.88000000000E+00 0. -1.
        -11    1    4    4    0    0 -0.24193718847E-02  0.49460385370E-01 -0.74187975123E-01  0.89198093338E-01  0.51100000000E-03 0. -1.
         11    1    4    4    0    0 -0.64095562356E-03  0.34625352195E-01 -0.25840042552E-01  0.43212206132E-01  0.51100000000E-03 0.  1.
</event>
<event>
 8    1  0.1088088E+005  0.1043930E+01  0.7957747E-01            NaN
         13   -1    0    0    0    0  0.00000000000E+00  0.00000000000E+00  0.74505805969E-08  0.10566000000E+00  0.10566000000E+00 0.  1.
     999900   -1    0    0    0    0 -0.00000000000E+00 -0.00000000000E+00 -0.74505805969E-08  0.93827000000E+00  0.93827000000E+00 0. -1.
     999902    2    1    2    0    0  0.72720783896E-02  0.16696343174E-01  0.16768034193E-01  0.10191748395E+01  0.10188741510E+01 0.  0.
     999903    2    3    3    0    0  0.10638638579E+00  0.65009389582E-01  0.38205102230E-01  0.13203485944E+00  0.20719325636E-01 0.  0.
         14    1    1    2    0    0 -0.72720783896E-02 -0.16696343174E-01 -0.16768034193E-01  0.24755160476E-01  0.00000000000E+00 0. -1.
     999901    1    3    3    0    0 -0.99114307400E-01 -0.48313046407E-01 -0.21437068037E-01  0.88713998009E+00  0.88000000000E+00 0.  1.
        -11    1    4    4    0    0  0.68587789544E-01  0.41019509560E-01  0.13992301285E-01  0.81135261480E-01  0.51100000000E-03 0. -1.
         11    1    4    4    0    0  0.37798596245E-01  0.23989880022E-01  0.24212800944E-01  0.50899597957E-01  0.51100000000E-03 0.  1.
</event>
<event>
 8    1  0.1088088E+005  0.1043930E+01  0.7957747E-01            NaN
         13   -1    0    0    0    0  0.00000000000E+00  0.00000000000E+00  0.74505805969E-08  0.10566000000E+00  0.10566000000E+00 0. -1.
     999900   -1    0    0    0    0 -0.00000000000E+00 -0.00000000000E+00 -0.74505805969E-08  0.93827000000E+00  0.93827000000E+00 0. -1.
     999902    2    1    2    0    0 -0.14816307796E-01  0.18375944674E-01  0.22595619076E-02  0.10202170512E+01  0.10199414335E+01 0.  0.
     999903    2    3    3    0    0 -0.11643516532E+00 -0.33186633281E-02 -0.60158172864E-01  0.13190797110E+00  0.14578951582E-01 0.  0.
         14    1    1    2    0    0  0.14816307796E-01 -0.18375944674E-01 -0.22595619076E-02  0.23712948770E-01  0.00000000000E+00 0.  1.
     999901    1    3    3    0    0  0.10161885752E+00  0.21694608002E-01  0.62417734772E-01  0.88830908013E+00  0.88000000000E+00 0.  1.
        -11    1    4    4    0    0 -0.44915768996E-01  0.48755029293E-02 -0.27149646878E-01  0.52712060099E-01  0.51100000000E-03 0. -1.
         11    1    4    4    0    0 -0.71519396323E-01 -0.81941662575E-02 -0.33008525987E-01  0.79195911005E-01  0.51100000000E-03 0.  1.
</event>
<event>
 8    1  0.1088088E+005  0.1043930E+01  0.7957747E-01            NaN
         13   -1    0    0    0    0  0.00000000000E+00  0.00000000000E+00  0.74505805969E-08  0.10566000000E+00  0.10566000000E+00 0.  1.
     999900   -1    0    0    0    0 -0.00000000000E+00 -0.00000000000E+00 -0.74505805969E-08  0.93827000000E+00  0.93827000000E+00 0.  1.
     999902    2    1    2    0    0  0.17506998732E-02  0.90290377493E-02  0.27193955326E-01  0.10152228636E+01  0.10148169111E+01 0.  0.
     999903    2    3    3    0    0 -0.91934028184E-01 -0.79552017454E-01 -0.18726213038E-01  0.12464322458E+00  0.20121465162E-01 0.  0.
         14    1    1    2    0    0 -0.17506998732E-02 -0.90290377493E-02 -0.27193955326E-01  0.28707136377E-01  0.00000000000E+00 0. -1.
     999901    1    3    3    0    0  0.93684728057E-01  0.88581055204E-01  0.45920168363E-01  0.89057963904E+00  0.88000000000E+00 0. -1.
        -11    1    4    4    0    0 -0.27387420542E-01 -0.34924212121E-01 -0.21465981851E-02  0.44436926097E-01  0.51100000000E-03 0.  1.
         11    1    4    4    0    0 -0.64546607641E-01 -0.44627805334E-01 -0.16579614853E-01  0.80206298484E-01  0.51100000000E-03 0. -1.
</event>
<event>
 8    1  0.1088088E+005  0.1043930E+01  0.7957747E-01            NaN
         13   -1    0    0    0    0  0.00000000000E+00  0.00000000000E+00  0.74505805969E-08  0.10566000000E+00  0.10566000000E+00 0. -1.
     999900   -1    0    0    0    0 -0.00000000000E+00 -0.00000000000E+00 -0.74505805969E-08  0.93827000000E+00  0.93827000000E+00 0.  1.
     999902    2    1    2    0    0  0.21981213168E-01  0.71123615131E-02  0.50705898739E-02  0.10202768755E+01  0.10200026629E+01 0.  0.
     999903    2    3    3    0    0  0.23839103367E-01  0.28716564842E-01 -0.12350576406E+00  0.13066905617E+00  0.20682952862E-01 0.  0.
         14    1    1    2    0    0 -0.21981213168E-01 -0.71123615131E-02 -0.50705898739E-02  0.23653124536E-01  0.00000000000E+00 0. -1.
     999901    1    3    3    0    0 -0.18578901994E-02 -0.21604203329E-01  0.12857635393E+00  0.88960781929E+00  0.88000000000E+00 0. -1.
        -11    1    4    4    0    0  0.38224996440E-02  0.10288302148E-01 -0.67656265564E-01  0.68542629478E-01  0.51100000000E-03 0.  1.
         11    1    4    4    0    0  0.20016603723E-01  0.18428262694E-01 -0.55849498495E-01  0.62126426693E-01  0.51100000000E-03 0. -1.
</event>
<event>
 8    1  0.1088088E+005  0.1043930E+01  0.7957747E-01            NaN
         13   -1    0    0    0    0  0.00000000000E+00  0.00000000000E+00  0.74505805969E-08  0.10566000000E+00  0.10566000000E+00 0.  1.
     999900   -1    0    0    0    0 -0.00000000000E+00 -0.00000000000E+00 -0.74505805969E-08  0.93827000000E+00  0.93827000000E+00 0.  1.
     999902    2    1    2    0    0  0.18569546001E-01  0.14751025326E-01 -0.51908878890E-03  0.10202089073E+01  0.10199330979E+01 0.  0.
     999903    2    3    3    0    0  0.52460596421E-01  0.98836633458E-01  0.68548705314E-01  0.13285928454E+00  0.20781486889E-01 0.  0.
         14    1    1    2    0    0 -0.18569546001E-01 -0.14751025326E-01  0.51908878890E-03  0.23721092724E-01  0.00000000000E+00 0.  1.
     999901    1    3    3    0    0 -0.33891050421E-01 -0.84085608132E-01 -0.69067794103E-01  0.88734962274E+00  0.88000000000E+00 0.  1.
        -11    1    4    4    0    0  0.13724277411E-01  0.17505133503E-01  0.22665217291E-01  0.31760961655E-01  0.51100000000E-03 0. -1.
         11    1    4    4    0    0  0.38736319010E-01  0.81331499955E-01  0.45883488023E-01  0.10109832288E+00  0.51100000000E-03 0.  1.
</event>
<event>
 8    1  0.1088088E+005  0.1043930E+01  0.7957747E-01            NaN
         13   -1    0    0    0    0  0.00000000000E+00  0.00000000000E+00  0.74505805969E-08  0.10566000000E+00  0.10566000000E+00 0.  1.
     999900   -1    0    0    0    0 -0.00000000000E+00 -0.00000000000E+00 -0.74505805969E-08  0.93827000000E+00  0.93827000000E+00 0.  1.
     999902    2    1    2    0    0  0.72672037051E-02 -0.38819188545E-02 -0.22411966196E-01  0.10200516045E+01  0.10197720814E+01 0.  0.
     999903    2    3    3    0    0  0.74580364015E-03 -0.11211821301E+00 -0.67244185789E-01  0.13226359378E+00  0.20020684435E-01 0.  0.
         14    1    1    2    0    0 -0.72672037051E-02  0.38819188545E-02  0.22411966196E-01  0.23878395517E-01  0.00000000000E+00 0.  1.
     999901    1    3    3    0    0  0.65214000650E-02  0.10823629416E+00  0.44832219593E-01  0.88778801070E+00  0.88000000000E+00 0. -1.
        -11    1    4    4    0    0  0.41287159930E-02 -0.89843270225E-01 -0.44885126959E-01  0.10051763648E+00  0.51100000000E-03 0. -1.
         11    1    4    4    0    0 -0.33829123529E-02 -0.22274942788E-01 -0.22359058830E-01  0.31745957301E-01  0.51100000000E-03 0.  1.
</event>
<event>
 8    1  0.1088088E+005  0.1043930E+01  0.7957747E-01            NaN
         13   -1    0    0    0    0  0.00000000000E+00  0.00000000000E+00  0.74505805969E-08  0.10566000000E+00  0.10566000000E+00 0.  1.
     999900   -1    0    0    0    0 -0.00000000000E+00 -0.00000000000E+00 -0.74505805969E-08  0.93827000000E+00  0.93827000000E+00 0.  1.
     999902    2    1    2    0    0 -0.34168845667E-02  0.77781209009E-02 -0.23393732051E-01  0.10190414290E+01  0.10187374505E+01 0.  0.
     999903    2    3    3    0    0  0.13290498238E-01  0.96659249767E-01 -0.86953832883E-01  0.13212605646E+00  0.19408189865E-01 0.  0.
         14    1    1    2    0    0  0.34168845667E-02 -0.77781209009E-02  0.23393732051E-01  0.24888570955E-01  0.00000000000E+00 0.  1.
     999901    1    3    3    0    0 -0.16707382805E-01 -0.88881128866E-01  0.63560100832E-01  0.88691537258E+00  0.88000000000E+00 0. -1.
        -11    1    4    4    0    0 -0.44488431083E-02  0.24731898866E-01 -0.17969522484E-01  0.30896988297E-01  0.51100000000E-03 0.  1.
         11    1    4    4    0    0  0.17739341346E-01  0.71927350901E-01 -0.68984310399E-01  0.10122906816E+00  0.51100000000E-03 0. -1.
</event>
<event>
 8    1  0.1088088E+005  0.1043930E+01  0.7957747E-01            NaN
         13   -1    0    0    0    0  0.00000000000E+00  0.00000000000E+00  0.74505805969E-08  0.10566000000E+00  0.10566000000E+00 0.  1.
     999900   -1    0    0    0    0 -0.00000000000E+00 -0.00000000000E+00 -0.74505805969E-08  0.93827000000E+00  0.93827000000E+00 0.  1.
     999902    2    1    2    0    0 -0.16498264599E-01  0.16309085150E-01  0.23881505917E-02  0.10206087167E+01  0.10203422319E+01 0.  0.
     999903    2    3    3    0    0  0.25462685930E-01  0.28094305922E-01  0.12393737007E+00  0.13118540600E+00  0.20285478729E-01 0.  0.
         14    1    1    2    0    0  0.16498264599E-01 -0.16309085150E-01 -0.23881505917E-02  0.23321283336E-01  0.00000000000E+00 0. -1.
     999901    1    3    3    0    0 -0.41960950529E-01 -0.11785220772E-01 -0.12154921948E+00  0.88942331066E+00  0.88000000000E+00 0.  1.
        -11    1    4    4    0    0  0.88412659588E-02  0.23502438613E-01  0.84170245598E-01  0.87837486129E-01  0.51100000000E-03 0. -1.
         11    1    4    4    0    0  0.16621419972E-01  0.45918673088E-02  0.39767124472E-01  0.43347919870E-01  0.51100000000E-03 0.  1.
</event>
<event>
 8    1  0.1088088E+005  0.1043930E+01  0.7957747E-01            NaN
         13   -1    0    0    0    0  0.00000000000E+00  0.00000000000E+00  0.74505805969E-08  0.10566000000E+00  0.10566000000E+00 0.  1.
     999900   -1    0    0    0    0 -0.00000000000E+00 -0.00000000000E+00 -0.74505805969E-08  0.93827000000E+00  0.93827000000E+00 0.  1.
     999902    2    1    2    0    0  0.11112913727E-02  0.24401330755E-01 -0.24957953521E-02  0.10193762038E+01  0.10190804463E+01 0.  0.
     999903    2    3    3    0    0  0.12577001029E-01 -0.81749944759E-01 -0.95718256113E-01  0.12803452807E+00  0.19738829771E-01 0.  0.
         14    1    1    2    0    0 -0.11112913727E-02 -0.24401330755E-01  0.24957953521E-02  0.24553796154E-01  0.00000000000E+00 0.  1.
     999901    1    3    3    0    0 -0.11465709657E-01  0.10615127551E+00  0.93222460761E-01  0.89134167578E+00  0.88000000000E+00 0.  1.
        -11    1    4    4    0    0 -0.13734160798E-02 -0.14508792769E-01 -0.28096006561E-01  0.31654984521E-01  0.51100000000E-03 0. -1.
         11    1    4    4    0    0  0.13950417109E-01 -0.67241151990E-01 -0.67622249552E-01  0.96379543545E-01  0.51100000000E-03 0.  1.
</event>
<event>
 8    1  0.1088088E+005  0.1043930E+01  0.7957747E-01            NaN
         13   -1    0    0    0    0  0.00000000000E+00  0.00000000000E+00  0.74505805969E-08  0.10566000000E+00  0.10566000000E+00 0.  1.
     999900   -1    0    0    0    0 -0.00000000000E+00 -0.00000000000E+00 -0.74505805969E-08  0.93827000000E+00  0.93827000000E+00 0.  1.
     999902    2    1    2    0    0 -0.19723067445E-01 -0.98317396343E-02  0.79048332109E-02  0.10205174204E+01  0.10202488209E+01 0.  0.
     999903    2    3    3    0    0 -0.89753693236E-01  0.14453308935E-01 -0.93473648200E-01  0.13160142405E+00  0.17804165715E-01 0.  0.
         14    1    1    2    0    0  0.19723067445E-01  0.98317396343E-02 -0.79048332109E-02  0.23412579562E-01  0.00000000000E+00 0. -1.
     999901    1    3    3    0    0  0.70030625791E-01 -0.24285048569E-01  0.10137848141E+00  0.88891599638E+00  0.88000000000E+00 0. -1.
        -11    1    4    4    0    0 -0.37539412550E-01 -0.80465611174E-03 -0.30444468094E-01  0.48342338841E-01  0.51100000000E-03 0.  1.
         11    1    4    4    0    0 -0.52214280686E-01  0.15257965046E-01 -0.63029180106E-01  0.83259085214E-01  0.51100000000E-03 0. -1.
</event>
<event>
 8    1  0.1088088E+005  0.1043930E+01  0.7957747E-01            NaN
         13   -1    0    0    0    0  0.00000000000E+00  0.00000000000E+00  0.74505805969E-08  0.10566000000E+00  0.10566000000E+00 0.  1.
     999900   -1    0    0    0    0 -0.00000000000E+00 -0.00000000000E+00 -0.74505805969E-08  0.93827000000E+00  0.93827000000E+00 0. -1.
     999902    2    1    2    0    0 -0.14647839640E-01  0.97313509940E-02 -0.16440472836E-01  0.10198562063E+01  0.10195720347E+01 0.  0.
     999903    2    3    3    0    0 -0.52333172814E-01 -0.32913619577E-02  0.11622116887E+00  0.12902014582E+00  0.19729264903E-01 0.  0.
         14    1    1    2    0    0  0.14647839640E-01 -0.97313509940E-02  0.16440472836E-01  0.24073793746E-01  0.00000000000E+00 0.  1.
     999901    1    3    3    0    0  0.37685333174E-01  0.13022712952E-01 -0.13266164171E+00  0.89083606043E+00  0.88000000000E+00 0. -1.
        -11    1    4    4    0    0 -0.12400231726E-01 -0.69398277345E-02  0.46081479358E-01  0.48225416708E-01  0.51100000000E-03 0. -1.
         11    1    4    4    0    0 -0.39932941088E-01  0.36484657769E-02  0.70139689512E-01  0.80794729112E-01  0.51100000000E-03 0.  1.
</event>
<event>
 8    1  0.1088088E+005  0.1043930E+01  0.7957747E-01            NaN
         13   -1    0    0    0    0  0.00000000000E+00  0.00000000000E+00  0.74505805969E-08  0.10566000000E+00  0.10566000000E+00 0. -1.
     999900   -1    0    0    0    0 -0.00000000000E+00 -0.00000000000E+00 -0.74505805969E-08  0.93827000000E+00  0.93827000000E+00 0.  1.
     999902    2    1    2    0    0 -0.16260673116E-01  0.15160803245E-01  0.57571789418E-02  0.10209647098E+01  0.10207063897E+01 0.  0.
     999903    2    3    3    0    0 -0.64869065377E-01  0.86639941617E-01 -0.74853652429E-01  0.13306260417E+00  0.19700563975E-01 0.  0.
         14    1    1    2    0    0  0.16260673116E-01 -0.15160803245E-01 -0.57571789418E-02  0.22965290213E-01  0.00000000000E+00 0.  1.
     999901    1    3    3    0    0  0.48608392260E-01 -0.71479138372E-01  0.80610831370E-01  0.88790210561E+00  0.88000000000E+00 0. -1.
        -11    1    4    4    0    0 -0.25773972919E-01  0.48573014504E-01 -0.43599334297E-01  0.70176908525E-01  0.51100000000E-03 0. -1.
         11    1    4    4    0    0 -0.39095092458E-01  0.38066927113E-01 -0.31254318132E-01  0.62885695647E-01  0.51100000000E-03 0.  1.
</event>
<event>
 8    1  0.1088088E+005  0.1043930E+01  0.7957747E-01            NaN
         13   -1    0    0    0    0  0.00000000000E+00  0.00000000000E+00  0.74505805969E-08  0.10566000000E+00  0.10566000000E+00 0. -1.
     999900   -1    0    0    0    0 -0.00000000000E+00 -0.00000000000E+00 -0.74505805969E-08  0.93827000000E+00  0.93827000000E+00 0.  1.
     999902    2    1    2    0    0 -0.90147049539E-02  0.17061937473E-01  0.16189695005E-01  0.10187410969E+01  0.10184296449E+01 0.  0.
     999903    2    3    3    0    0 -0.52043782482E-01  0.30728670595E-01 -0.11149581724E+00  0.12838056814E+00  0.19936060835E-01 0.  0.
         14    1    1    2    0    0  0.90147049539E-02 -0.17061937473E-01 -0.16189695005E-01  0.25188903114E-01  0.00000000000E+00 0.  1.
     999901    1    3    3    0    0  0.43029077528E-01 -0.13666733123E-01  0.12768551225E+00  0.89036052874E+00  0.88000000000E+00 0. -1.
        -11    1    4    4    0    0 -0.27072070010E-01  0.58273876497E-02 -0.39924060607E-01  0.48590607712E-01  0.51100000000E-03 0. -1.
         11    1    4    4    0    0 -0.24971712472E-01  0.24901282946E-01 -0.71571756638E-01  0.79789960430E-01  0.51100000000E-03 0.  1.
</event>
<event>
 8    1  0.1088088E+005  0.1043930E+01  0.7957747E-01            NaN
         13   -1    0    0    0    0  0.00000000000E+00  0.00000000000E+00  0.74505805969E-08  0.10566000000E+00  0.10566000000E+00 0.  1.
     999900   -1    0    0    0    0 -0.00000000000E+00 -0.00000000000E+00 -0.74505805969E-08  0.93827000000E+00  0.93827000000E+00 0. -1.
     999902    2    1    2    0    0  0.24298964319E-01  0.57708439672E-02  0.23177681152E-01  0.10098573246E+01  0.10092823534E+01 0.  0.
     999903    2    3    3    0    0  0.81674304758E-01  0.88202988499E-01  0.23330474556E-01  0.12414461072E+00  0.20423371155E-01 0.  0.
         14    1    1    2    0    0 -0.24298964319E-01 -0.57708439672E-02 -0.23177681152E-01  0.34072675425E-01  0.00000000000E+00 0. -1.
     999901    1    3    3    0    0 -0.57375340439E-01 -0.82432144532E-01 -0.15279340405E-03  0.88571271386E+00  0.88000000000E+00 0. -1.
        -11    1    4    4    0    0  0.46688190557E-01  0.62921902822E-01  0.19902424818E-01  0.80841329942E-01  0.51100000000E-03 0.  1.
         11    1    4    4    0    0  0.34986114200E-01  0.25281085677E-01  0.34280497383E-02  0.43303280775E-01  0.51100000000E-03 0. -1.
</event>
<event>
 8    1  0.1088088E+005  0.1043930E+01  0.7957747E-01            NaN
         13   -1    0    0    0    0  0.00000000000E+00  0.00000000000E+00  0.74505805969E-08  0.10566000000E+00  0.10566000000E+00 0.  1.
     999900   -1    0    0    0    0 -0.00000000000E+00 -0.00000000000E+00 -0.74505805969E-08  0.93827000000E+00  0.93827000000E+00 0.  1.
     999902    2    1    2    0    0  0.72001776462E-02  0.19765178417E-01 -0.12196366809E-01  0.10196142397E+01  0.10193242573E+01 0.  0.
     999903    2    3    3    0    0 -0.95277341754E-01  0.77111742277E-01  0.39400764581E-01  0.13031533925E+00  0.20141368982E-01 0.  0.
         14    1    1    2    0    0 -0.72001776462E-02 -0.19765178417E-01  0.12196366809E-01  0.24315760307E-01  0.00000000000E+00 0.  1.
     999901    1    3    3    0    0  0.10247751940E+00 -0.57346563860E-01 -0.51597131389E-01  0.88929890045E+00  0.88000000000E+00 0.  1.
        -11    1    4    4    0    0 -0.69041702954E-01  0.50935384365E-01  0.18523503491E-01  0.87775574221E-01  0.51100000000E-03 0. -1.
         11    1    4    4    0    0 -0.26235638800E-01  0.26176357912E-01  0.20877261089E-01  0.42539765025E-01  0.51100000000E-03 0.  1.
</event>
<event>
 8    1  0.1088088E+005  0.1043930E+01  0.7957747E-01            NaN
         13   -1    0    0    0    0  0.00000000000E+00  0.00000000000E+00  0.74505805969E-08  0.10566000000E+00  0.10566000000E+00 0. -1.
     999900   -1    0    0    0    0 -0.00000000000E+00 -0.00000000000E+00 -0.74505805969E-08  0.93827000000E+00  0.93827000000E+00 0.  1.
     999902    2    1    2    0    0 -0.17585934096E-01 -0.62112444009E-02 -0.15278124635E-01  0.10198205469E+01  0.10195355228E+01 0.  0.
     999903    2    3    3    0    0  0.10702062319E+00  0.47229918614E-01  0.45575765673E-01  0.12735993268E+00  0.21431822939E-01 0.  0.
         14    1    1    2    0    0  0.17585934096E-01  0.62112444009E-02  0.15278124635E-01  0.24109453071E-01  0.00000000000E+00 0.  1.
     999901    1    3    3    0    0 -0.12460655729E+00 -0.53441163015E-01 -0.60853890308E-01  0.89246061425E+00  0.88000000000E+00 0.  1.
        -11    1    4    4    0    0  0.91079549736E-01  0.32067977246E-01  0.40880892255E-01  0.10485870501E+00  0.51100000000E-03 0.  1.
         11    1    4    4    0    0  0.15941073456E-01  0.15161941368E-01  0.46948734186E-02  0.22501227664E-01  0.51100000000E-03 0. -1.
</event>
<event>
 8    1  0.1088088E+005  0.1043930E+01  0.7957747E-01            NaN
         13   -1    0    0    0    0  0.00000000000E+00  0.00000000000E+00  0.74505805969E-08  0.10566000000E+00  0.10566000000E+00 0.  1.
     999900   -1    0    0    0    0 -0.00000000000E+00 -0.00000000000E+00 -0.74505805969E-08  0.93827000000E+00  0.93827000000E+00 0. -1.
     999902    2    1    2    0    0  0.22301004092E-01 -0.11272704490E-01 -0.52621085441E-04  0.10189417744E+01  0.10186353264E+01 0.  0.
     999903    2    3    3    0    0  0.37918059275E-01 -0.10330945944E+00  0.68914031958E-01  0.13132076523E+00  0.19630994629E-01 0.  0.
         14    1    1    2    0    0 -0.22301004092E-01  0.11272704490E-01  0.52621085441E-04  0.24988225608E-01  0.00000000000E+00 0.  1.
     999901    1    3    3    0    0 -0.15617055183E-01  0.92036754953E-01 -0.68966653043E-01  0.88762100916E+00  0.88000000000E+00 0.  1.
        -11    1    4    4    0    0  0.99327641251E-02 -0.11937726326E-01  0.48743903842E-02  0.16284652763E-01  0.51100000000E-03 0.  1.
         11    1    4    4    0    0  0.27985295150E-01 -0.91371733118E-01  0.64039641573E-01  0.11503611247E+00  0.51100000000E-03 0. -1.
</event>
<event>
 8    1  0.1088088E+005  0.1043930E+01  0.7957747E-01            NaN
         13   -1    0    0    0    0  0.00000000000E+00  0.00000000000E+00  0.74505805969E-08  0.10566000000E+00  0.10566000000E+00 0. -1.
     999900   -1    0    0    0    0 -0.00000000000E+00 -0.00000000000E+00 -0.74505805969E-08  0.93827000000E+00  0.93827000000E+00 0. -1.
     999902    2    1    2    0    0  0.15888182921E-01  0.26448289137E-02  0.17236212757E-01  0.10203393979E+01  0.10200666500E+01 0.  0.
     999903    2    3    3    0    0 -0.32870344088E-01  0.10568413894E+00 -0.64025187870E-01  0.12927379506E+00  0.19049741783E-01 0.  0.
         14    1    1    2    0    0 -0.15888182921E-01 -0.26448289137E-02 -0.17236212757E-01  0.23590602085E-01  0.00000000000E+00 0.  1.
     999901    1    3    3    0    0  0.48758527009E-01 -0.10303931003E+00  0.81261400626E-01  0.89106560286E+00  0.88000000000E+00 0.  1.
        -11    1    4    4    0    0 -0.28470314757E-01  0.67588342390E-01 -0.35532881779E-01  0.81495948721E-01  0.51100000000E-03 0. -1.
         11    1    4    4    0    0 -0.44000293307E-02  0.38095796553E-01 -0.28492306090E-01  0.47777846335E-01  0.51100000000E-03 0.  1.
</event>
<event>
 8    1  0.1088088E+005  0.1043930E+01  0.7957747E-01            NaN
         13   -1    0    0    0    0  0.00000000000E+00  0.00000000000E+00  0.74505805969E-08  0.10566000000E+00  0.10566000000E+00 0.  1.
     999900   -1    0    0    0    0 -0.00000000000E+00 -0.00000000000E+00 -0.74505805969E-08  0.93827000000E+00  0.93827000000E+00 0. -1.
     999902    2    1    2    0    0 -0.23588347586E-01 -0.26466070820E-03  0.24499061514E-02  0.10202132922E+01  0.10199375860E+01 0.  0.
     999903    2    3    3    0    0 -0.53738611958E-01 -0.99866540624E-01 -0.63890078930E-01  0.13160169736E+00  0.19388146142E-01 0.  0.
         14    1    1    2    0    0  0.23588347586E-01  0.26466070820E-03 -0.24499061514E-02  0.23716707766E-01  0.00000000000E+00 0.  1.
     999901    1    3    3    0    0  0.30150264373E-01  0.99601879916E-01  0.66339985081E-01  0.88861159487E+00  0.88000000000E+00 0.  1.
        -11    1    4    4    0    0 -0.14986696540E-01 -0.12677184516E-01 -0.11179765779E-01  0.22595582849E-01  0.51100000000E-03 0.  1.
         11    1    4    4    0    0 -0.38751915418E-01 -0.87189356108E-01 -0.52710313151E-01  0.10900611451E+00  0.51100000000E-03 0. -1.
</event>
<event>
 8    1  0.1088088E+005  0.1043930E+01  0.7957747E-01            NaN
         13   -1    0    0    0    0  0.00000000000E+00  0.00000000000E+00  0.74505805969E-08  0.10566000000E+00  0.10566000000E+00 0.  1.
     999900   -1    0    0    0    0 -0.00000000000E+00 -0.00000000000E+00 -0.74505805969E-08  0.93827000000E+00  0.93827000000E+00 0. -1.
     999902    2    1    2    0    0 -0.15957790795E-01 -0.17214602342E-01 -0.42375321412E-02  0.10200773209E+01  0.10197984067E+01 0.  0.
     999903    2    3    3    0    0 -0.12751189174E+00 -0.26455436743E-01 -0.17077591300E-01  0.13289381252E+00  0.20247187741E-01 0.  0.
         14    1    1    2    0    0  0.15957790795E-01  0.17214602342E-01  0.42375321412E-02  0.23852679084E-01  0.00000000000E+00 0.  1.
     999901    1    3    3    0    0  0.11155410095E+00  0.92408344013E-02  0.12840059159E-01  0.88718350840E+00  0.88000000000E+00 0.  1.
        -11    1    4    4    0    0 -0.99263434615E-01 -0.23861035936E-01 -0.21065526360E-01  0.10424296623E+00  0.51100000000E-03 0.  1.
         11    1    4    4    0    0 -0.28248457126E-01 -0.25944008072E-02  0.39879350593E-02  0.28650846281E-01  0.51100000000E-03 0. -1.
</event>
<event>
 8    1  0.1088088E+005  0.1043930E+01  0.7957747E-01            NaN
         13   -1    0    0    0    0  0.00000000000E+00  0.00000000000E+00  0.74505805969E-08  0.10566000000E+00  0.10566000000E+00 0.  1.
     999900   -1    0    0    0    0 -0.00000000000E+00 -0.00000000000E+00 -0.74505805969E-08  0.93827000000E+00  0.93827000000E+00 0. -1.
     999902    2    1    2    0    0 -0.16558929786E-01 -0.16372828880E-01  0.47318330180E-02  0.10201674680E+01  0.10198906828E+01 0.  0.
     999903    2    3    3    0    0 -0.20859577149E-01  0.17847679086E-01 -0.12528340364E+00  0.12994642780E+00  0.20892133985E-01 0.  0.
         14    1    1    2    0    0  0.16558929786E-01  0.16372828880E-01 -0.47318330180E-02  0.23762531955E-01  0.00000000000E+00 0. -1.
     999901    1    3    3    0    0  0.43006473626E-02 -0.34220507966E-01  0.13001523666E+00  0.89022104025E+00  0.88000000000E+00 0.  1.
        -11    1    4    4    0    0 -0.10562221570E-01  0.21082165000E-01 -0.81017269064E-01  0.84380549970E-01  0.51100000000E-03 0.  1.
         11    1    4    4    0    0 -0.10297355579E-01 -0.32344859139E-02 -0.44266134576E-01  0.45565877830E-01  0.51100000000E-03 0. -1.
</event>
<event>
 8    1  0.1088088E+005  0.1043930E+01  0.7957747E-01            NaN
         13   -1    0    0    0    0  0.00000000000E+00  0.00000000000E+00  0.74505805969E-08  0.10566000000E+00  0.10566000000E+00 0. -1.
     999900   -1    0    0    0    0 -0.00000000000E+00 -0.00000000000E+00 -0.74505805969E-08  0.93827000000E+00  0.93827000000E+00 0. -1.
     999902    2    1    2    0    0 -0.13154113852E-01  0.15563525433E-02  0.19549240212E-01  0.10203158996E+01  0.10200426017E+01 0.  0.
     999903    2    3    3    0    0 -0.84582916551E-01 -0.85900275926E-01  0.51015313085E-01  0.13254292781E+00  0.20783126955E-01 0.  0.
         14    1    1    2    0    0  0.13154113852E-01 -0.15563525433E-02 -0.19549240212E-01  0.23614100392E-01  0.00000000000E+00 0.  1.
     999901    1    3    3    0    0  0.71428802699E-01  0.87456628470E-01 -0.31466072873E-01  0.88777297180E+00  0.88000000000E+00 0. -1.
        -11    1    4    4    0    0 -0.33640135559E-01 -0.48551295224E-01  0.27240537634E-01  0.65047636390E-01  0.51100000000E-03 0. -1.
         11    1    4    4    0    0 -0.50942780992E-01 -0.37348980702E-01  0.23774775450E-01  0.67495291417E-01  0.51100000000E-03 0.  1.
</event>
<event>
 8    1  0.1088088E+005  0.1043930E+01  0.7957747E-01            NaN
         13   -1    0    0    0    0  0.00000000000E+00  0.00000000000E+00  0.74505805969E-08  0.10566000000E+00  0.10566000000E+00 0.  1.
     999900   -1    0    0    0    0 -0.00000000000E+00 -0.00000000000E+00 -0.74505805969E-08  0.93827000000E+00  0.93827000000E+00 0. -1.
     999902    2    1    2    0    0 -0.72645618937E-02  0.42604358527E-02  0.24042369871E-01  0.10184552925E+01  0.10181366422E+01 0.  0.
     999903    2    3    3    0    0  0.24444470924E-02  0.60201915361E-01  0.11364680067E+00  0.13208478983E+00  0.30009173062E-01 0.  0.
         14    1    1    2    0    0  0.72645618937E-02 -0.42604358527E-02 -0.24042369871E-01  0.25474707499E-01  0.00000000000E+00 0. -1.
     999901    1    3    3    0    0 -0.97090089861E-02 -0.55941479509E-01 -0.89604430797E-01  0.88637050267E+00  0.88000000000E+00 0. -1.
        -11    1    4    4    0    0 -0.38145487284E-02  0.10059679791E-01  0.48254730438E-01  0.49442168946E-01  0.51100000000E-03 0.  1.
         11    1    4    4    0    0  0.62589958208E-02  0.50142235571E-01  0.65392070230E-01  0.82642620885E-01  0.51100000000E-03 0. -1.
</event>
<event>
 8    1  0.1088088E+005  0.1043930E+01  0.7957747E-01            NaN
         13   -1    0    0    0    0  0.00000000000E+00  0.00000000000E+00  0.74505805969E-08  0.10566000000E+00  0.10566000000E+00 0. -1.
     999900   -1    0    0    0    0 -0.00000000000E+00 -0.00000000000E+00 -0.74505805969E-08  0.93827000000E+00  0.93827000000E+00 0. -1.
     999902    2    1    2    0    0 -0.18893337913E-01 -0.10766579753E-01  0.86960240422E-02  0.10205099596E+01  0.10202411869E+01 0.  0.
     999903    2    3    3    0    0 -0.10604256456E+00 -0.72209306125E-01 -0.30025668444E-01  0.13322783662E+00  0.19720707320E-01 0.  0.
         14    1    1    2    0    0  0.18893337913E-01  0.10766579753E-01 -0.86960240422E-02  0.23420040376E-01  0.00000000000E+00 0. -1.
     999901    1    3    3    0    0  0.87149226643E-01  0.61442726372E-01  0.38721692486E-01  0.88728212300E+00  0.88000000000E+00 0. -1.
        -11    1    4    4    0    0 -0.33748007667E-01 -0.21874212285E-01 -0.18884599998E-01  0.44433078024E-01  0.51100000000E-03 0.  1.
         11    1    4    4    0    0 -0.72294556888E-01 -0.50335093840E-01 -0.11141068446E-01  0.88794758599E-01  0.51100000000E-03 0. -1.
</event>
<event>
 8    1  0.1088088E+005  0.1043930E+01  0.7957747E-01            NaN
         13   -1    0    0    0    0  0.00000000000E+00  0.00000000000E+00  0.74505805969E-08  0.10566000000E+00  0.10566000000E+00 0.  1.
     999900   -1    0    0    0    0 -0.00000000000E+00 -0.00000000000E+00 -0.74505805969E-08  0.93827000000E+00  0.93827000000E+00 0. -1.
     999902    2    1    2    0    0 -0.10431700449E-01  0.22704730968E-01  0.25668591113E-02  0.10188119995E+01  0.10185023203E+01 0.  0.
     999903    2    3    3    0    0 -0.11057426291E+00  0.77229483933E-02 -0.65608354933E-01  0.13038594945E+00  0.20241739742E-01 0.  0.
         14    1    1    2    0    0  0.10431700449E-01 -0.22704730968E-01 -0.25668591113E-02  0.25118000483E-01  0.00000000000E+00 0.  1.
     999901    1    3    3    0    0  0.10014256246E+00  0.14981782575E-01  0.68175214044E-01  0.88842605007E+00  0.88000000000E+00 0. -1.
        -11    1    4    4    0    0 -0.66183609005E-01 -0.52846770808E-02 -0.37443318231E-01  0.76226380695E-01  0.51100000000E-03 0. -1.
         11    1    4    4    0    0 -0.44390653903E-01  0.13007625474E-01 -0.28165036702E-01  0.54159568756E-01  0.51100000000E-03 0.  1.
</event>
<event>
 8    1  0.1088088E+005  0.1043930E+01  0.7957747E-01            NaN
         13   -1    0    0    0    0  0.00000000000E+00  0.00000000000E+00  0.74505805969E-08  0.10566000000E+00  0.10566000000E+00 0.  1.
     999900   -1    0    0    0    0 -0.00000000000E+00 -0.00000000000E+00 -0.74505805969E-08  0.93827000000E+00  0.93827000000E+00 0. -1.
     999902    2    1    2    0    0  0.15404952448E-02 -0.22610647910E-01  0.72244249289E-02  0.10201433054E+01  0.10198659504E+01 0.  0.
     999903    2    3    3    0    0  0.92049797744E-01  0.78115287786E-01 -0.39806866596E-01  0.12854384917E+00  0.19072783787E-01 0.  0.
         14    1    1    2    0    0 -0.15404952448E-02  0.22610647910E-01 -0.72244249289E-02  0.23786694601E-01  0.00000000000E+00 0. -1.
     999901    1    3    3    0    0 -0.90509302499E-01 -0.10072593570E+00  0.47031291525E-01  0.89159945623E+00  0.88000000000E+00 0.  1.
        -11    1    4    4    0    0  0.11316050003E-01  0.12801260588E-01  0.62259697704E-03  0.17104794892E-01  0.51100000000E-03 0.  1.
         11    1    4    4    0    0  0.80733747741E-01  0.65314027198E-01 -0.40429463573E-01  0.11143905428E+00  0.51100000000E-03 0. -1.
</event>
<event>
 8    1  0.1088088E+005  0.1043930E+01  0.7957747E-01            NaN
         13   -1    0    0    0    0  0.00000000000E+00  0.00000000000E+00  0.74505805969E-08  0.10566000000E+00  0.10566000000E+00 0.  1.
     999900   -1    0    0    0    0 -0.00000000000E+00 -0.00000000000E+00 -0.74505805969E-08  0.93827000000E+00  0.93827000000E+00 0. -1.
     999902    2    1    2    0    0  0.49105513927E-02  0.18661440942E-01 -0.10764045997E-01  0.10218341276E+01  0.10215952020E+01 0.  0.
     999903    2    3    3    0    0 -0.18595891198E-01 -0.80051749513E-01  0.98008596763E-01  0.12934976655E+00  0.19276599763E-01 0.  0.
         14    1    1    2    0    0 -0.49105513927E-02 -0.18661440942E-01  0.10764045997E-01  0.22095872448E-01  0.00000000000E+00 0. -1.
     999901    1    3    3    0    0  0.23506442591E-01  0.98713190455E-01 -0.10877264276E+00  0.89248436100E+00  0.88000000000E+00 0. -1.
        -11    1    4    4    0    0 -0.88584037722E-03  0.92211020042E-03  0.27590559488E-02  0.30835873791E-02  0.51100000000E-03 0.  1.
         11    1    4    4    0    0 -0.17710050821E-01 -0.80973859713E-01  0.95249540814E-01  0.12626617917E+00  0.51100000000E-03 0. -1.
</event>
<event>
 8    1  0.1088088E+005  0.1043930E+01  0.7957747E-01            NaN
         13   -1    0    0    0    0  0.00000000000E+00  0.00000000000E+00  0.74505805969E-08  0.10566000000E+00  0.10566000000E+00 0. -1.
     999900   -1    0    0    0    0 -0.00000000000E+00 -0.00000000000E+00 -0.74505805969E-08  0.93827000000E+00  0.93827000000E+00 0.  1.
     999902    2    1    2    0    0  0.22639465194E-01 -0.52713822738E-02  0.31797496275E-02  0.10204684642E+01  0.10201987271E+01 0.  0.
     999903    2    3    3    0    0 -0.56457499634E-01  0.11342831489E+00 -0.11979668940E-01  0.12885433468E+00  0.20161726457E-01 0.  0.
         14    1    1    2    0    0 -0.22639465194E-01  0.52713822738E-02 -0.31797496275E-02  0.23461535820E-01  0.00000000000E+00 0. -1.
     999901    1    3    3    0    0  0.79096964828E-01 -0.11869969717E+00  0.15159418567E-01  0.89161412950E+00  0.88000000000E+00 0. -1.
        -11    1    4    4    0    0 -0.12466030163E-01  0.23292264802E-01  0.56407147713E-02  0.27018702629E-01  0.51100000000E-03 0.  1.
         11    1    4    4    0    0 -0.43991469470E-01  0.90136050091E-01 -0.17620383711E-01  0.10183563205E+00  0.51100000000E-03 0. -1.
</event>
<event>
 8    1  0.1088088E+005  0.1043930E+01  0.7957747E-01            NaN
         13   -1    0    0    0    0  0.00000000000E+00  0.00000000000E+00  0.74505805969E-08  0.10566000000E+00  0.10566000000E+00 0.  1.
     999900   -1    0    0    0    0 -0.00000000000E+00 -0.00000000000E+00 -0.74505805969E-08  0.93827000000E+00  0.93827000000E+00 0.  1.
     999902    2    1    2    0    0 -0.15971909223E-01 -0.12196793657E-01  0.91508363192E-02  0.10218483002E+01  0.10216096844E+01 0.  0.
     999903    2    3    3    0    0 -0.47680869289E-01  0.24907810213E-01 -0.11814587543E+00  0.13135031449E+00  0.20014817708E-01 0.  0.
         14    1    1    2    0    0  0.15971909223E-01  0.12196793657E-01 -0.91508363192E-02  0.22081699777E-01  0.00000000000E+00 0. -1.
     999901    1    3    3    0    0  0.31708960067E-01 -0.37104603870E-01  0.12729671175E+00  0.89049798574E+00  0.88000000000E+00 0. -1.
        -11    1    4    4    0    0 -0.10643999646E-01  0.19656194581E-02 -0.99503417099E-02  0.14711519618E-01  0.51100000000E-03 0. -1.
         11    1    4    4    0    0 -0.37036869643E-01  0.22942190755E-01 -0.10819553372E+00  0.11663879487E+00  0.51100000000E-03 0.  1.
</event>
<event>
 8    1  0.1088088E+005  0.1043930E+01  0.7957747E-01            NaN
         13   -1    0    0    0    0  0.00000000000E+00  0.00000000000E+00  0.74505805969E-08  0.10566000000E+00  0.10566000000E+00 0.  1.
     999900   -1    0    0    0    0 -0.00000000000E+00 -0.00000000000E+00 -0.74505805969E-08  0.93827000000E+00  0.93827000000E+00 0. -1.
     999902    2    1    2    0    0  0.18787837448E-01  0.58329172043E-02 -0.13796441313E-01  0.10199019424E+01  0.10196188624E+01 0.  0.
     999903    2    3    3    0    0  0.11051388579E+00 -0.48480021823E-01  0.47947356862E-01  0.13132113015E+00  0.19561664654E-01 0.  0.
         14    1    1    2    0    0 -0.18787837448E-01 -0.58329172043E-02  0.13796441313E-01  0.24028057599E-01  0.00000000000E+00 0. -1.
     999901    1    3    3    0    0 -0.91726048346E-01  0.54312939027E-01 -0.61743798174E-01  0.88858081225E+00  0.88000000000E+00 0. -1.
        -11    1    4    4    0    0  0.39498402386E-01 -0.24716701753E-01  0.25619951803E-01  0.53175954980E-01  0.51100000000E-03 0.  1.
         11    1    4    4    0    0  0.71015483408E-01 -0.23763320070E-01  0.22327405059E-01  0.78145175168E-01  0.51100000000E-03 0. -1.
</event>
<event>
 8    1  0.1088088E+005  0.1043930E+01  0.7957747E-01            NaN
         13   -1    0    0    0    0  0.00000000000E+00  0.00000000000E+00  0.74505805969E-08  0.10566000000E+00  0.10566000000E+00 0.  1.
     999900   -1    0    0    0    0 -0.00000000000E+00 -0.00000000000E+00 -0.74505805969E-08  0.93827000000E+00  0.93827000000E+00 0. -1.
     999902    2    1    2    0    0  0.13772322675E-01  0.60045322306E-02 -0.17889840636E-01  0.10205681149E+01  0.10203006907E+01 0.  0.
     999903    2    3    3    0    0 -0.29548435342E-01  0.86506588304E-01 -0.93946924084E-01  0.13256926968E+00  0.19801183479E-01 0.  0.
         14    1    1    2    0    0 -0.13772322675E-01 -0.60045322306E-02  0.17889840636E-01  0.23361885137E-01  0.00000000000E+00 0.  1.
     999901    1    3    3    0    0  0.43320758016E-01 -0.80502056073E-01  0.76057083448E-01  0.88799884518E+00  0.88000000000E+00 0.  1.
        -11    1    4    4    0    0 -0.45355749884E-02  0.42282284133E-01 -0.38555067310E-01  0.57403112531E-01  0.51100000000E-03 0. -1.
         11    1    4    4    0    0 -0.25012860353E-01  0.44224304171E-01 -0.55391856774E-01  0.75166157147E-01  0.51100000000E-03 0.  1.
</event>
<event>
 8    1  0.1088088E+005  0.1043930E+01  0.7957747E-01            NaN
         13   -1    0    0    0    0  0.00000000000E+00  0.00000000000E+00  0.74505805969E-08  0.10566000000E+00  0.10566000000E+00 0. -1.
     999900   -1    0    0    0    0 -0.00000000000E+00 -0.00000000000E+00 -0.74505805969E-08  0.93827000000E+00  0.93827000000E+00 0. -1.
     999902    2    1    2    0    0  0.10968487773E-01  0.87705994986E-02  0.16429529687E-01  0.10223161020E+01  0.10220875950E+01 0.  0.
     999903    2    3    3    0    0  0.11194552373E+00 -0.66132592404E-01 -0.17555290863E-01  0.13273090770E+00  0.20099392069E-01 0.  0.
         14    1    1    2    0    0 -0.10968487773E-01 -0.87705994986E-02 -0.16429529687E-01  0.21613897967E-01  0.00000000000E+00 0.  1.
     999901    1    3    3    0    0 -0.10097703595E+00  0.74903191902E-01  0.33984820551E-01  0.88958519433E+00  0.88000000000E+00 0.  1.
        -11    1    4    4    0    0  0.84240010206E-01 -0.44553360491E-01 -0.49859886646E-02  0.95427996178E-01  0.51100000000E-03 0.  1.
         11    1    4    4    0    0  0.27705513520E-01 -0.21579231913E-01 -0.12569302199E-01  0.37302911523E-01  0.51100000000E-03 0. -1.
</event>
<event>
 8    1  0.1088088E+005  0.1043930E+01  0.7957747E-01            NaN
         13   -1    0    0    0    0  0.00000000000E+00  0.00000000000E+00  0.74505805969E-08  0.10566000000E+00  0.10566000000E+00 0. -1.
     999900   -1    0    0    0    0 -0.00000000000E+00 -0.00000000000E+00 -0.74505805969E-08  0.93827000000E+00  0.93827000000E+00 0. -1.
     999902    2    1    2    0    0 -0.94180829575E-02  0.18981199710E-01  0.11289137743E-01  0.10199210254E+01  0.10196384002E+01 0.  0.
     999903    2    3    3    0    0 -0.22571174619E-02 -0.87389291773E-01  0.93312469714E-01  0.12969982377E+00  0.21744985334E-01 0.  0.
         14    1    1    2    0    0  0.94180829575E-02 -0.18981199710E-01 -0.11289137743E-01  0.24008974572E-01  0.00000000000E+00 0. -1.
     999901    1    3    3    0    0 -0.71609654956E-02  0.10637049148E+00 -0.82023331971E-01  0.89022120165E+00  0.88000000000E+00 0. -1.
        -11    1    4    4    0    0  0.64738468658E-02 -0.33694115731E-01  0.25444787273E-01  0.42718876958E-01  0.51100000000E-03 0.  1.
         11    1    4    4    0    0 -0.87309643277E-02 -0.53695176042E-01  0.67867682441E-01  0.86980946817E-01  0.51100000000E-03 0. -1.
</event>
<event>
 8    1  0.1088088E+005  0.1043930E+01  0.7957747E-01            NaN
         13   -1    0    0    0    0  0.00000000000E+00  0.00000000000E+00  0.74505805969E-08  0.10566000000E+00  0.10566000000E+00 0. -1.
     999900   -1    0    0    0    0 -0.00000000000E+00 -0.00000000000E+00 -0.74505805969E-08  0.93827000000E+00  0.93827000000E+00 0.  1.
     999902    2    1    2    0    0  0.18597321734E-01  0.10877472251E-01 -0.81571414297E-02  0.10208926665E+01  0.10206327046E+01 0.  0.
     999903    2    3    3    0    0  0.12741414880E+00 -0.26880429309E-01 -0.19962408458E-01  0.13330823373E+00  0.20387855027E-01 0.  0.
         14    1    1    2    0    0 -0.18597321734E-01 -0.10877472251E-01  0.81571414297E-02  0.23037333495E-01  0.00000000000E+00 0. -1.
     999901    1    3    3    0    0 -0.10881682707E+00  0.37757901560E-01  0.11805267029E-01  0.88758443278E+00  0.88000000000E+00 0. -1.
        -11    1    4    4    0    0  0.70576534189E-01 -0.48173329732E-02 -0.82543773260E-02  0.71222536750E-01  0.51100000000E-03 0. -1.
         11    1    4    4    0    0  0.56837614614E-01 -0.22063096336E-01 -0.11708031132E-01  0.62085696975E-01  0.51100000000E-03 0.  1.
</event>
<event>
 8    1  0.1088088E+005  0.1043930E+01  0.7957747E-01            NaN
         13   -1    0    0    0    0  0.00000000000E+00  0.00000000000E+00  0.74505805969E-08  0.10566000000E+00  0.10566000000E+00 0. -1.
     999900   -1    0    0    0    0 -0.00000000000E+00 -0.00000000000E+00 -0.74505805969E-08  0.93827000000E+00  0.93827000000E+00 0.  1.
     999902    2    1    2    0    0 -0.17826493139E-01  0.17064293265E-01 -0.17281411656E-01  0.10138032486E+01  0.10133555179E+01 0.  0.
     999903    2    3    3    0    0  0.16481921952E-01 -0.11450528542E+00  0.32997702523E-01  0.12194249112E+00  0.19950153576E-01 0.  0.
         14    1    1    2    0    0  0.17826493139E-01 -0.17064293265E-01  0.17281411656E-01  0.30126751419E-01  0.00000000000E+00 0. -1.
     999901    1    3    3    0    0 -0.34308415092E-01  0.13156957868E+00 -0.50279114179E-01  0.89186075746E+00  0.88000000000E+00 0.  1.
        -11    1    4    4    0    0 -0.43809352454E-02 -0.29764147151E-01  0.96844939924E-02  0.31609296009E-01  0.51100000000E-03 0.  1.
         11    1    4    4    0    0  0.20862857198E-01 -0.84741138268E-01  0.23313208531E-01  0.90333195108E-01  0.51100000000E-03 0. -1.
</event>
<event>
 8    1  0.1088088E+005  0.1043930E+01  0.7957747E-01            NaN
         13   -1    0    0    0    0  0.00000000000E+00  0.00000000000E+00  0.74505805969E-08  0.10566000000E+00  0.10566000000E+00 0.  1.
     999900   -1    0    0    0    0 -0.00000000000E+00 -0.00000000000E+00 -0.74505805969E-08  0.93827000000E+00  0.93827000000E+00 0.  1.
     999902    2    1    2    0    0 -0.21419688883E-01  0.69549698469E-02 -0.13205815344E-01  0.10178231381E+01  0.10174882664E+01 0.  0.
     999903    2    3    3    0    0 -0.27823777561E-01  0.62905211112E-01 -0.10932425625E+00  0.13079991604E+00  0.20629998773E-01 0.  0.
         14    1    1    2    0    0  0.21419688883E-01 -0.69549698469E-02  0.13205815344E-01  0.26106861863E-01  0.00000000000E+00 0.  1.
     999901    1    3    3    0    0  0.64040886778E-02 -0.55950241265E-01  0.96118440908E-01  0.88702322209E+00  0.88000000000E+00 0. -1.
        -11    1    4    4    0    0 -0.12607771615E-01  0.22317307707E-01 -0.59309896267E-01  0.64613799181E-01  0.51100000000E-03 0.  1.
         11    1    4    4    0    0 -0.15216005946E-01  0.40587903405E-01 -0.50014359985E-01  0.66186116864E-01  0.51100000000E-03 0. -1.
</event>
<event>
 8    1  0.1088088E+005  0.1043930E+01  0.7957747E-01            NaN
         13   -1    0    0    0    0  0.00000000000E+00  0.00000000000E+00  0.74505805969E-08  0.10566000000E+00  0.10566000000E+00 0. -1.
     999900   -1    0    0    0    0 -0.00000000000E+00 -0.00000000000E+00 -0.74505805969E-08  0.93827000000E+00  0.93827000000E+00 0. -1.
     999902    2    1    2    0    0 -0.63720439162E-02 -0.92973352714E-02 -0.10480526881E-01  0.10285389367E+01  0.10284237742E+01 0.  0.
     999903    2    3    3    0    0 -0.11441145793E+00  0.74763978514E-01 -0.41096123226E-02  0.13793273412E+00  0.18136042555E-01 0.  0.
         14    1    1    2    0    0  0.63720439162E-02  0.92973352714E-02  0.10480526881E-01  0.15391063333E-01  0.00000000000E+00 0. -1.
     999901    1    3    3    0    0  0.10803941402E+00 -0.84061313786E-01 -0.63709145585E-02  0.89060620254E+00  0.88000000000E+00 0. -1.
        -11    1    4    4    0    0 -0.10898408625E+00  0.70178578055E-01  0.16373888739E-03  0.12962581458E+00  0.51100000000E-03 0. -1.
         11    1    4    4    0    0 -0.54273716811E-02  0.45854004587E-02 -0.42733512100E-02  0.83069195431E-02  0.51100000000E-03 0.  1.
</event>
<event>
 8    1  0.1088088E+005  0.1043930E+01  0.7957747E-01            NaN
         13   -1    0    0    0    0  0.00000000000E+00  0.00000000000E+00  0.74505805969E-08  0.10566000000E+00  0.10566000000E+00 0.  1.
     999900   -1    0    0    0    0 -0.00000000000E+00 -0.00000000000E+00 -0.74505805969E-08  0.93827000000E+00  0.93827000000E+00 0.  1.
     999902    2    1    2    0    0 -0.15614914575E-01 -0.17880730754E-01 -0.43226391474E-03  0.10201869391E+01  0.10199106126E+01 0.  0.
     999903    2    3    3    0    0  0.11148890787E-02  0.11387767539E+00 -0.55854453444E-01  0.12849653148E+00  0.20549226342E-01 0.  0.
         14    1    1    2    0    0  0.15614914575E-01  0.17880730754E-01  0.43226391474E-03  0.23743060915E-01  0.00000000000E+00 0.  1.
     999901    1    3    3    0    0 -0.16729803654E-01 -0.13175840615E+00  0.55422189529E-01  0.89169040760E+00  0.88000000000E+00 0. -1.
        -11    1    4    4    0    0 -0.82654508810E-02  0.37191228292E-01 -0.13738405256E-01  0.40503210244E-01  0.51100000000E-03 0.  1.
         11    1    4    4    0    0  0.93803399597E-02  0.76686447099E-01 -0.42116048187E-01  0.87993321237E-01  0.51100000000E-03 0. -1.
</event>
<event>
 8    1  0.1088088E+005  0.1043930E+01  0.7957747E-01            NaN
         13   -1    0    0    0    0  0.00000000000E+00  0.00000000000E+00  0.74505805969E-08  0.10566000000E+00  0.10566000000E+00 0.  1.
     999900   -1    0    0    0    0 -0.00000000000E+00 -0.00000000000E+00 -0.74505805969E-08  0.93827000000E+00  0.93827000000E+00 0.  1.
     999902    2    1    2    0    0  0.90087094173E-02 -0.18083194670E-01  0.11535107677E-01  0.10206659186E+01  0.10204007545E+01 0.  0.
     999903    2    3    3    0    0 -0.65560555959E-01  0.13485856807E-01 -0.10820117060E+00  0.12887336609E+00  0.20513320994E-01 0.  0.
         14    1    1    2    0    0 -0.90087094173E-02  0.18083194670E-01 -0.11535107677E-01  0.23264081412E-01  0.00000000000E+00 0. -1.
     999901    1    3    3    0    0  0.74569265376E-01 -0.31569051477E-01  0.11973627827E+00  0.89179255249E+00  0.88000000000E+00 0. -1.
        -11    1    4    4    0    0 -0.10247717854E-01  0.99651291117E-02 -0.17821133708E-01  0.22851114789E-01  0.51100000000E-03 0. -1.
         11    1    4    4    0    0 -0.55312838105E-01  0.35207276951E-02 -0.90380036888E-01  0.10602225130E+00  0.51100000000E-03 0.  1.
</event>
<event>
 8    1  0.1088088E+005  0.1043930E+01  0.7957747E-01            NaN
         13   -1    0    0    0    0  0.00000000000E+00  0.00000000000E+00  0.74505805969E-08  0.10566000000E+00  0.10566000000E+00 0. -1.
     999900   -1    0    0    0    0 -0.00000000000E+00 -0.00000000000E+00 -0.74505805969E-08  0.93827000000E+00  0.93827000000E+00 0.  1.
     999902    2    1    2    0    0  0.19044042176E-01 -0.88825483780E-02 -0.11681140944E-01  0.10198878649E+01  0.10196044491E+01 0.  0.
     999903    2    3    3    0    0 -0.12677049778E-03  0.41422110606E-01  0.11985461880E+00  0.12848462566E+00  0.20672737262E-01 0.  0.
         14    1    1    2    0    0 -0.19044042176E-01  0.88825483780E-02  0.11681140944E-01  0.24042135135E-01  0.00000000000E+00 0.  1.
     999901    1    3    3    0    0  0.19170812674E-01 -0.50304658984E-01 -0.13153575974E+00  0.89140323920E+00  0.88000000000E+00 0.  1.
        -11    1    4    4    0    0  0.66932579101E-02  0.23379389461E-01  0.44666834048E-01  0.50860424083E-01  0.51100000000E-03 0. -1.
         11    1    4    4    0    0 -0.68200284079E-02  0.18042721144E-01  0.75187784751E-01  0.77624201577E-01  0.51100000000E-03 0.  1.
</event>
<event>
 8    1  0.1088088E+005  0.1043930E+01  0.7957747E-01            NaN
         13   -1    0    0    0    0  0.00000000000E+00  0.00000000000E+00  0.74505805969E-08  0.10566000000E+00  0.10566000000E+00 0. -1.
     999900   -1    0    0    0    0 -0.00000000000E+00 -0.00000000000E+00 -0.74505805969E-08  0.93827000000E+00  0.93827000000E+00 0.  1.
     999902    2    1    2    0    0  0.17840277274E-01  0.61806813770E-02  0.14808303893E-01  0.10199349551E+01  0.10196526617E+01 0.  0.
     999903    2    3    3    0    0  0.26763322500E-01 -0.12469766158E+00  0.17309951434E-01  0.13020745770E+00  0.19712061985E-01 0.  0.
         14    1    1    2    0    0 -0.17840277274E-01 -0.61806813770E-02 -0.14808303893E-01  0.23995044898E-01  0.00000000000E+00 0.  1.
     999901    1    3    3    0    0 -0.89230452267E-02  0.13087834296E+00 -0.25016475415E-02  0.88972749740E+00  0.88000000000E+00 0. -1.
        -11    1    4    4    0    0  0.16565328518E-01 -0.89532145783E-01  0.20877979776E-01  0.93416092821E-01  0.51100000000E-03 0. -1.
         11    1    4    4    0    0  0.10197993982E-01 -0.35165515796E-01 -0.35680283418E-02  0.36791364880E-01  0.51100000000E-03 0.  1.
</event>
<event>
 8    1  0.1088088E+005  0.1043930E+01  0.7957747E-01            NaN
         13   -1    0    0    0    0  0.00000000000E+00  0.00000000000E+00  0.74505805969E-08  0.10566000000E+00  0.10566000000E+00 0.  1.
     999900   -1    0    0    0    0 -0.00000000000E+00 -0.00000000000E+00 -0.74505805969E-08  0.93827000000E+00  0.93827000000E+00 0. -1.
     999902    2    1    2    0    0  0.27129034236E-02 -0.15562441202E-01 -0.16843770717E-01  0.10208375330E+01  0.10205763111E+01 0.  0.
     999903    2    3    3    0    0  0.48547576213E-01  0.11311079066E+00 -0.36969098576E-01  0.13007233011E+00  0.20029445583E-01 0.  0.
         14    1    1    2    0    0 -0.27129034236E-02  0.15562441202E-01  0.16843770717E-01  0.23092467021E-01  0.00000000000E+00 0.  1.
     999901    1    3    3    0    0 -0.45834672790E-01 -0.12867323186E+00  0.20125327859E-01  0.89076520287E+00  0.88000000000E+00 0.  1.
        -11    1    4    4    0    0  0.35419447046E-01  0.83421784104E-01 -0.17777740293E-01  0.92358218168E-01  0.51100000000E-03 0.  1.
         11    1    4    4    0    0  0.13128129167E-01  0.29689006553E-01 -0.19191358283E-01  0.37714111938E-01  0.51100000000E-03 0. -1.
</event>
<event>
 8    1  0.1088088E+005  0.1043930E+01  0.7957747E-01            NaN
         13   -1    0    0    0    0  0.00000000000E+00  0.00000000000E+00  0.74505805969E-08  0.10566000000E+00  0.10566000000E+00 0.  1.
     999900   -1    0    0    0    0 -0.00000000000E+00 -0.00000000000E+00 -0.74505805969E-08  0.93827000000E+00  0.93827000000E+00 0.  1.
     999902    2    1    2    0    0  0.67164988852E-02  0.50671232631E-02  0.22179937567E-01  0.10202079275E+01  0.10199320951E+01 0.  0.
     999903    2    3    3    0    0  0.12924031363E+00  0.12119771345E-01  0.64974805167E-02  0.13155289625E+00  0.20346983410E-01 0.  0.
         14    1    1    2    0    0 -0.67164988852E-02 -0.50671232631E-02 -0.22179937567E-01  0.23722072546E-01  0.00000000000E+00 0. -1.
     999901    1    3    3    0    0 -0.12252381475E+00 -0.70526480822E-02  0.15682457050E-01  0.88865503120E+00  0.88000000000E+00 0.  1.
        -11    1    4    4    0    0  0.56547437689E-01  0.11875882362E-01 -0.48120841369E-02  0.57983330068E-01  0.51100000000E-03 0.  1.
         11    1    4    4    0    0  0.72692875942E-01  0.24388898313E-03  0.11309564654E-01  0.73569566182E-01  0.51100000000E-03 0. -1.
</event>
<event>
 8    1  0.1088088E+005  0.1043930E+01  0.7957747E-01            NaN
         13   -1    0    0    0    0  0.00000000000E+00  0.00000000000E+00  0.74505805969E-08  0.10566000000E+00  0.10566000000E+00 0.  1.
     999900   -1    0    0    0    0 -0.00000000000E+00 -0.00000000000E+00 -0.74505805969E-08  0.93827000000E+00  0.93827000000E+00 0. -1.
     999902    2    1    2    0    0  0.17835335219E-01 -0.32811590407E-02 -0.15009376604E-01  0.10203896820E+01  0.10201181091E+01 0.  0.
     999903    2    3    3    0    0  0.41563866698E-01 -0.63288041310E-01  0.10352625740E+00  0.13010064707E+00  0.21807365944E-01 0.  0.
         14    1    1    2    0    0 -0.17835335219E-01  0.32811590407E-02  0.15009376604E-01  0.23540318032E-01  0.00000000000E+00 0.  1.
     999901    1    3    3    0    0 -0.23728531478E-01  0.60006882269E-01 -0.11853563400E+00  0.89028903490E+00  0.88000000000E+00 0. -1.
        -11    1    4    4    0    0  0.41191446033E-01 -0.48505122119E-01  0.78828691480E-01  0.10130994926E+00  0.51100000000E-03 0.  1.
         11    1    4    4    0    0  0.37242066447E-03 -0.14782919191E-01  0.24697565921E-01  0.28790697810E-01  0.51100000000E-03 0. -1.
</event>
<event>
 8    1  0.1088088E+005  0.1043930E+01  0.7957747E-01            NaN
         13   -1    0    0    0    0  0.00000000000E+00  0.00000000000E+00  0.74505805969E-08  0.10566000000E+00  0.10566000000E+00 0. -1.
     999900   -1    0    0    0    0 -0.00000000000E+00 -0.00000000000E+00 -0.74505805969E-08  0.93827000000E+00  0.93827000000E+00 0. -1.
     999902    2    1    2    0    0 -0.10157063321E-01  0.20371534105E-01 -0.37654942455E-02  0.10208574127E+01  0.10205966455E+01 0.  0.
     999903    2    3    3    0    0  0.74509873925E-01 -0.40442638273E-01 -0.96413551473E-01  0.12987451931E+00  0.19608405260E-01 0.  0.
         14    1    1    2    0    0  0.10157063321E-01 -0.20371534105E-01  0.37654942455E-02  0.23072587285E-01  0.00000000000E+00 0. -1.
     999901    1    3    3    0    0 -0.84666937245E-01  0.60814172378E-01  0.92648057227E-01  0.89098289340E+00  0.88000000000E+00 0.  1.
        -11    1    4    4    0    0  0.54634764312E-01 -0.19374228014E-01 -0.61677126049E-01  0.84644238913E-01  0.51100000000E-03 0. -1.
         11    1    4    4    0    0  0.19875109613E-01 -0.21068410258E-01 -0.34736425424E-01  0.45230280401E-01  0.51100000000E-03 0.  1.
</event>
<event>
 8    1  0.1088088E+005  0.1043930E+01  0.7957747E-01            NaN
         13   -1    0    0    0    0  0.00000000000E+00  0.00000000000E+00  0.74505805969E-08  0.10566000000E+00  0.10566000000E+00 0.  1.
     999900   -1    0    0    0    0 -0.00000000000E+00 -0.00000000000E+00 -0.74505805969E-08  0.93827000000E+00  0.93827000000E+00 0.  1.
     999902    2    1    2    0    0  0.16164404123E-02  0.15655138816E-01  0.16460619202E-01  0.10211561502E+01  0.10209021671E+01 0.  0.
     999903    2    3    3    0    0  0.12408258642E+00 -0.26959025227E-01  0.28757586528E-01  0.13156908907E+00  0.18977595234E-01 0.  0.
         14    1    1    2    0    0 -0.16164404123E-02 -0.15655138816E-01 -0.16460619202E-01  0.22773849817E-01  0.00000000000E+00 0. -1.
     999901    1    3    3    0    0 -0.12246614601E+00  0.42614164043E-01 -0.12296967326E-01  0.88958706111E+00  0.88000000000E+00 0.  1.
        -11    1    4    4    0    0  0.10094891569E+00 -0.16722545334E-01  0.28670208667E-01  0.10626650030E+00  0.51100000000E-03 0. -1.
         11    1    4    4    0    0  0.23133670737E-01 -0.10236479893E-01  0.87377861420E-04  0.25302588766E-01  0.51100000000E-03 0.  1.
</event>
<event>
 8    1  0.1088088E+005  0.1043930E+01  0.7957747E-01            NaN
         13   -1    0    0    0    0  0.00000000000E+00  0.00000000000E+00  0.74505805969E-08  0.10566000000E+00  0.10566000000E+00 0.  1.
     999900   -1    0    0    0    0 -0.00000000000E+00 -0.00000000000E+00 -0.74505805969E-08  0.93827000000E+00  0.93827000000E+00 0.  1.
     999902    2    1    2    0    0  0.17841914034E-01  0.14844706480E-01 -0.21952438032E-02  0.10206165210E+01  0.10203502167E+01 0.  0.
     999903    2    3    3    0    0  0.12570425492E+00  0.15644392767E-01 -0.36714887118E-01  0.13335864990E+00  0.19754489038E-01 0.  0.
         14    1    1    2    0    0 -0.17841914034E-01 -0.14844706480E-01  0.21952438032E-02  0.23313478982E-01  0.00000000000E+00 0. -1.
     999901    1    3    3    0    0 -0.10786234089E+00 -0.79968628654E-03  0.34519643314E-01  0.88725787111E+00  0.88000000000E+00 0. -1.
        -11    1    4    4    0    0  0.83455447019E-01  0.96158638200E-03 -0.23027609331E-01  0.86580992129E-01  0.51100000000E-03 0. -1.
         11    1    4    4    0    0  0.42248807904E-01  0.14682806385E-01 -0.13687277786E-01  0.46777657774E-01  0.51100000000E-03 0.  1.
</event>
<event>
 8    1  0.1088088E+005  0.1043930E+01  0.7957747E-01            NaN
         13   -1    0    0    0    0  0.00000000000E+00  0.00000000000E+00  0.74505805969E-08  0.10566000000E+00  0.10566000000E+00 0. -1.
     999900   -1    0    0    0    0 -0.00000000000E+00 -0.00000000000E+00 -0.74505805969E-08  0.93827000000E+00  0.93827000000E+00 0.  1.
     999902    2    1    2    0    0 -0.99716734380E-02  0.33566195955E-02  0.20318437996E-01  0.10210490016E+01  0.10207925957E+01 0.  0.
     999903    2    3    3    0    0  0.33076252681E-01 -0.11540923578E+00 -0.44784112770E-01  0.12964741168E+00  0.19735865983E-01 0.  0.
         14    1    1    2    0    0  0.99716734380E-02 -0.33566195955E-02 -0.20318437996E-01  0.22880998424E-01  0.00000000000E+00 0.  1.
     999901    1    3    3    0    0 -0.43047926119E-01  0.11876585537E+00  0.65102550766E-01  0.89140158989E+00  0.88000000000E+00 0. -1.
        -11    1    4    4    0    0  0.16315643922E-01 -0.88119488377E-01 -0.31995966164E-01  0.95159063889E-01  0.51100000000E-03 0.  1.
         11    1    4    4    0    0  0.16760608759E-01 -0.27289747399E-01 -0.12788146606E-01  0.34488347796E-01  0.51100000000E-03 0. -1.
</event>
<event>
 8    1  0.1088088E+005  0.1043930E+01  0.7957747E-01            NaN
         13   -1    0    0    0    0  0.00000000000E+00  0.00000000000E+00  0.74505805969E-08  0.10566000000E+00  0.10566000000E+00 0.  1.
     999900   -1    0    0    0    0 -0.00000000000E+00 -0.00000000000E+00 -0.74505805969E-08  0.93827000000E+00  0.93827000000E+00 0. -1.
     999902    2    1    2    0    0 -0.45322435011E-02  0.16848284082E-01 -0.14545160240E-01  0.10212150799E+01  0.10209624243E+01 0.  0.
     999903    2    3    3    0    0 -0.10504568680E+00 -0.59889476931E-01 -0.46981665708E-01  0.13158382871E+00  0.22038178281E-01 0.  0.
         14    1    1    2    0    0  0.45322435011E-02 -0.16848284082E-01  0.14545160240E-01  0.22714920076E-01  0.00000000000E+00 0. -1.
     999901    1    3    3    0    0  0.10051344330E+00  0.76737761013E-01  0.32436505468E-01  0.88963125121E+00  0.88000000000E+00 0. -1.
        -11    1    4    4    0    0 -0.28990932444E-01 -0.21455893735E-01 -0.23993541346E-01  0.43321826915E-01  0.51100000000E-03 0. -1.
         11    1    4    4    0    0 -0.76054754361E-01 -0.38433583196E-01 -0.22988124362E-01  0.88262001795E-01  0.51100000000E-03 0.  1.
</event>
<event>
 8    1  0.1088088E+005  0.1043930E+01  0.7957747E-01            NaN
         13   -1    0    0    0    0  0.00000000000E+00  0.00000000000E+00  0.74505805969E-08  0.10566000000E+00  0.10566000000E+00 0. -1.
     999900   -1    0    0    0    0 -0.00000000000E+00 -0.00000000000E+00 -0.74505805969E-08  0.93827000000E+00  0.93827000000E+00 0. -1.
     999902    2    1    2    0    0 -0.20422654280E-02 -0.23423527182E-01 -0.19496797962E-02  0.10203369136E+01  0.10200641076E+01 0.  0.
     999903    2    3    3    0    0  0.79468551514E-01  0.94106249248E-01  0.29836519221E-01  0.12822278186E+00  0.19484021213E-01 0.  0.
         14    1    1    2    0    0  0.20422654280E-02  0.23423527182E-01  0.19496797962E-02  0.23593086382E-01  0.00000000000E+00 0. -1.
     999901    1    3    3    0    0 -0.81510816942E-01 -0.11752977643E+00 -0.31786199017E-01  0.89211413175E+00  0.88000000000E+00 0.  1.
        -11    1    4    4    0    0  0.61944109113E-01  0.66137890303E-01  0.14295608717E-01  0.91738316624E-01  0.51100000000E-03 0. -1.
         11    1    4    4    0    0  0.17524442401E-01  0.27968358946E-01  0.15540910504E-01  0.36484465240E-01  0.51100000000E-03 0.  1.
</event>
<event>
 8    1  0.1088088E+005  0.1043930E+01  0.7957747E-01            NaN
         13   -1    0    0    0    0  0.00000000000E+00  0.00000000000E+00  0.74505805969E-08  0.10566000000E+00  0.10566000000E+00 0.  1.
     999900   -1    0    0    0    0 -0.00000000000E+00 -0.00000000000E+00 -0.74505805969E-08  0.93827000000E+00  0.93827000000E+00 0.  1.
     999902    2    1    2    0    0  0.10103864590E-01  0.51547904730E-02 -0.20141239119E-01  0.10208144326E+01  0.10205526818E+01 0.  0.
     999903    2    3    3    0    0 -0.89088227253E-02 -0.44297516465E-01  0.11842626016E+00  0.12839750938E+00  0.20481802413E-01 0.  0.
         14    1    1    2    0    0 -0.10103864590E-01 -0.51547904730E-02  0.20141239119E-01  0.23115567432E-01  0.00000000000E+00 0.  1.
     999901    1    3    3    0    0  0.19012687315E-01  0.49452306938E-01 -0.13856749928E+00  0.89241692319E+00  0.88000000000E+00 0.  1.
        -11    1    4    4    0    0 -0.70677582416E-02 -0.13976465584E-01  0.65715913764E-01  0.67558398735E-01  0.51100000000E-03 0. -1.
         11    1    4    4    0    0 -0.18410644838E-02 -0.30321050881E-01  0.52710346401E-01  0.60839110642E-01  0.51100000000E-03 0.  1.
</event>
<event>
 8    1  0.1088088E+005  0.1043930E+01  0.7957747E-01            NaN
         13   -1    0    0    0    0  0.00000000000E+00  0.00000000000E+00  0.74505805969E-08  0.10566000000E+00  0.10566000000E+00 0.  1.
     999900   -1    0    0    0    0 -0.00000000000E+00 -0.00000000000E+00 -0.74505805969E-08  0.93827000000E+00  0.93827000000E+00 0. -1.
     999902    2    1    2    0    0  0.33677157450E-02  0.39036992115E-02  0.23253601557E-01  0.10201117221E+01  0.10198336213E+01 0.  0.
     999903    2    3    3    0    0  0.43890820386E-01 -0.11990614971E+00 -0.11996609121E-01  0.12982324185E+00  0.20156057196E-01 0.  0.
         14    1    1    2    0    0 -0.33677157450E-02 -0.39036992115E-02 -0.23253601557E-01  0.23818277902E-01  0.00000000000E+00 0. -1.
     999901    1    3    3    0    0 -0.40523104641E-01  0.12380984893E+00  0.35250210678E-01  0.89028848024E+00  0.88000000000E+00 0.  1.
        -11    1    4    4    0    0  0.21999620117E-01 -0.76468336372E-01  0.59957775004E-03  0.79573930199E-01  0.51100000000E-03 0.  1.
         11    1    4    4    0    0  0.21891200268E-01 -0.43437813343E-01 -0.12596186871E-01  0.50249311656E-01  0.51100000000E-03 0. -1.
</event>
<event>
 8    1  0.1088088E+005  0.1043930E+01  0.7957747E-01            NaN
         13   -1    0    0    0    0  0.00000000000E+00  0.00000000000E+00  0.74505805969E-08  0.10566000000E+00  0.10566000000E+00 0. -1.
     999900   -1    0    0    0    0 -0.00000000000E+00 -0.00000000000E+00 -0.74505805969E-08  0.93827000000E+00  0.93827000000E+00 0.  1.
     999902    2    1    2    0    0  0.16552078073E-02  0.20065254332E-01 -0.13556829676E-01  0.10196577571E+01  0.10193688242E+01 0.  0.
     999903    2    3    3    0    0 -0.58660362090E-01 -0.57859878980E-01 -0.98143028618E-01  0.13012691479E+00  0.22630868538E-01 0.  0.
         14    1    1    2    0    0 -0.16552078073E-02 -0.20065254332E-01  0.13556829676E-01  0.24272242895E-01  0.00000000000E+00 0.  1.
     999901    1    3    3    0    0  0.60315569898E-01  0.77925133312E-01  0.84586198942E-01  0.88953084231E+00  0.88000000000E+00 0. -1.
        -11    1    4    4    0    0 -0.18706619206E-01 -0.34200517538E-01 -0.43263667077E-01  0.58237608226E-01  0.51100000000E-03 0.  1.
         11    1    4    4    0    0 -0.39953742885E-01 -0.23659361442E-01 -0.54879361541E-01  0.71889306566E-01  0.51100000000E-03 0. -1.
</event>
<event>
 8    1  0.1088088E+005  0.1043930E+01  0.7957747E-01            NaN
         13   -1    0    0    0    0  0.00000000000E+00  0.00000000000E+00  0.74505805969E-08  0.10566000000E+00  0.10566000000E+00 0. -1.
     999900   -1    0    0    0    0 -0.00000000000E+00 -0.00000000000E+00 -0.74505805969E-08  0.93827000000E+00  0.93827000000E+00 0. -1.
     999902    2    1    2    0    0 -0.10901169011E-01  0.60802549565E-02  0.28527889794E-01  0.10127908690E+01  0.10123120560E+01 0.  0.
     999903    2    3    3    0    0  0.26517758587E-01  0.66896698586E-01  0.10253649037E+00  0.12680210553E+00  0.19664239266E-01 0.  0.
         14    1    1    2    0    0  0.10901169011E-01 -0.60802549565E-02 -0.28527889794E-01  0.31139131045E-01  0.00000000000E+00 0.  1.
     999901    1    3    3    0    0 -0.37418927598E-01 -0.60816443630E-01 -0.74008600581E-01  0.88598876343E+00  0.88000000000E+00 0. -1.
        -11    1    4    4    0    0  0.18453556182E-01  0.26958512451E-01  0.34648838360E-01  0.47624555116E-01  0.51100000000E-03 0.  1.
         11    1    4    4    0    0  0.80642024045E-02  0.39938186135E-01  0.67887652015E-01  0.79177550412E-01  0.51100000000E-03 0. -1.
</event>
<event>
 8    1  0.1088088E+005  0.1043930E+01  0.7957747E-01            NaN
         13   -1    0    0    0    0  0.00000000000E+00  0.00000000000E+00  0.74505805969E-08  0.10566000000E+00  0.10566000000E+00 0.  1.
     999900   -1    0    0    0    0 -0.00000000000E+00 -0.00000000000E+00 -0.74505805969E-08  0.93827000000E+00  0.93827000000E+00 0. -1.
     999902    2    1    2    0    0 -0.20710599219E-02  0.21290566940E-01 -0.99395031157E-02  0.10203424768E+01  0.10200698009E+01 0.  0.
     999903    2    3    3    0    0 -0.51210507556E-01 -0.64831722396E-03 -0.11964145185E+00  0.13189972819E+00  0.21459843802E-01 0.  0.
         14    1    1    2    0    0  0.20710599219E-02 -0.21290566940E-01  0.99395031157E-02  0.23587523228E-01  0.00000000000E+00 0.  1.
     999901    1    3    3    0    0  0.49139447634E-01  0.21938884164E-01  0.10970194874E+00  0.88844274858E+00  0.88000000000E+00 0.  1.
        -11    1    4    4    0    0 -0.42172507753E-01 -0.78337929195E-02 -0.10358675938E+00  0.11211764608E+00  0.51100000000E-03 0.  1.
         11    1    4    4    0    0 -0.90379998027E-02  0.71854756955E-02 -0.16054692471E-01  0.19782082113E-01  0.51100000000E-03 0. -1.
</event>
<event>
 8    1  0.1088088E+005  0.1043930E+01  0.7957747E-01            NaN
         13   -1    0    0    0    0  0.00000000000E+00  0.00000000000E+00  0.74505805969E-08  0.10566000000E+00  0.10566000000E+00 0.  1.
     999900   -1    0    0    0    0 -0.00000000000E+00 -0.00000000000E+00 -0.74505805969E-08  0.93827000000E+00  0.93827000000E+00 0.  1.
     999902    2    1    2    0    0 -0.24041206914E-01 -0.17144589801E-03 -0.57378285378E-02  0.10192129674E+01  0.10189132158E+01 0.  0.
     999903    2    3    3    0    0 -0.24669456201E-01 -0.86715685854E-01  0.91140731064E-01  0.12967614666E+00  0.19521216948E-01 0.  0.
         14    1    1    2    0    0  0.24041206914E-01  0.17144589801E-03  0.57378285378E-02  0.24717032587E-01  0.00000000000E+00 0.  1.
     999901    1    3    3    0    0  0.62824928751E-03  0.86544239956E-01 -0.96878559601E-01  0.88953682075E+00  0.88000000000E+00 0.  1.
        -11    1    4    4    0    0 -0.21413703539E-01 -0.49484970689E-01  0.62779130764E-01  0.82757412984E-01  0.51100000000E-03 0. -1.
         11    1    4    4    0    0 -0.32557526627E-02 -0.37230715165E-01  0.28361600299E-01  0.46918733675E-01  0.51100000000E-03 0.  1.
</event>
<event>
 8    1  0.1106870E+005  0.1043930E+01  0.7957747E-01            NaN
         13   -1    0    0    0    0  0.00000000000E+00  0.00000000000E+00  0.74505805969E-08  0.10566000000E+00  0.10566000000E+00 0.  1.
     999900   -1    0    0    0    0 -0.00000000000E+00 -0.00000000000E+00 -0.74505805969E-08  0.93827000000E+00  0.93827000000E+00 0. -1.
     999902    2    1    2    0    0 -0.12909382340E-01 -0.17783449693E-01 -0.18716878727E-02  0.10218753757E+01  0.10216373511E+01 0.  0.
     999903    2    3    3    0    0 -0.61934867288E-02  0.73694962396E-01 -0.10627825060E+00  0.13096902070E+00  0.19710684207E-01 0.  0.
         14    1    1    2    0    0  0.12909382340E-01  0.17783449693E-01  0.18716878727E-02  0.22054624251E-01  0.00000000000E+00 0. -1.
     999901    1    3    3    0    0 -0.67158956107E-02 -0.91478412089E-01  0.10440656272E+00  0.89090635505E+00  0.88000000000E+00 0.  1.
        -11    1    4    4    0    0  0.48069039028E-02  0.28955909338E-01 -0.52520787791E-01  0.60168474153E-01  0.51100000000E-03 0. -1.
         11    1    4    4    0    0 -0.11000390632E-01  0.44739053057E-01 -0.53757462806E-01  0.70800546544E-01  0.51100000000E-03 0.  1.
</event>
<event>
 8    1  0.1088088E+005  0.1043930E+01  0.7957747E-01            NaN
         13   -1    0    0    0    0  0.00000000000E+00  0.00000000000E+00  0.74505805969E-08  0.10566000000E+00  0.10566000000E+00 0. -1.
     999900   -1    0    0    0    0 -0.00000000000E+00 -0.00000000000E+00 -0.74505805969E-08  0.93827000000E+00  0.93827000000E+00 0.  1.
     999902    2    1    2    0    0 -0.11867602318E-01 -0.85432686713E-02  0.18005490977E-01  0.10207346313E+01  0.10204710493E+01 0.  0.
     999903    2    3    3    0    0 -0.33719929429E-01 -0.11810320975E+00  0.47789950909E-01  0.13317166510E+00  0.19115731355E-01 0.  0.
         14    1    1    2    0    0  0.11867602318E-01  0.85432686713E-02 -0.18005490977E-01  0.23195368712E-01  0.00000000000E+00 0.  1.
     999901    1    3    3    0    0  0.21852327111E-01  0.10955994108E+00 -0.29784459932E-01  0.88756296618E+00  0.88000000000E+00 0.  1.
        -11    1    4    4    0    0 -0.15362962450E-01 -0.45766662466E-01  0.91780422733E-02  0.49143723806E-01  0.51100000000E-03 0. -1.
         11    1    4    4    0    0 -0.18356966980E-01 -0.72336547281E-01  0.38611908636E-01  0.84027941298E-01  0.51100000000E-03 0.  1.
</event>
<event>
 8    1  0.1088088E+005  0.1043930E+01  0.7957747E-01            NaN
         13   -1    0    0    0    0  0.00000000000E+00  0.00000000000E+00  0.74505805969E-08  0.10566000000E+00  0.10566000000E+00 0. -1.
     999900   -1    0    0    0    0 -0.00000000000E+00 -0.00000000000E+00 -0.74505805969E-08  0.93827000000E+00  0.93827000000E+00 0.  1.
     999902    2    1    2    0    0  0.15488579543E-02 -0.10303221176E-01 -0.21330311392E-01  0.10201910550E+01  0.10199148254E+01 0.  0.
     999903    2    3    3    0    0  0.99650322677E-01  0.68039393997E-01  0.41466272152E-01  0.12906543327E+00  0.19465055683E-01 0.  0.
         14    1    1    2    0    0 -0.15488579543E-02  0.10303221176E-01  0.21330311392E-01  0.23738945041E-01  0.00000000000E+00 0. -1.
     999901    1    3    3    0    0 -0.98101464723E-01 -0.78342615173E-01 -0.62796583545E-01  0.89112562169E+00  0.88000000000E+00 0.  1.
        -11    1    4    4    0    0  0.68923666478E-01  0.50006380323E-01  0.20015690951E-01  0.87475704507E-01  0.51100000000E-03 0.  1.
         11    1    4    4    0    0  0.30726656199E-01  0.18033013674E-01  0.21450581201E-01  0.41589728758E-01  0.51100000000E-03 0. -1.
</event>
<event>
 8    1  0.1088088E+005  0.1043930E+01  0.7957747E-01            NaN
         13   -1    0    0    0    0  0.00000000000E+00  0.00000000000E+00  0.74505805969E-08  0.10566000000E+00  0.10566000000E+00 0. -1.
     999900   -1    0    0    0    0 -0.00000000000E+00 -0.00000000000E+00 -0.74505805969E-08  0.93827000000E+00  0.93827000000E+00 0.  1.
     999902    2    1    2    0    0 -0.16097790051E-01  0.59394470072E-02 -0.14965649533E-01  0.10211618964E+01  0.10209080429E+01 0.  0.
     999903    2    3    3    0    0  0.49255088100E-01  0.67827251606E-01 -0.10046746359E+00  0.13244841094E+00  0.20549222795E-01 0.  0.
         14    1    1    2    0    0  0.16097790051E-01 -0.59394470072E-02  0.14965649533E-01  0.22768103593E-01  0.00000000000E+00 0. -1.
     999901    1    3    3    0    0 -0.65352878151E-01 -0.61887804599E-01  0.85501814054E-01  0.88871348546E+00  0.88000000000E+00 0. -1.
        -11    1    4    4    0    0  0.56784006293E-02  0.51821080544E-02 -0.21673091668E-02  0.80035509381E-02  0.51100000000E-03 0.  1.
         11    1    4    4    0    0  0.43576687470E-01  0.62645143551E-01 -0.98300154420E-01  0.12444486000E+00  0.51100000000E-03 0. -1.
</event>
<event>
 8    1  0.1088088E+005  0.1043930E+01  0.7957747E-01            NaN
         13   -1    0    0    0    0  0.00000000000E+00  0.00000000000E+00  0.74505805969E-08  0.10566000000E+00  0.10566000000E+00 0. -1.
     999900   -1    0    0    0    0 -0.00000000000E+00 -0.00000000000E+00 -0.74505805969E-08  0.93827000000E+00  0.93827000000E+00 0.  1.
     999902    2    1    2    0    0  0.12370664392E-01 -0.20320797744E-01 -0.11929559310E-02  0.10201100230E+01  0.10198318821E+01 0.  0.
     999903    2    3    3    0    0  0.12105715595E+00 -0.43714725766E-01 -0.25479447232E-01  0.13278265224E+00  0.20401427643E-01 0.  0.
         14    1    1    2    0    0 -0.12370664392E-01  0.20320797744E-01  0.11929559310E-02  0.23819976959E-01  0.00000000000E+00 0. -1.
     999901    1    3    3    0    0 -0.10868649155E+00  0.23393928021E-01  0.24286491301E-01  0.88732737080E+00  0.88000000000E+00 0. -1.
        -11    1    4    4    0    0  0.76808708598E-01 -0.30353690198E-01 -0.25899792171E-01  0.86556250962E-01  0.51100000000E-03 0. -1.
         11    1    4    4    0    0  0.44248447348E-01 -0.13361035568E-01  0.42034493893E-03  0.46226401277E-01  0.51100000000E-03 0.  1.
</event>
<event>
 8    1  0.1088088E+005  0.1043930E+01  0.7957747E-01            NaN
         13   -1    0    0    0    0  0.00000000000E+00  0.00000000000E+00  0.74505805969E-08  0.10566000000E+00  0.10566000000E+00 0. -1.
     999900   -1    0    0    0    0 -0.00000000000E+00 -0.00000000000E+00 -0.74505805969E-08  0.93827000000E+00  0.93827000000E+00 0. -1.
     999902    2    1    2    0    0 -0.14446011119E-01  0.38614566127E-02 -0.21596510262E-01  0.10176620092E+01  0.10173229368E+01 0.  0.
     999903    2    3    3    0    0  0.11098302638E+00  0.18161826148E-01  0.52158966765E-01  0.12559877468E+00  0.20184407683E-01 0.  0.
         14    1    1    2    0    0  0.14446011119E-01 -0.38614566127E-02  0.21596510262E-01  0.26267990786E-01  0.00000000000E+00 0. -1.
     999901    1    3    3    0    0 -0.12542903750E+00 -0.14300369535E-01 -0.73755477027E-01  0.89206323453E+00  0.88000000000E+00 0. -1.
        -11    1    4    4    0    0  0.73288335222E-01  0.59143870991E-02  0.25476460961E-01  0.77816908436E-01  0.51100000000E-03 0. -1.
         11    1    4    4    0    0  0.37694691158E-01  0.12247439049E-01  0.26682505805E-01  0.47781866244E-01  0.51100000000E-03 0.  1.
</event>
<event>
 8    1  0.1088088E+005  0.1043930E+01  0.7957747E-01            NaN
         13   -1    0    0    0    0  0.00000000000E+00  0.00000000000E+00  0.74505805969E-08  0.10566000000E+00  0.10566000000E+00 0.  1.
     999900   -1    0    0    0    0 -0.00000000000E+00 -0.00000000000E+00 -0.74505805969E-08  0.93827000000E+00  0.93827000000E+00 0.  1.
     999902    2    1    2    0    0 -0.44620139685E-02 -0.16653074851E-01  0.15836617715E-01  0.10205198968E+01  0.10202513547E+01 0.  0.
     999903    2    3    3    0    0  0.14817870712E-01 -0.95680259899E-01  0.90060144829E-01  0.13365680596E+00  0.19468709953E-01 0.  0.
         14    1    1    2    0    0  0.44620139685E-02  0.16653074851E-01 -0.15836617715E-01  0.23410103188E-01  0.00000000000E+00 0. -1.
     999901    1    3    3    0    0 -0.19279884680E-01  0.79027185048E-01 -0.74223527114E-01  0.88686309085E+00  0.88000000000E+00 0.  1.
        -11    1    4    4    0    0  0.94045658819E-03 -0.36386574453E-01  0.22941083201E-01  0.43028149837E-01  0.51100000000E-03 0.  1.
         11    1    4    4    0    0  0.13877414124E-01 -0.59293685446E-01  0.67119061629E-01  0.90628656127E-01  0.51100000000E-03 0. -1.
</event>
<event>
 8    1  0.1088088E+005  0.1043930E+01  0.7957747E-01            NaN
         13   -1    0    0    0    0  0.00000000000E+00  0.00000000000E+00  0.74505805969E-08  0.10566000000E+00  0.10566000000E+00 0. -1.
     999900   -1    0    0    0    0 -0.00000000000E+00 -0.00000000000E+00 -0.74505805969E-08  0.93827000000E+00  0.93827000000E+00 0.  1.
     999902    2    1    2    0    0 -0.14227649148E-02  0.24065349109E-01 -0.54461712265E-02  0.10192151043E+01  0.10189154051E+01 0.  0.
     999903    2    3    3    0    0 -0.68330917781E-01 -0.93303402277E-01 -0.50532066901E-01  0.12776411704E+00  0.19888202956E-01 0.  0.
         14    1    1    2    0    0  0.14227649148E-02 -0.24065349109E-01  0.54461712265E-02  0.24714895686E-01  0.00000000000E+00 0. -1.
     999901    1    3    3    0    0  0.66908152867E-01  0.11736875139E+00  0.45085895674E-01  0.89145098727E+00  0.88000000000E+00 0. -1.
        -11    1    4    4    0    0 -0.54957773008E-01 -0.62762621105E-01 -0.30274361635E-01  0.88748529652E-01  0.51100000000E-03 0.  1.
         11    1    4    4    0    0 -0.13373144774E-01 -0.30540781172E-01 -0.20257705266E-01  0.39015587389E-01  0.51100000000E-03 0. -1.
</event>
<event>
 8    1  0.1088088E+005  0.1043930E+01  0.7957747E-01            NaN
         13   -1    0    0    0    0  0.00000000000E+00  0.00000000000E+00  0.74505805969E-08  0.10566000000E+00  0.10566000000E+00 0. -1.
     999900   -1    0    0    0    0 -0.00000000000E+00 -0.00000000000E+00 -0.74505805969E-08  0.93827000000E+00  0.93827000000E+00 0.  1.
     999902    2    1    2    0    0 -0.23563254887E-01 -0.31554293530E-02  0.31701751573E-02  0.10199459694E+01  0.10196639381E+01 0.  0.
     999903    2    3    3    0    0 -0.83888549360E-01  0.80302820426E-01 -0.58655000977E-01  0.13178676459E+00  0.21012151240E-01 0.  0.
         14    1    1    2    0    0  0.23563254887E-01  0.31554293530E-02 -0.31701751573E-02  0.23984030642E-01  0.00000000000E+00 0.  1.
     999901    1    3    3    0    0  0.60325294472E-01 -0.83458249779E-01  0.61825176134E-01  0.88815920477E+00  0.88000000000E+00 0. -1.
        -11    1    4    4    0    0 -0.65292767245E-01  0.72775280204E-01 -0.51291086336E-01  0.11041025098E+00  0.51100000000E-03 0.  1.
         11    1    4    4    0    0 -0.18595782115E-01  0.75275402215E-02 -0.73639146404E-02  0.21376513609E-01  0.51100000000E-03 0. -1.
</event>
<event>
 8    1  0.1088088E+005  0.1043930E+01  0.7957747E-01            NaN
         13   -1    0    0    0    0  0.00000000000E+00  0.00000000000E+00  0.74505805969E-08  0.10566000000E+00  0.10566000000E+00 0. -1.
     999900   -1    0    0    0    0 -0.00000000000E+00 -0.00000000000E+00 -0.74505805969E-08  0.93827000000E+00  0.93827000000E+00 0.  1.
     999902    2    1    2    0    0 -0.23494141468E-02 -0.23560763097E-01 -0.22682973169E-02  0.10201439857E+01  0.10198666467E+01 0.  0.
     999903    2    3    3    0    0 -0.14834314496E-01 -0.10932246573E+00  0.71253847535E-01  0.13283544399E+00  0.19916977472E-01 0.  0.
         14    1    1    2    0    0  0.23494141468E-02  0.23560763097E-01  0.22682973169E-02  0.23786014321E-01  0.00000000000E+00 0. -1.
     999901    1    3    3    0    0  0.12484900349E-01  0.85761702630E-01 -0.73522144852E-01  0.88730854169E+00  0.88000000000E+00 0.  1.
        -11    1    4    4    0    0 -0.85986998485E-02 -0.10127565411E+00  0.61935468554E-01  0.11902503577E+00  0.51100000000E-03 0.  1.
         11    1    4    4    0    0 -0.62356146477E-02 -0.80468116151E-02  0.93183789815E-02  0.13810408214E-01  0.51100000000E-03 0. -1.
</event>
<event>
 8    1  0.1088088E+005  0.1043930E+01  0.7957747E-01            NaN
         13   -1    0    0    0    0  0.00000000000E+00  0.00000000000E+00  0.74505805969E-08  0.10566000000E+00  0.10566000000E+00 0.  1.
     999900   -1    0    0    0    0 -0.00000000000E+00 -0.00000000000E+00 -0.74505805969E-08  0.93827000000E+00  0.93827000000E+00 0. -1.
     999902    2    1    2    0    0  0.18270350498E-01  0.35276242819E-02  0.15032351671E-01  0.10200088496E+01  0.10197283127E+01 0.  0.
     999903    2    3    3    0    0  0.27065175497E-01  0.12542559032E+00 -0.18451249353E-01  0.13093201679E+00  0.18402227747E-01 0.  0.
         14    1    1    2    0    0 -0.18270350498E-01 -0.35276242819E-02 -0.15032351671E-01  0.23921150415E-01  0.00000000000E+00 0. -1.
     999901    1    3    3    0    0 -0.87948249993E-02 -0.12189796604E+00  0.33483601024E-01  0.88907683279E+00  0.88000000000E+00 0.  1.
        -11    1    4    4    0    0  0.25788500383E-01  0.82609754960E-01 -0.85462026765E-02  0.86963883697E-01  0.51100000000E-03 0. -1.
         11    1    4    4    0    0  0.12766751138E-02  0.42815835363E-01 -0.99050466764E-02  0.43968133095E-01  0.51100000000E-03 0.  1.
</event>
<event>
 8    1  0.1088088E+005  0.1043930E+01  0.7957747E-01            NaN
         13   -1    0    0    0    0  0.00000000000E+00  0.00000000000E+00  0.74505805969E-08  0.10566000000E+00  0.10566000000E+00 0. -1.
     999900   -1    0    0    0    0 -0.00000000000E+00 -0.00000000000E+00 -0.74505805969E-08  0.93827000000E+00  0.93827000000E+00 0.  1.
     999902    2    1    2    0    0  0.96014705096E-02  0.19209616901E-01 -0.66719336687E-02  0.10214419517E+01  0.10211943735E+01 0.  0.
     999903    2    3    3    0    0  0.11006900093E+00  0.35956595482E-01  0.63116820715E-01  0.13282242896E+00  0.15811478546E-01 0.  0.
         14    1    1    2    0    0 -0.96014705096E-02 -0.19209616901E-01  0.66719336687E-02  0.22488048300E-01  0.00000000000E+00 0. -1.
     999901    1    3    3    0    0 -0.10046753042E+00 -0.16746978580E-01 -0.69788754383E-01  0.88861952274E+00  0.88000000000E+00 0. -1.
        -11    1    4    4    0    0  0.87843109784E-01  0.25136116970E-01  0.55697920699E-01  0.10700820438E+00  0.51100000000E-03 0.  1.
         11    1    4    4    0    0  0.22225891142E-01  0.10820478512E-01  0.74189000152E-02  0.25814224581E-01  0.51100000000E-03 0. -1.
</event>
<event>
 8    1  0.1088088E+005  0.1043930E+01  0.7957747E-01            NaN
         13   -1    0    0    0    0  0.00000000000E+00  0.00000000000E+00  0.74505805969E-08  0.10566000000E+00  0.10566000000E+00 0. -1.
     999900   -1    0    0    0    0 -0.00000000000E+00 -0.00000000000E+00 -0.74505805969E-08  0.93827000000E+00  0.93827000000E+00 0.  1.
     999902    2    1    2    0    0 -0.16989460722E-01 -0.19144133381E-02 -0.15723384827E-01  0.10207021808E+01  0.10204378523E+01 0.  0.
     999903    2    3    3    0    0 -0.10136851042E+00  0.81105424445E-01  0.13520200215E-01  0.13229500796E+00  0.21575646870E-01 0.  0.
         14    1    1    2    0    0  0.16989460722E-01  0.19144133381E-02  0.15723384827E-01  0.23227819193E-01  0.00000000000E+00 0. -1.
     999901    1    3    3    0    0  0.84379049702E-01 -0.83019837783E-01 -0.29243585042E-01  0.88840717284E+00  0.88000000000E+00 0.  1.
        -11    1    4    4    0    0 -0.41588538848E-01  0.44645757161E-01  0.20675713373E-03  0.61017653719E-01  0.51100000000E-03 0. -1.
         11    1    4    4    0    0 -0.59779971577E-01  0.36459667285E-01  0.13313443081E-01  0.71277354243E-01  0.51100000000E-03 0.  1.
</event>
<event>
 8    1  0.1088088E+005  0.1043930E+01  0.7957747E-01            NaN
         13   -1    0    0    0    0  0.00000000000E+00  0.00000000000E+00  0.74505805969E-08  0.10566000000E+00  0.10566000000E+00 0.  1.
     999900   -1    0    0    0    0 -0.00000000000E+00 -0.00000000000E+00 -0.74505805969E-08  0.93827000000E+00  0.93827000000E+00 0.  1.
     999902    2    1    2    0    0 -0.19115116982E-01  0.10949092899E-01  0.73874068641E-02  0.10206954543E+01  0.10204309709E+01 0.  0.
     999903    2    3    3    0    0 -0.42439058141E-01 -0.74830732330E-01 -0.96149095481E-01  0.13017763195E+00  0.17345176324E-01 0.  0.
         14    1    1    2    0    0  0.19115116982E-01 -0.10949092899E-01 -0.73874068641E-02  0.23234545675E-01  0.00000000000E+00 0.  1.
     999901    1    3    3    0    0  0.23323941159E-01  0.85779825228E-01  0.10353650235E+00  0.89051782237E+00  0.88000000000E+00 0. -1.
        -11    1    4    4    0    0 -0.37837931372E-01 -0.51136906134E-01 -0.69983358296E-01  0.94576021162E-01  0.51100000000E-03 0.  1.
         11    1    4    4    0    0 -0.46011267690E-02 -0.23693826196E-01 -0.26165737185E-01  0.35601610789E-01  0.51100000000E-03 0. -1.
</event>
<event>
 8    1  0.1088088E+005  0.1043930E+01  0.7957747E-01            NaN
         13   -1    0    0    0    0  0.00000000000E+00  0.00000000000E+00  0.74505805969E-08  0.10566000000E+00  0.10566000000E+00 0.  1.
     999900   -1    0    0    0    0 -0.00000000000E+00 -0.00000000000E+00 -0.74505805969E-08  0.93827000000E+00  0.93827000000E+00 0. -1.
     999902    2    1    2    0    0  0.17282368923E-01 -0.17051402527E-01 -0.37272072823E-02  0.10193673723E+01  0.10190713994E+01 0.  0.
     999903    2    3    3    0    0 -0.72639835281E-01  0.95485157850E-01 -0.36437769830E-01  0.12705550918E+00  0.20528767681E-01 0.  0.
         14    1    1    2    0    0 -0.17282368923E-01  0.17051402527E-01  0.37272072823E-02  0.24562627666E-01  0.00000000000E+00 0. -1.
     999901    1    3    3    0    0  0.89922204204E-01 -0.11253656038E+00  0.32710562548E-01  0.89231186316E+00  0.88000000000E+00 0.  1.
        -11    1    4    4    0    0 -0.51610826567E-01  0.53730598688E-01 -0.27730366001E-01  0.79497729363E-01  0.51100000000E-03 0.  1.
         11    1    4    4    0    0 -0.21029008713E-01  0.41754559162E-01 -0.87074038294E-02  0.47557779813E-01  0.51100000000E-03 0. -1.
</event>
<event>
 8    1  0.1088088E+005  0.1043930E+01  0.7957747E-01            NaN
         13   -1    0    0    0    0  0.00000000000E+00  0.00000000000E+00  0.74505805969E-08  0.10566000000E+00  0.10566000000E+00 0. -1.
     999900   -1    0    0    0    0 -0.00000000000E+00 -0.00000000000E+00 -0.74505805969E-08  0.93827000000E+00  0.93827000000E+00 0. -1.
     999902    2    1    2    0    0  0.17378000298E-03 -0.11972395065E-01 -0.20587539236E-01  0.10201137195E+01  0.10198356660E+01 0.  0.
     999903    2    3    3    0    0  0.80098476065E-01  0.12438053858E-01  0.97142571959E-01  0.12834906105E+00  0.21594701510E-01 0.  0.
         14    1    1    2    0    0 -0.17378000298E-03  0.11972395065E-01  0.20587539236E-01  0.23816280458E-01  0.00000000000E+00 0. -1.
     999901    1    3    3    0    0 -0.79924696062E-01 -0.24410448923E-01 -0.11773011119E+00  0.89176465849E+00  0.88000000000E+00 0. -1.
        -11    1    4    4    0    0  0.45047818391E-01  0.57858039586E-02  0.70311729267E-01  0.83706522223E-01  0.51100000000E-03 0. -1.
         11    1    4    4    0    0  0.35050657674E-01  0.66522498995E-02  0.26830842692E-01  0.44642538824E-01  0.51100000000E-03 0.  1.
</event>
<event>
 8    1  0.1088088E+005  0.1043930E+01  0.7957747E-01            NaN
         13   -1    0    0    0    0  0.00000000000E+00  0.00000000000E+00  0.74505805969E-08  0.10566000000E+00  0.10566000000E+00 0. -1.
     999900   -1    0    0    0    0 -0.00000000000E+00 -0.00000000000E+00 -0.74505805969E-08  0.93827000000E+00  0.93827000000E+00 0.  1.
     999902    2    1    2    0    0  0.17116076268E-01 -0.35192746017E-02  0.15438068825E-01  0.10206130677E+01  0.10203466836E+01 0.  0.
     999903    2    3    3    0    0  0.33855757936E-01  0.12215400537E+00  0.28182925163E-01  0.13143568297E+00  0.20328504943E-01 0.  0.
         14    1    1    2    0    0 -0.17116076268E-01  0.35192746017E-02 -0.15438068825E-01  0.23316932251E-01  0.00000000000E+00 0. -1.
     999901    1    3    3    0    0 -0.16739681667E-01 -0.12567327997E+00 -0.12744856339E-01  0.88917738478E+00  0.88000000000E+00 0.  1.
        -11    1    4    4    0    0  0.32544326464E-01  0.94789353007E-01  0.16172897646E-01  0.10151836468E+00  0.51100000000E-03 0.  1.
         11    1    4    4    0    0  0.13114314716E-02  0.27364652364E-01  0.12010027518E-01  0.29917318287E-01  0.51100000000E-03 0. -1.
</event>
<event>
 8    1  0.1088088E+005  0.1043930E+01  0.7957747E-01            NaN
         13   -1    0    0    0    0  0.00000000000E+00  0.00000000000E+00  0.74505805969E-08  0.10566000000E+00  0.10566000000E+00 0.  1.
     999900   -1    0    0    0    0 -0.00000000000E+00 -0.00000000000E+00 -0.74505805969E-08  0.93827000000E+00  0.93827000000E+00 0.  1.
     999902    2    1    2    0    0  0.14675846880E-02 -0.51278720427E-02  0.29580118261E-01  0.10138728499E+01  0.10134272167E+01 0.  0.
     999903    2    3    3    0    0 -0.83806816391E-01  0.73424439925E-01  0.55094951613E-01  0.12590145625E+00  0.20024788170E-01 0.  0.
         14    1    1    2    0    0 -0.14675846880E-02  0.51278720427E-02 -0.29580118261E-01  0.30057150111E-01  0.00000000000E+00 0. -1.
     999901    1    3    3    0    0  0.85274401079E-01 -0.78552311968E-01 -0.25514833353E-01  0.88797139364E+00  0.88000000000E+00 0.  1.
        -11    1    4    4    0    0 -0.79182504913E-01  0.72541535829E-01  0.55948919697E-01  0.12108957941E+00  0.51100000000E-03 0. -1.
         11    1    4    4    0    0 -0.46243114787E-02  0.88290409668E-03 -0.85396808312E-03  0.48118768462E-02  0.51100000000E-03 0.  1.
</event>
<event>
 8    1  0.1088088E+005  0.1043930E+01  0.7957747E-01            NaN
         13   -1    0    0    0    0  0.00000000000E+00  0.00000000000E+00  0.74505805969E-08  0.10566000000E+00  0.10566000000E+00 0.  1.
     999900   -1    0    0    0    0 -0.00000000000E+00 -0.00000000000E+00 -0.74505805969E-08  0.93827000000E+00  0.93827000000E+00 0. -1.
     999902    2    1    2    0    0 -0.13498263281E-01  0.22412776309E-01 -0.44039616049E-02  0.10173983108E+01  0.10170523056E+01 0.  0.
     999903    2    3    3    0    0 -0.61217420891E-01  0.69647680623E-01 -0.90557390714E-01  0.13064543230E+00  0.16407800967E-01 0.  0.
         14    1    1    2    0    0  0.13498263281E-01 -0.22412776309E-01  0.44039616049E-02  0.26531689191E-01  0.00000000000E+00 0.  1.
     999901    1    3    3    0    0  0.47719157610E-01 -0.47234904313E-01  0.86153429109E-01  0.88675287850E+00  0.88000000000E+00 0.  1.
        -11    1    4    4    0    0 -0.34902497258E-01  0.48819050682E-01 -0.50916517617E-01  0.78703474584E-01  0.51100000000E-03 0. -1.
         11    1    4    4    0    0 -0.26314923633E-01  0.20828629941E-01 -0.39640873097E-01  0.51941957721E-01  0.51100000000E-03 0.  1.
</event>
<event>
 8    1  0.1088088E+005  0.1043930E+01  0.7957747E-01            NaN
         13   -1    0    0    0    0  0.00000000000E+00  0.00000000000E+00  0.74505805969E-08  0.10566000000E+00  0.10566000000E+00 0. -1.
     999900   -1    0    0    0    0 -0.00000000000E+00 -0.00000000000E+00 -0.74505805969E-08  0.93827000000E+00  0.93827000000E+00 0. -1.
     999902    2    1    2    0    0  0.21685401009E-01  0.36011328984E-02  0.68456206642E-02  0.10209063752E+01  0.10206467262E+01 0.  0.
     999903    2    3    3    0    0  0.78522342267E-01  0.98309759809E-01  0.39408668965E-01  0.13340397297E+00  0.20322640262E-01 0.  0.
         14    1    1    2    0    0 -0.21685401009E-01 -0.36011328984E-02 -0.68456206642E-02  0.23023624765E-01  0.00000000000E+00 0.  1.
     999901    1    3    3    0    0 -0.56836941258E-01 -0.94708626910E-01 -0.32563048300E-01  0.88750240226E+00  0.88000000000E+00 0. -1.
        -11    1    4    4    0    0  0.16185811522E-01  0.33883636693E-01  0.78748491258E-02  0.38371287441E-01  0.51100000000E-03 0. -1.
         11    1    4    4    0    0  0.62336530745E-01  0.64426123115E-01  0.31533819839E-01  0.95032685533E-01  0.51100000000E-03 0.  1.
</event>
<event>
 8    1  0.1088088E+005  0.1043930E+01  0.7957747E-01            NaN
         13   -1    0    0    0    0  0.00000000000E+00  0.00000000000E+00  0.74505805969E-08  0.10566000000E+00  0.10566000000E+00 0. -1.
     999900   -1    0    0    0    0 -0.00000000000E+00 -0.00000000000E+00 -0.74505805969E-08  0.93827000000E+00  0.93827000000E+00 0.  1.
     999902    2    1    2    0    0 -0.19980377795E-01 -0.46694655460E-02  0.11221072857E-01  0.10205434252E+01  0.10202754289E+01 0.  0.
     999903    2    3    3    0    0  0.70734823642E-01 -0.69531698704E-01 -0.79790498706E-01  0.12884871105E+00  0.19934749950E-01 0.  0.
         14    1    1    2    0    0  0.19980377795E-01  0.46694655460E-02 -0.11221072857E-01  0.23386574811E-01  0.00000000000E+00 0.  1.
     999901    1    3    3    0    0 -0.90715201438E-01  0.64862233158E-01  0.91011571563E-01  0.89169471414E+00  0.88000000000E+00 0. -1.
        -11    1    4    4    0    0  0.29696417611E-01 -0.38379984349E-01 -0.29191567727E-01  0.56633110147E-01  0.51100000000E-03 0. -1.
         11    1    4    4    0    0  0.41038406031E-01 -0.31151714355E-01 -0.50598930979E-01  0.72215600905E-01  0.51100000000E-03 0.  1.
</event>
<event>
 8    1  0.1088088E+005  0.1043930E+01  0.7957747E-01            NaN
         13   -1    0    0    0    0  0.00000000000E+00  0.00000000000E+00  0.74505805969E-08  0.10566000000E+00  0.10566000000E+00 0.  1.
     999900   -1    0    0    0    0 -0.00000000000E+00 -0.00000000000E+00 -0.74505805969E-08  0.93827000000E+00  0.93827000000E+00 0.  1.
     999902    2    1    2    0    0 -0.11833325939E-01  0.18897994191E-01 -0.76745455040E-02  0.10203490663E+01  0.10200765445E+01 0.  0.
     999903    2    3    3    0    0  0.65103274404E-01  0.66750172266E-01  0.88821758537E-01  0.13044985393E+00  0.20828772524E-01 0.  0.
         14    1    1    2    0    0  0.11833325939E-01 -0.18897994191E-01  0.76745455040E-02  0.23580933737E-01  0.00000000000E+00 0.  1.
     999901    1    3    3    0    0 -0.76936600342E-01 -0.47852178076E-01 -0.96496304041E-01  0.88989921233E+00  0.88000000000E+00 0.  1.
        -11    1    4    4    0    0  0.26355136695E-01  0.41163527426E-01  0.41092934256E-01  0.63858590551E-01  0.51100000000E-03 0.  1.
         11    1    4    4    0    0  0.38748137708E-01  0.25586644840E-01  0.47728824281E-01  0.66591263378E-01  0.51100000000E-03 0. -1.
</event>
<event>
 8    1  0.1088088E+005  0.1043930E+01  0.7957747E-01            NaN
         13   -1    0    0    0    0  0.00000000000E+00  0.00000000000E+00  0.74505805969E-08  0.10566000000E+00  0.10566000000E+00 0.  1.
     999900   -1    0    0    0    0 -0.00000000000E+00 -0.00000000000E+00 -0.74505805969E-08  0.93827000000E+00  0.93827000000E+00 0.  1.
     999902    2    1    2    0    0 -0.96155789530E-02 -0.18080128064E-01  0.10250628496E-01  0.10210296556E+01  0.10207728111E+01 0.  0.
     999903    2    3    3    0    0 -0.68661009272E-02 -0.13069573682E+00  0.21267194884E-01  0.13378042358E+00  0.17787332325E-01 0.  0.
         14    1    1    2    0    0  0.96155789530E-02  0.18080128064E-01 -0.10250628496E-01  0.22900344408E-01  0.00000000000E+00 0. -1.
     999901    1    3    3    0    0 -0.27494780257E-02  0.11261560876E+00 -0.11016566388E-01  0.88724923201E+00  0.88000000000E+00 0. -1.
        -11    1    4    4    0    0  0.13506409226E-02 -0.45181467258E-01 -0.29776184316E-03  0.45205519548E-01  0.51100000000E-03 0. -1.
         11    1    4    4    0    0 -0.82167418498E-02 -0.85514269561E-01  0.21564956728E-01  0.88574904035E-01  0.51100000000E-03 0.  1.
</event>
<event>
 8    1  0.1088088E+005  0.1043930E+01  0.7957747E-01            NaN
         13   -1    0    0    0    0  0.00000000000E+00  0.00000000000E+00  0.74505805969E-08  0.10566000000E+00  0.10566000000E+00 0. -1.
     999900   -1    0    0    0    0 -0.00000000000E+00 -0.00000000000E+00 -0.74505805969E-08  0.93827000000E+00  0.93827000000E+00 0. -1.
     999902    2    1    2    0    0 -0.41272598581E-02  0.23638189591E-01 -0.17628970663E-02  0.10198695327E+01  0.10195856794E+01 0.  0.
     999903    2    3    3    0    0 -0.56873082969E-01  0.94429077621E-01 -0.71010789637E-01  0.13274567307E+00  0.20675667028E-01 0.  0.
         14    1    1    2    0    0  0.41272598581E-02 -0.23638189591E-01  0.17628970663E-02  0.24060467309E-01  0.00000000000E+00 0. -1.
     999901    1    3    3    0    0  0.52745823111E-01 -0.70790888030E-01  0.69247892571E-01  0.88712385962E+00  0.88000000000E+00 0.  1.
        -11    1    4    4    0    0 -0.19120072542E-01  0.15708045702E-01 -0.18021510171E-01  0.30616267303E-01  0.51100000000E-03 0. -1.
         11    1    4    4    0    0 -0.37753010427E-01  0.78721031920E-01 -0.52989279466E-01  0.10212940577E+00  0.51100000000E-03 0.  1.
</event>
<event>
 8    1  0.1088088E+005  0.1043930E+01  0.7957747E-01            NaN
         13   -1    0    0    0    0  0.00000000000E+00  0.00000000000E+00  0.74505805969E-08  0.10566000000E+00  0.10566000000E+00 0. -1.
     999900   -1    0    0    0    0 -0.00000000000E+00 -0.00000000000E+00 -0.74505805969E-08  0.93827000000E+00  0.93827000000E+00 0.  1.
     999902    2    1    2    0    0  0.50944321120E-02  0.22236283657E-01  0.44827805978E-02  0.10206813254E+01  0.10204165165E+01 0.  0.
     999903    2    3    3    0    0  0.67497427813E-01 -0.37786110489E-01 -0.10258625639E+00  0.12997340449E+00  0.19632956135E-01 0.  0.
         14    1    1    2    0    0 -0.50944321120E-02 -0.22236283657E-01 -0.44827805978E-02  0.23248674614E-01  0.00000000000E+00 0. -1.
     999901    1    3    3    0    0 -0.62402995701E-01  0.60022394146E-01  0.10706903699E+00  0.89070792090E+00  0.88000000000E+00 0. -1.
        -11    1    4    4    0    0  0.13130072315E-01  0.59296795388E-03 -0.19466441844E-01  0.23493698923E-01  0.51100000000E-03 0. -1.
         11    1    4    4    0    0  0.54367355499E-01 -0.38379078443E-01 -0.83119814545E-01  0.10647970556E+00  0.51100000000E-03 0.  1.
</event>
<event>
 8    1  0.1088088E+005  0.1043930E+01  0.7957747E-01            NaN
         13   -1    0    0    0    0  0.00000000000E+00  0.00000000000E+00  0.74505805969E-08  0.10566000000E+00  0.10566000000E+00 0.  1.
     999900   -1    0    0    0    0 -0.00000000000E+00 -0.00000000000E+00 -0.74505805969E-08  0.93827000000E+00  0.93827000000E+00 0. -1.
     999902    2    1    2    0    0  0.17109656200E-02  0.12027090351E-01 -0.20411990757E-01  0.10201765229E+01  0.10198999511E+01 0.  0.
     999903    2    3    3    0    0  0.48590328145E-01 -0.10529864230E+00  0.51198420027E-01  0.12827347154E+00  0.19595438964E-01 0.  0.
         14    1    1    2    0    0 -0.17109656200E-02 -0.12027090351E-01  0.20411990757E-01  0.23753477058E-01  0.00000000000E+00 0.  1.
     999901    1    3    3    0    0 -0.46879362525E-01  0.11732573265E+00 -0.71610410784E-01  0.89190305140E+00  0.88000000000E+00 0. -1.
        -11    1    4    4    0    0  0.14716267398E-01 -0.54304844397E-01  0.27481527729E-01  0.62618528715E-01  0.51100000000E-03 0. -1.
         11    1    4    4    0    0  0.33874060747E-01 -0.50993797900E-01  0.23716892298E-01  0.65654942823E-01  0.51100000000E-03 0.  1.
</event>
<event>
 8    1  0.1088088E+005  0.1043930E+01  0.7957747E-01            NaN
         13   -1    0    0    0    0  0.00000000000E+00  0.00000000000E+00  0.74505805969E-08  0.10566000000E+00  0.10566000000E+00 0.  1.
     999900   -1    0    0    0    0 -0.00000000000E+00 -0.00000000000E+00 -0.74505805969E-08  0.93827000000E+00  0.93827000000E+00 0.  1.
     999902    2    1    2    0    0 -0.63020172665E-02 -0.18530733541E-01  0.11203823840E-01  0.10213771914E+01  0.10211281692E+01 0.  0.
     999903    2    3    3    0    0  0.12755036001E+00  0.50698963538E-02  0.20047477576E-01  0.13089885991E+00  0.20923957143E-01 0.  0.
         14    1    1    2    0    0  0.63020172665E-02  0.18530733541E-01 -0.11203823840E-01  0.22552808602E-01  0.00000000000E+00 0. -1.
     999901    1    3    3    0    0 -0.13385237727E+00 -0.23600629895E-01 -0.88436537364E-02  0.89047833149E+00  0.88000000000E+00 0.  1.
        -11    1    4    4    0    0  0.11511087459E+00  0.10846463440E-01  0.17474085352E-01  0.11693487076E+00  0.51100000000E-03 0.  1.
         11    1    4    4    0    0  0.12439485414E-01 -0.57765670860E-02  0.25733922240E-02  0.13963989158E-01  0.51100000000E-03 0. -1.
</event>
<event>
 8    1  0.1088088E+005  0.1043930E+01  0.7957747E-01            NaN
         13   -1    0    0    0    0  0.00000000000E+00  0.00000000000E+00  0.74505805969E-08  0.10566000000E+00  0.10566000000E+00 0.  1.
     999900   -1    0    0    0    0 -0.00000000000E+00 -0.00000000000E+00 -0.74505805969E-08  0.93827000000E+00  0.93827000000E+00 0. -1.
     999902    2    1    2    0    0  0.85912595836E-02 -0.10805164900E-01  0.18895461500E-01  0.10205291497E+01  0.10202608223E+01 0.  0.
     999903    2    3    3    0    0  0.81607973395E-01  0.40850393348E-01  0.94310123096E-01  0.13278644577E+00  0.20229308008E-01 0.  0.
         14    1    1    2    0    0 -0.85912595836E-02  0.10805164900E-01 -0.18895461500E-01  0.23400850306E-01  0.00000000000E+00 0. -1.
     999901    1    3    3    0    0 -0.73016713812E-01 -0.51655558247E-01 -0.75414661595E-01  0.88774270393E+00  0.88000000000E+00 0. -1.
        -11    1    4    4    0    0  0.29722780057E-01  0.24208572156E-01  0.46748310143E-01  0.60457954334E-01  0.51100000000E-03 0.  1.
         11    1    4    4    0    0  0.51885193339E-01  0.16641821192E-01  0.47561812953E-01  0.72328491432E-01  0.51100000000E-03 0. -1.
</event>
<event>
 8    1  0.1088088E+005  0.1043930E+01  0.7957747E-01            NaN
         13   -1    0    0    0    0  0.00000000000E+00  0.00000000000E+00  0.74505805969E-08  0.10566000000E+00  0.10566000000E+00 0.  1.
     999900   -1    0    0    0    0 -0.00000000000E+00 -0.00000000000E+00 -0.74505805969E-08  0.93827000000E+00  0.93827000000E+00 0.  1.
     999902    2    1    2    0    0 -0.36079655364E-02 -0.16505123959E-01  0.16383126638E-01  0.10203961229E+01  0.10201247004E+01 0.  0.
     999903    2    3    3    0    0 -0.12778786245E+00  0.11267210313E-01 -0.14496153331E-01  0.13070770595E+00  0.20437174841E-01 0.  0.
         14    1    1    2    0    0  0.36079655364E-02  0.16505123959E-01 -0.16383126638E-01  0.23533877086E-01  0.00000000000E+00 0. -1.
     999901    1    3    3    0    0  0.12417989691E+00 -0.27772334272E-01  0.30879279969E-01  0.88968841696E+00  0.88000000000E+00 0. -1.
        -11    1    4    4    0    0 -0.84821453529E-01  0.89157327793E-02 -0.19178633032E-01  0.87419965430E-01  0.51100000000E-03 0.  1.
         11    1    4    4    0    0 -0.42966408921E-01  0.23514775333E-02  0.46824797015E-02  0.43287740520E-01  0.51100000000E-03 0. -1.
</event>
<event>
 8    1  0.1088088E+005  0.1043930E+01  0.7957747E-01            NaN
         13   -1    0    0    0    0  0.00000000000E+00  0.00000000000E+00  0.74505805969E-08  0.10566000000E+00  0.10566000000E+00 0. -1.
     999900   -1    0    0    0    0 -0.00000000000E+00 -0.00000000000E+00 -0.74505805969E-08  0.93827000000E+00  0.93827000000E+00 0. -1.
     999902    2    1    2    0    0 -0.19243844130E-01  0.11375358510E-01 -0.70148585921E-02  0.10205006902E+01  0.10202317022E+01 0.  0.
     999903    2    3    3    0    0 -0.19933834470E-03 -0.24561782763E-01  0.12563913753E+00  0.12962962542E+00  0.20379548564E-01 0.  0.
         14    1    1    2    0    0  0.19243844130E-01 -0.11375358510E-01  0.70148585921E-02  0.23429309832E-01  0.00000000000E+00 0. -1.
     999901    1    3    3    0    0 -0.19044505785E-01  0.35937141274E-01 -0.13265399612E+00  0.89087106475E+00  0.88000000000E+00 0. -1.
        -11    1    4    4    0    0  0.64232998353E-02 -0.11359286462E-01  0.28214632504E-01  0.31090493370E-01  0.51100000000E-03 0.  1.
         11    1    4    4    0    0 -0.66226381800E-02 -0.13202496302E-01  0.97424505021E-01  0.98539132048E-01  0.51100000000E-03 0. -1.
</event>
<event>
 8    1  0.1088088E+005  0.1043930E+01  0.7957747E-01            NaN
         13   -1    0    0    0    0  0.00000000000E+00  0.00000000000E+00  0.74505805969E-08  0.10566000000E+00  0.10566000000E+00 0.  1.
     999900   -1    0    0    0    0 -0.00000000000E+00 -0.00000000000E+00 -0.74505805969E-08  0.93827000000E+00  0.93827000000E+00 0.  1.
     999902    2    1    2    0    0 -0.56406100538E-02  0.21025942418E-01  0.80827218445E-02  0.10207085201E+01  0.10204443375E+01 0.  0.
     999903    2    3    3    0    0  0.12599444250E+00  0.24316770502E-01 -0.12235594046E-01  0.13067961575E+00  0.21483652924E-01 0.  0.
         14    1    1    2    0    0  0.56406100538E-02 -0.21025942418E-01 -0.80827218445E-02  0.23221479900E-01  0.00000000000E+00 0. -1.
     999901    1    3    3    0    0 -0.13163505256E+00 -0.32908280845E-02  0.20318315890E-01  0.89002890435E+00  0.88000000000E+00 0. -1.
        -11    1    4    4    0    0  0.78243242486E-01  0.10778574034E-01 -0.17074875069E-01  0.80808385287E-01  0.51100000000E-03 0.  1.
         11    1    4    4    0    0  0.47751200015E-01  0.13538196468E-01  0.48392810231E-02  0.49871230467E-01  0.51100000000E-03 0. -1.
</event>
<event>
 8    1  0.1088088E+005  0.1043930E+01  0.7957747E-01            NaN
         13   -1    0    0    0    0  0.00000000000E+00  0.00000000000E+00  0.74505805969E-08  0.10566000000E+00  0.10566000000E+00 0.  1.
     999900   -1    0    0    0    0 -0.00000000000E+00 -0.00000000000E+00 -0.74505805969E-08  0.93827000000E+00  0.93827000000E+00 0.  1.
     999902    2    1    2    0    0  0.18427641106E-01  0.11354575868E-01 -0.15042531258E-02  0.10222328314E+01  0.10220025413E+01 0.  0.
     999903    2    3    3    0    0 -0.91302051834E-01 -0.76531686563E-01 -0.47841341017E-01  0.12986982990E+00  0.19601405354E-01 0.  0.
         14    1    1    2    0    0 -0.18427641106E-01 -0.11354575868E-01  0.15042531258E-02  0.21697168648E-01  0.00000000000E+00 0.  1.
     999901    1    3    3    0    0  0.10972969294E+00  0.87886262431E-01  0.46337087891E-01  0.89236300145E+00  0.88000000000E+00 0.  1.
        -11    1    4    4    0    0 -0.33697573780E-01 -0.23329369613E-01 -0.25734863009E-01  0.48397626598E-01  0.51100000000E-03 0.  1.
         11    1    4    4    0    0 -0.57604478054E-01 -0.53202316950E-01 -0.22106478008E-01  0.81472203307E-01  0.51100000000E-03 0. -1.
</event>
<event>
 8    1  0.1088088E+005  0.1043930E+01  0.7957747E-01            NaN
         13   -1    0    0    0    0  0.00000000000E+00  0.00000000000E+00  0.74505805969E-08  0.10566000000E+00  0.10566000000E+00 0. -1.
     999900   -1    0    0    0    0 -0.00000000000E+00 -0.00000000000E+00 -0.74505805969E-08  0.93827000000E+00  0.93827000000E+00 0. -1.
     999902    2    1    2    0    0  0.80206938406E-02  0.13867455851E-01 -0.14338456007E-01  0.10224304841E+01  0.10222044148E+01 0.  0.
     999903    2    3    3    0    0  0.77618982510E-01  0.10234428308E+00  0.33067671288E-01  0.13399398577E+00  0.19022581607E-01 0.  0.
         14    1    1    2    0    0 -0.80206938406E-02 -0.13867455851E-01  0.14338456007E-01  0.21499515858E-01  0.00000000000E+00 0. -1.
     999901    1    3    3    0    0 -0.69598288670E-01 -0.88476827233E-01 -0.47406127295E-01  0.88843649838E+00  0.88000000000E+00 0. -1.
        -11    1    4    4    0    0  0.28242720583E-01  0.34078441488E-01  0.23826124715E-02  0.44327524219E-01  0.51100000000E-03 0. -1.
         11    1    4    4    0    0  0.49376261927E-01  0.68265841596E-01  0.30685058817E-01  0.89666461547E-01  0.51100000000E-03 0.  1.
</event>
<event>
 8    1  0.1088088E+005  0.1043930E+01  0.7957747E-01            NaN
         13   -1    0    0    0    0  0.00000000000E+00  0.00000000000E+00  0.74505805969E-08  0.10566000000E+00  0.10566000000E+00 0. -1.
     999900   -1    0    0    0    0 -0.00000000000E+00 -0.00000000000E+00 -0.74505805969E-08  0.93827000000E+00  0.93827000000E+00 0.  1.
     999902    2    1    2    0    0  0.20472807634E-01 -0.63598549497E-02 -0.11750851688E-01  0.10194827891E+01  0.10191896247E+01 0.  0.
     999903    2    3    3    0    0  0.77979352647E-01 -0.10452367776E+00 -0.68069164761E-02  0.13214543420E+00  0.20251000412E-01 0.  0.
         14    1    1    2    0    0 -0.20472807634E-01  0.63598549497E-02  0.11750851688E-01  0.24447210942E-01  0.00000000000E+00 0. -1.
     999901    1    3    3    0    0 -0.57506545013E-01  0.98163822806E-01 -0.49439352123E-02  0.88733735486E+00  0.88000000000E+00 0. -1.
        -11    1    4    4    0    0  0.22311162137E-01 -0.31594660904E-01  0.71625235662E-02  0.39339209682E-01  0.51100000000E-03 0.  1.
         11    1    4    4    0    0  0.55668190511E-01 -0.72929016852E-01 -0.13969440042E-01  0.92806224521E-01  0.51100000000E-03 0. -1.
</event>
<event>
 8    1  0.1088088E+005  0.1043930E+01  0.7957747E-01            NaN
         13   -1    0    0    0    0  0.00000000000E+00  0.00000000000E+00  0.74505805969E-08  0.10566000000E+00  0.10566000000E+00 0.  1.
     999900   -1    0    0    0    0 -0.00000000000E+00 -0.00000000000E+00 -0.74505805969E-08  0.93827000000E+00  0.93827000000E+00 0. -1.
     999902    2    1    2    0    0 -0.36875362592E-02 -0.17852500092E-01 -0.15571053102E-01  0.10199556934E+01  0.10196738935E+01 0.  0.
     999903    2    3    3    0    0  0.32330171006E-01 -0.10481358773E+00  0.69224200524E-01  0.13088328855E+00  0.17530463564E-01 0.  0.
         14    1    1    2    0    0  0.36875362592E-02  0.17852500092E-01  0.15571053102E-01  0.23974306620E-01  0.00000000000E+00 0. -1.
     999901    1    3    3    0    0 -0.36017707265E-01  0.86961087637E-01 -0.84795253626E-01  0.88907240483E+00  0.88000000000E+00 0. -1.
        -11    1    4    4    0    0  0.21792321647E-01 -0.42761552516E-01  0.33203668924E-01  0.58362662785E-01  0.51100000000E-03 0.  1.
         11    1    4    4    0    0  0.10537849359E-01 -0.62052035212E-01  0.36020531600E-01  0.72520625762E-01  0.51100000000E-03 0. -1.
</event>
<event>
 8    1  0.1088088E+005  0.1043930E+01  0.7957747E-01            NaN
         13   -1    0    0    0    0  0.00000000000E+00  0.00000000000E+00  0.74505805969E-08  0.10566000000E+00  0.10566000000E+00 0. -1.
     999900   -1    0    0    0    0 -0.00000000000E+00 -0.00000000000E+00 -0.74505805969E-08  0.93827000000E+00  0.93827000000E+00 0.  1.
     999902    2    1    2    0    0  0.25030228841E-01 -0.10486612225E-02 -0.24024499723E-02  0.10187628823E+01  0.10184519756E+01 0.  0.
     999903    2    3    3    0    0 -0.43535679951E-01  0.44802935490E-01 -0.11064967506E+00  0.12830170153E+00  0.17757183519E-01 0.  0.
         14    1    1    2    0    0 -0.25030228841E-01  0.10486612225E-02  0.24024499723E-02  0.25167117675E-01  0.00000000000E+00 0. -1.
     999901    1    3    3    0    0  0.68565908791E-01 -0.45851596712E-01  0.10824722509E+00  0.89046118080E+00  0.88000000000E+00 0. -1.
        -11    1    4    4    0    0 -0.96312327693E-02  0.21262642404E-01 -0.34016584896E-01  0.41258329773E-01  0.51100000000E-03 0.  1.
         11    1    4    4    0    0 -0.33904447181E-01  0.23540293086E-01 -0.76633090164E-01  0.87043371754E-01  0.51100000000E-03 0. -1.
</event>
<event>
 8    1  0.1088088E+005  0.1043930E+01  0.7957747E-01            NaN
         13   -1    0    0    0    0  0.00000000000E+00  0.00000000000E+00  0.74505805969E-08  0.10566000000E+00  0.10566000000E+00 0. -1.
     999900   -1    0    0    0    0 -0.00000000000E+00 -0.00000000000E+00 -0.74505805969E-08  0.93827000000E+00  0.93827000000E+00 0. -1.
     999902    2    1    2    0    0 -0.38631538586E-02  0.15963257978E-01 -0.16622321613E-01  0.10205622629E+01  0.10202947031E+01 0.  0.
     999903    2    3    3    0    0  0.93108810204E-01 -0.30889689952E-01  0.80782768938E-01  0.12866175709E+00  0.20113888140E-01 0.  0.
         14    1    1    2    0    0  0.38631538586E-02 -0.15963257978E-01  0.16622321613E-01  0.23367737135E-01  0.00000000000E+00 0. -1.
     999901    1    3    3    0    0 -0.96971964063E-01  0.46852947930E-01 -0.97405090551E-01  0.89190050578E+00  0.88000000000E+00 0. -1.
        -11    1    4    4    0    0  0.35346134761E-01 -0.86230636260E-02  0.42174849634E-01  0.55701755192E-01  0.51100000000E-03 0.  1.
         11    1    4    4    0    0  0.57762675443E-01 -0.22266626326E-01  0.38607919304E-01  0.72960001893E-01  0.51100000000E-03 0. -1.
</event>
<event>
 8    1  0.1088088E+005  0.1043930E+01  0.7957747E-01            NaN
         13   -1    0    0    0    0  0.00000000000E+00  0.00000000000E+00  0.74505805969E-08  0.10566000000E+00  0.10566000000E+00 0. -1.
     999900   -1    0    0    0    0 -0.00000000000E+00 -0.00000000000E+00 -0.74505805969E-08  0.93827000000E+00  0.93827000000E+00 0. -1.
     999902    2    1    2    0    0  0.18568217921E-01 -0.11955957506E-01 -0.82217009543E-02  0.10203647713E+01  0.10200926166E+01 0.  0.
     999903    2    3    3    0    0  0.47593101677E-01  0.10625405126E+00  0.55209075721E-01  0.12972482527E+00  0.15015375864E-01 0.  0.
         14    1    1    2    0    0 -0.18568217921E-01  0.11955957506E-01  0.82217009543E-02  0.23565228690E-01  0.00000000000E+00 0.  1.
     999901    1    3    3    0    0 -0.29024883756E-01 -0.11821000877E+00 -0.63430776676E-01  0.89063994604E+00  0.88000000000E+00 0. -1.
        -11    1    4    4    0    0  0.68122314334E-02  0.28979751576E-01  0.10476641425E-01  0.31563485788E-01  0.51100000000E-03 0.  1.
         11    1    4    4    0    0  0.40780870244E-01  0.77274299687E-01  0.44732434296E-01  0.98161339483E-01  0.51100000000E-03 0. -1.
</event>
<event>
 8    1  0.1088088E+005  0.1043930E+01  0.7957747E-01            NaN
         13   -1    0    0    0    0  0.00000000000E+00  0.00000000000E+00  0.74505805969E-08  0.10566000000E+00  0.10566000000E+00 0.  1.
     999900   -1    0    0    0    0 -0.00000000000E+00 -0.00000000000E+00 -0.74505805969E-08  0.93827000000E+00  0.93827000000E+00 0. -1.
     999902    2    1    2    0    0  0.16372134534E-01 -0.15652008185E-01 -0.56220879697E-02  0.10205924761E+01  0.10203256158E+01 0.  0.
     999903    2    3    3    0    0  0.50709944361E-02  0.74803172303E-01  0.10368913239E+00  0.12915610800E+00  0.17567996069E-01 0.  0.
         14    1    1    2    0    0 -0.16372134534E-01  0.15652008185E-01  0.56220879697E-02  0.23337523917E-01  0.00000000000E+00 0. -1.
     999901    1    3    3    0    0  0.11301140098E-01 -0.90455180488E-01 -0.10931122036E+00  0.89143636808E+00  0.88000000000E+00 0. -1.
        -11    1    4    4    0    0  0.70920501436E-02  0.66338830141E-01  0.98631138664E-01  0.11907770654E+00  0.51100000000E-03 0. -1.
         11    1    4    4    0    0 -0.20210557074E-02  0.84643421617E-02  0.50579937295E-02  0.10078401459E-01  0.51100000000E-03 0.  1.
</event>
<event>
 8    1  0.1211304E+005  0.1043930E+01  0.7957747E-01            NaN
         13   -1    0    0    0    0  0.00000000000E+00  0.00000000000E+00  0.74505805969E-08  0.10566000000E+00  0.10566000000E+00 0.  1.
     999900   -1    0    0    0    0 -0.00000000000E+00 -0.00000000000E+00 -0.74505805969E-08  0.93827000000E+00  0.93827000000E+00 0.  1.
     999902    2    1    2    0    0 -0.18580523803E-02 -0.17586612494E-02  0.23650005143E-01  0.10201420200E+01  0.10198646347E+01 0.  0.
     999903    2    3    3    0    0 -0.17871182987E-01 -0.10078492782E+00  0.81796172672E-01  0.13253647778E+00  0.19958036504E-01 0.  0.
         14    1    1    2    0    0  0.18580523803E-02  0.17586612494E-02 -0.23650005143E-01  0.23787979975E-01  0.00000000000E+00 0. -1.
     999901    1    3    3    0    0  0.16013130606E-01  0.99026266574E-01 -0.58146167529E-01  0.88760554224E+00  0.88000000000E+00 0.  1.
        -11    1    4    4    0    0 -0.15124276033E-01 -0.54101894411E-01  0.55086564588E-01  0.78680044633E-01  0.51100000000E-03 0. -1.
         11    1    4    4    0    0 -0.27469069533E-02 -0.46683033413E-01  0.26709608084E-01  0.53856433148E-01  0.51100000000E-03 0.  1.
</event>
<event>
 8    1  0.1088088E+005  0.1043930E+01  0.7957747E-01            NaN
         13   -1    0    0    0    0  0.00000000000E+00  0.00000000000E+00  0.74505805969E-08  0.10566000000E+00  0.10566000000E+00 0. -1.
     999900   -1    0    0    0    0 -0.00000000000E+00 -0.00000000000E+00 -0.74505805969E-08  0.93827000000E+00  0.93827000000E+00 0. -1.
     999902    2    1    2    0    0 -0.16770682891E-01  0.13167578345E-01 -0.89005915838E-02  0.10208245579E+01  0.10205630390E+01 0.  0.
     999903    2    3    3    0    0 -0.54358904409E-01 -0.11224274944E+00  0.31789112212E-01  0.13020888506E+00  0.19760587096E-01 0.  0.
         14    1    1    2    0    0  0.16770682891E-01 -0.13167578345E-01  0.89005915838E-02  0.23105442100E-01  0.00000000000E+00 0. -1.
     999901    1    3    3    0    0  0.37588221518E-01  0.12541032779E+00 -0.40689703796E-01  0.89061567284E+00  0.88000000000E+00 0. -1.
        -11    1    4    4    0    0 -0.30963082439E-02 -0.30618080476E-02  0.50040904490E-02  0.66531072052E-02  0.51100000000E-03 0.  1.
         11    1    4    4    0    0 -0.51262596165E-01 -0.10918094140E+00  0.26785021763E-01  0.12355577786E+00  0.51100000000E-03 0. -1.
</event>
<event>
 8    1  0.1088088E+005  0.1043930E+01  0.7957747E-01            NaN
         13   -1    0    0    0    0  0.00000000000E+00  0.00000000000E+00  0.74505805969E-08  0.10566000000E+00  0.10566000000E+00 0. -1.
     999900   -1    0    0    0    0 -0.00000000000E+00 -0.00000000000E+00 -0.74505805969E-08  0.93827000000E+00  0.93827000000E+00 0. -1.
     999902    2    1    2    0    0 -0.32501978363E-03 -0.15756333813E-01 -0.15840445250E-01  0.10215852602E+01  0.10213408620E+01 0.  0.
     999903    2    3    3    0    0  0.73197763677E-01 -0.45668913311E-01  0.96441681009E-01  0.13090707025E+00  0.19801539192E-01 0.  0.
         14    1    1    2    0    0  0.32501978363E-03  0.15756333813E-01  0.15840445250E-01  0.22344739846E-01  0.00000000000E+00 0. -1.
     999901    1    3    3    0    0 -0.73522783460E-01  0.29912579499E-01 -0.11228212626E+00  0.89067818991E+00  0.88000000000E+00 0. -1.
        -11    1    4    4    0    0  0.27006898215E-01 -0.23034058586E-01  0.27585788058E-01  0.44957504711E-01  0.51100000000E-03 0. -1.
         11    1    4    4    0    0  0.46190865462E-01 -0.22634854726E-01  0.68855892951E-01  0.85949565535E-01  0.51100000000E-03 0.  1.
</event>
<event>
 8    1  0.1088088E+005  0.1043930E+01  0.7957747E-01            NaN
         13   -1    0    0    0    0  0.00000000000E+00  0.00000000000E+00  0.74505805969E-08  0.10566000000E+00  0.10566000000E+00 0. -1.
     999900   -1    0    0    0    0 -0.00000000000E+00 -0.00000000000E+00 -0.74505805969E-08  0.93827000000E+00  0.93827000000E+00 0.  1.
     999902    2    1    2    0    0 -0.20787772492E-01  0.61253733342E-02 -0.11081707995E-01  0.10195895823E+01  0.10192990044E+01 0.  0.
     999903    2    3    3    0    0 -0.53948330233E-01  0.11776199719E+00  0.11963288787E-01  0.13161805667E+00  0.20047000963E-01 0.  0.
         14    1    1    2    0    0  0.20787772492E-01 -0.61253733342E-02  0.11081707995E-01  0.24340417740E-01  0.00000000000E+00 0.  1.
     999901    1    3    3    0    0  0.33160557741E-01 -0.11163662385E+00 -0.23044996782E-01  0.88797152559E+00  0.88000000000E+00 0.  1.
        -11    1    4    4    0    0 -0.20001903617E-01  0.44500329214E-01 -0.52011704448E-02  0.49068001217E-01  0.51100000000E-03 0. -1.
         11    1    4    4    0    0 -0.33946426616E-01  0.73261667973E-01  0.17164459232E-01  0.82550055457E-01  0.51100000000E-03 0.  1.
</event>
<event>
 8    1  0.1088088E+005  0.1043930E+01  0.7957747E-01            NaN
         13   -1    0    0    0    0  0.00000000000E+00  0.00000000000E+00  0.74505805969E-08  0.10566000000E+00  0.10566000000E+00 0. -1.
     999900   -1    0    0    0    0 -0.00000000000E+00 -0.00000000000E+00 -0.74505805969E-08  0.93827000000E+00  0.93827000000E+00 0.  1.
     999902    2    1    2    0    0  0.22223271148E-01  0.71954255140E-02 -0.18128921735E-02  0.10205006486E+01  0.10202316596E+01 0.  0.
     999903    2    3    3    0    0  0.76244861183E-01  0.86678049244E-01 -0.63385422609E-01  0.13312981509E+00  0.19480061321E-01 0.  0.
         14    1    1    2    0    0 -0.22223271148E-01 -0.71954255140E-02  0.18128921735E-02  0.23429351397E-01  0.00000000000E+00 0. -1.
     999901    1    3    3    0    0 -0.54021590035E-01 -0.79482623730E-01  0.61572530436E-01  0.88737083351E+00  0.88000000000E+00 0. -1.
        -11    1    4    4    0    0  0.49973293403E-01  0.47413879956E-01 -0.29241852291E-01  0.74838179510E-01  0.51100000000E-03 0.  1.
         11    1    4    4    0    0  0.26271567780E-01  0.39264169288E-01 -0.34143570318E-01  0.58291635580E-01  0.51100000000E-03 0. -1.
</event>
<event>
 8    1  0.1088088E+005  0.1043930E+01  0.7957747E-01            NaN
         13   -1    0    0    0    0  0.00000000000E+00  0.00000000000E+00  0.74505805969E-08  0.10566000000E+00  0.10566000000E+00 0. -1.
     999900   -1    0    0    0    0 -0.00000000000E+00 -0.00000000000E+00 -0.74505805969E-08  0.93827000000E+00  0.93827000000E+00 0. -1.
     999902    2    1    2    0    0  0.15162809238E-01  0.36957569870E-03  0.14003209514E-01  0.10232869080E+01  0.10230786670E+01 0.  0.
     999903    2    3    3    0    0  0.47553231246E-01 -0.10781663293E+00  0.63005254483E-01  0.13471806116E+00  0.17133527745E-01 0.  0.
         14    1    1    2    0    0 -0.15162809238E-01 -0.36957569870E-03 -0.14003209514E-01  0.20643091989E-01  0.00000000000E+00 0. -1.
     999901    1    3    3    0    0 -0.32390422008E-01  0.10818620863E+00 -0.49002044969E-01  0.88856884685E+00  0.88000000000E+00 0.  1.
        -11    1    4    4    0    0  0.35738859756E-01 -0.68177864284E-01  0.33746418526E-01  0.84050991424E-01  0.51100000000E-03 0. -1.
         11    1    4    4    0    0  0.11814371490E-01 -0.39638768646E-01  0.29258835957E-01  0.50667069740E-01  0.51100000000E-03 0.  1.
</event>
<event>
 8    1  0.1088088E+005  0.1043930E+01  0.7957747E-01            NaN
         13   -1    0    0    0    0  0.00000000000E+00  0.00000000000E+00  0.74505805969E-08  0.10566000000E+00  0.10566000000E+00 0.  1.
     999900   -1    0    0    0    0 -0.00000000000E+00 -0.00000000000E+00 -0.74505805969E-08  0.93827000000E+00  0.93827000000E+00 0.  1.
     999902    2    1    2    0    0 -0.18947878240E-01  0.97303976956E-02  0.98881166091E-02  0.10204464402E+01  0.10201761906E+01 0.  0.
     999903    2    3    3    0    0  0.50357578528E-02 -0.87766582965E-01 -0.92086447593E-01  0.12888618552E+00  0.20084895968E-01 0.  0.
         14    1    1    2    0    0  0.18947878240E-01 -0.97303976956E-02 -0.98881166091E-02  0.23483559764E-01  0.00000000000E+00 0. -1.
     999901    1    3    3    0    0 -0.23983636093E-01  0.97496980661E-01  0.10197456420E+00  0.89156025471E+00  0.88000000000E+00 0. -1.
        -11    1    4    4    0    0  0.64336583111E-02 -0.43482845479E-01 -0.59055460710E-01  0.73620366549E-01  0.51100000000E-03 0.  1.
         11    1    4    4    0    0 -0.13979004583E-02 -0.44283737486E-01 -0.33030986883E-01  0.55265818975E-01  0.51100000000E-03 0. -1.
</event>
<event>
 8    1  0.1384246E+005  0.1043930E+01  0.7957747E-01            NaN
         13   -1    0    0    0    0  0.00000000000E+00  0.00000000000E+00  0.74505805969E-08  0.10566000000E+00  0.10566000000E+00 0. -1.
     999900   -1    0    0    0    0 -0.00000000000E+00 -0.00000000000E+00 -0.74505805969E-08  0.93827000000E+00  0.93827000000E+00 0.  1.
     999902    2    1    2    0    0 -0.22482502369E-01 -0.39004088940E-03  0.13663106200E-01  0.10176184908E+01  0.10172782792E+01 0.  0.
     999903    2    3    3    0    0 -0.56225051477E-01  0.96756788024E-01  0.63883007894E-01  0.13020759133E+00  0.18704162669E-01 0.  0.
         14    1    1    2    0    0  0.22482502369E-01  0.39004088940E-03 -0.13663106200E-01  0.26311509187E-01  0.00000000000E+00 0. -1.
     999901    1    3    3    0    0  0.33742549108E-01 -0.97146828914E-01 -0.50219901694E-01  0.88741089948E+00  0.88000000000E+00 0.  1.
        -11    1    4    4    0    0 -0.26159774705E-01  0.49022273234E-01  0.42170395940E-01  0.69757583820E-01  0.51100000000E-03 0.  1.
         11    1    4    4    0    0 -0.30065276772E-01  0.47734514791E-01  0.21712611953E-01  0.60450007514E-01  0.51100000000E-03 0. -1.
</event>
<event>
 8    1  0.1088088E+005  0.1043930E+01  0.7957747E-01            NaN
         13   -1    0    0    0    0  0.00000000000E+00  0.00000000000E+00  0.74505805969E-08  0.10566000000E+00  0.10566000000E+00 0.  1.
     999900   -1    0    0    0    0 -0.00000000000E+00 -0.00000000000E+00 -0.74505805969E-08  0.93827000000E+00  0.93827000000E+00 0.  1.
     999902    2    1    2    0    0 -0.80781789585E-02  0.18530648430E-01 -0.13049760358E-01  0.10198688664E+01  0.10195849972E+01 0.  0.
     999903    2    3    3    0    0  0.16565701466E-01  0.73989058191E-01  0.10379384041E+00  0.13007373090E+00  0.19930152173E-01 0.  0.
         14    1    1    2    0    0  0.80781789585E-02 -0.18530648430E-01  0.13049760358E-01  0.24061133637E-01  0.00000000000E+00 0.  1.
     999901    1    3    3    0    0 -0.24643880425E-01 -0.55458409761E-01 -0.11684360077E+00  0.88979513546E+00  0.88000000000E+00 0.  1.
        -11    1    4    4    0    0  0.12035584163E-01  0.37553107975E-01  0.38223375815E-01  0.54921569391E-01  0.51100000000E-03 0.  1.
         11    1    4    4    0    0  0.45301173033E-02  0.36435950216E-01  0.65570464595E-01  0.75152161507E-01  0.51100000000E-03 0. -1.
</event>
<event>
 8    1  0.1088088E+005  0.1043930E+01  0.7957747E-01            NaN
         13   -1    0    0    0    0  0.00000000000E+00  0.00000000000E+00  0.74505805969E-08  0.10566000000E+00  0.10566000000E+00 0. -1.
     999900   -1    0    0    0    0 -0.00000000000E+00 -0.00000000000E+00 -0.74505805969E-08  0.93827000000E+00  0.93827000000E+00 0. -1.
     999902    2    1    2    0    0 -0.22533174860E-01  0.17466743032E-02  0.27656395180E-02  0.10211606433E+01  0.10209067616E+01 0.  0.
     999903    2    3    3    0    0 -0.61571580192E-01 -0.56669101033E-01 -0.10054283023E+00  0.13233611633E+00  0.20038474909E-01 0.  0.
         14    1    1    2    0    0  0.22533174860E-01 -0.17466743032E-02 -0.27656395180E-02  0.22769356652E-01  0.00000000000E+00 0.  1.
     999901    1    3    3    0    0  0.39038405332E-01  0.58415775336E-01  0.10330846975E+00  0.88882452701E+00  0.88000000000E+00 0. -1.
        -11    1    4    4    0    0 -0.24848187607E-01 -0.30497544751E-01 -0.34273540943E-01  0.52177288095E-01  0.51100000000E-03 0.  1.
         11    1    4    4    0    0 -0.36723392586E-01 -0.26171556282E-01 -0.66269289286E-01  0.80158828239E-01  0.51100000000E-03 0. -1.
</event>
<event>
 8    1  0.1088088E+005  0.1043930E+01  0.7957747E-01            NaN
         13   -1    0    0    0    0  0.00000000000E+00  0.00000000000E+00  0.74505805969E-08  0.10566000000E+00  0.10566000000E+00 0. -1.
     999900   -1    0    0    0    0 -0.00000000000E+00 -0.00000000000E+00 -0.74505805969E-08  0.93827000000E+00  0.93827000000E+00 0. -1.
     999902    2    1    2    0    0  0.86216477322E-02 -0.52274787503E-03 -0.15747653206E-01  0.10259690797E+01  0.10258118531E+01 0.  0.
     999903    2    3    3    0    0  0.21126204305E-02 -0.12102696492E+00  0.55823127388E-01  0.13485404205E+00  0.20430411220E-01 0.  0.
         14    1    1    2    0    0 -0.86216477322E-02  0.52274787503E-03  0.15747653206E-01  0.17960920257E-01  0.00000000000E+00 0. -1.
     999901    1    3    3    0    0  0.65090273017E-02  0.12050421705E+00 -0.71570780595E-01  0.89111503769E+00  0.88000000000E+00 0. -1.
        -11    1    4    4    0    0 -0.69132766040E-02 -0.65755635386E-01  0.37007433395E-01  0.75772080781E-01  0.51100000000E-03 0. -1.
         11    1    4    4    0    0  0.90258970344E-02 -0.55271329539E-01  0.18815693993E-01  0.59081961272E-01  0.51100000000E-03 0.  1.
</event>
<event>
 8    1  0.1088088E+005  0.1043930E+01  0.7957747E-01            NaN
         13   -1    0    0    0    0  0.00000000000E+00  0.00000000000E+00  0.74505805969E-08  0.10566000000E+00  0.10566000000E+00 0.  1.
     999900   -1    0    0    0    0 -0.00000000000E+00 -0.00000000000E+00 -0.74505805969E-08  0.93827000000E+00  0.93827000000E+00 0. -1.
     999902    2    1    2    0    0  0.16559405716E-01  0.13898089626E-01  0.92677318720E-02  0.10204084850E+01  0.10201373509E+01 0.  0.
     999903    2    3    3    0    0 -0.50303509925E-01  0.14922485324E-01  0.11851128992E+00  0.13113583063E+00  0.19963881337E-01 0.  0.
         14    1    1    2    0    0 -0.16559405716E-01 -0.13898089626E-01 -0.92677318720E-02  0.23521514980E-01  0.00000000000E+00 0. -1.
     999901    1    3    3    0    0  0.66862915641E-01 -0.10243956988E-02 -0.10924355804E+00  0.88927265439E+00  0.88000000000E+00 0. -1.
        -11    1    4    4    0    0 -0.19489443439E-01  0.62077216287E-02  0.25076955141E-01  0.32364934938E-01  0.51100000000E-03 0. -1.
         11    1    4    4    0    0 -0.30814066486E-01  0.87147636956E-02  0.93434334775E-01  0.98770895691E-01  0.51100000000E-03 0.  1.
</event>
<event>
 8    1  0.1088088E+005  0.1043930E+01  0.7957747E-01            NaN
         13   -1    0    0    0    0  0.00000000000E+00  0.00000000000E+00  0.74505805969E-08  0.10566000000E+00  0.10566000000E+00 0. -1.
     999900   -1    0    0    0    0 -0.00000000000E+00 -0.00000000000E+00 -0.74505805969E-08  0.93827000000E+00  0.93827000000E+00 0. -1.
     999902    2    1    2    0    0  0.14136621534E-01 -0.55736318298E-02  0.19744047336E-01  0.10190154090E+01  0.10187107867E+01 0.  0.
     999903    2    3    3    0    0 -0.40781473409E-02 -0.10741306920E+00 -0.67529245245E-01  0.12866734423E+00  0.20997328118E-01 0.  0.
         14    1    1    2    0    0 -0.14136621534E-01  0.55736318298E-02 -0.19744047336E-01  0.24914591014E-01  0.00000000000E+00 0.  1.
     999901    1    3    3    0    0  0.18214768875E-01  0.10183943737E+00  0.87273292581E-01  0.89034806475E+00  0.88000000000E+00 0. -1.
        -11    1    4    4    0    0 -0.76252650313E-02 -0.13749130616E-01 -0.82451144027E-02  0.17760244706E-01  0.51100000000E-03 0.  1.
         11    1    4    4    0    0  0.35471176904E-02 -0.93663938584E-01 -0.59284130843E-01  0.11090709953E+00  0.51100000000E-03 0. -1.
</event>
<event>
 8    1  0.1088088E+005  0.1043930E+01  0.7957747E-01            NaN
         13   -1    0    0    0    0  0.00000000000E+00  0.00000000000E+00  0.74505805969E-08  0.10566000000E+00  0.10566000000E+00 0.  1.
     999900   -1    0    0    0    0 -0.00000000000E+00 -0.00000000000E+00 -0.74505805969E-08  0.93827000000E+00  0.93827000000E+00 0.  1.
     999902    2    1    2    0    0 -0.94806869677E-02  0.79696388219E-02 -0.18986779795E-01  0.10212607174E+01  0.10210090874E+01 0.  0.
     999903    2    3    3    0    0 -0.61007921906E-01 -0.53689770147E-01 -0.10403501384E+00  0.13351630551E+00  0.19969020524E-01 0.  0.
         14    1    1    2    0    0  0.94806869677E-02 -0.79696388219E-02  0.18986779795E-01  0.22669282638E-01  0.00000000000E+00 0.  1.
     999901    1    3    3    0    0  0.51527234938E-01  0.61659408969E-01  0.85048234041E-01  0.88774441185E+00  0.88000000000E+00 0. -1.
        -11    1    4    4    0    0 -0.57698462586E-01 -0.42627477602E-01 -0.84784143062E-01  0.11106226392E+00  0.51100000000E-03 0.  1.
         11    1    4    4    0    0 -0.33094593205E-02 -0.11062292545E-01 -0.19250870773E-01  0.22454041593E-01  0.51100000000E-03 0. -1.
</event>
<event>
 8    1  0.1088088E+005  0.1043930E+01  0.7957747E-01            NaN
         13   -1    0    0    0    0  0.00000000000E+00  0.00000000000E+00  0.74505805969E-08  0.10566000000E+00  0.10566000000E+00 0. -1.
     999900   -1    0    0    0    0 -0.00000000000E+00 -0.00000000000E+00 -0.74505805969E-08  0.93827000000E+00  0.93827000000E+00 0. -1.
     999902    2    1    2    0    0  0.43083323460E-02 -0.23678557351E-01 -0.13136916774E-02  0.10198268552E+01  0.10195419819E+01 0.  0.
     999903    2    3    3    0    0 -0.69428996515E-01 -0.10251621230E+00  0.41453237753E-01  0.13219991789E+00  0.20699952330E-01 0.  0.
         14    1    1    2    0    0 -0.43083323460E-02  0.23678557351E-01  0.13136916774E-02  0.24103144850E-01  0.00000000000E+00 0.  1.
     999901    1    3    3    0    0  0.73737328861E-01  0.78837654953E-01 -0.42766929430E-01  0.88762693727E+00  0.88000000000E+00 0. -1.
        -11    1    4    4    0    0 -0.48722050214E-01 -0.72224435405E-01  0.38904548650E-01  0.95415052656E-01  0.51100000000E-03 0. -1.
         11    1    4    4    0    0 -0.20706946301E-01 -0.30291776899E-01  0.25486891022E-02  0.36784865229E-01  0.51100000000E-03 0.  1.
</event>
<event>
 8    1  0.1088088E+005  0.1043930E+01  0.7957747E-01            NaN
         13   -1    0    0    0    0  0.00000000000E+00  0.00000000000E+00  0.74505805969E-08  0.10566000000E+00  0.10566000000E+00 0. -1.
     999900   -1    0    0    0    0 -0.00000000000E+00 -0.00000000000E+00 -0.74505805969E-08  0.93827000000E+00  0.93827000000E+00 0.  1.
     999902    2    1    2    0    0  0.16154071441E-01 -0.90546345299E-02 -0.14649777188E-01  0.10203173677E+01  0.10200441042E+01 0.  0.
     999903    2    3    3    0    0 -0.16607665780E-01 -0.87798603213E-01 -0.95818059965E-01  0.13247603385E+00  0.19605857310E-01 0.  0.
         14    1    1    2    0    0 -0.16154071441E-01  0.90546345299E-02  0.14649777188E-01  0.23612632260E-01  0.00000000000E+00 0. -1.
     999901    1    3    3    0    0  0.32761737221E-01  0.78743968683E-01  0.81168282777E-01  0.88784133389E+00  0.88000000000E+00 0. -1.
        -11    1    4    4    0    0 -0.55287588079E-02 -0.71726830375E-01 -0.76259126093E-01  0.10483806944E+00  0.51100000000E-03 0. -1.
         11    1    4    4    0    0 -0.11078906972E-01 -0.16071772838E-01 -0.19558933873E-01  0.27637964417E-01  0.51100000000E-03 0.  1.
</event>
<event>
 8    1  0.1088088E+005  0.1043930E+01  0.7957747E-01            NaN
         13   -1    0    0    0    0  0.00000000000E+00  0.00000000000E+00  0.74505805969E-08  0.10566000000E+00  0.10566000000E+00 0.  1.
     999900   -1    0    0    0    0 -0.00000000000E+00 -0.00000000000E+00 -0.74505805969E-08  0.93827000000E+00  0.93827000000E+00 0. -1.
     999902    2    1    2    0    0  0.11262794749E-01 -0.19683384054E-01  0.73392352281E-02  0.10200940916E+01  0.10198155742E+01 0.  0.
     999903    2    3    3    0    0  0.18945731605E-01  0.30955204504E-01  0.12422446252E+00  0.13088913747E+00  0.19572526316E-01 0.  0.
         14    1    1    2    0    0 -0.11262794749E-01  0.19683384054E-01 -0.73392352281E-02  0.23835908355E-01  0.00000000000E+00 0. -1.
     999901    1    3    3    0    0 -0.76829368559E-02 -0.50638588559E-01 -0.11688522730E+00  0.88920495418E+00  0.88000000000E+00 0. -1.
        -11    1    4    4    0    0  0.45906898597E-02 -0.21746613778E-02  0.14123304907E-01  0.15017737779E-01  0.51100000000E-03 0.  1.
         11    1    4    4    0    0  0.14355041745E-01  0.33129865882E-01  0.11010115762E+00  0.11587139969E+00  0.51100000000E-03 0. -1.
</event>
<event>
 8    1  0.1088088E+005  0.1043930E+01  0.7957747E-01            NaN
         13   -1    0    0    0    0  0.00000000000E+00  0.00000000000E+00  0.74505805969E-08  0.10566000000E+00  0.10566000000E+00 0. -1.
     999900   -1    0    0    0    0 -0.00000000000E+00 -0.00000000000E+00 -0.74505805969E-08  0.93827000000E+00  0.93827000000E+00 0. -1.
     999902    2    1    2    0    0 -0.18283099009E-01  0.27843084243E-02 -0.15008868695E-01  0.10201121449E+01  0.10198340541E+01 0.  0.
     999903    2    3    3    0    0 -0.10733008188E+00  0.42288631726E-01 -0.63427351566E-01  0.13341360186E+00  0.21635281049E-01 0.  0.
         14    1    1    2    0    0  0.18283099009E-01 -0.27843084243E-02  0.15008868695E-01  0.23817855115E-01  0.00000000000E+00 0. -1.
     999901    1    3    3    0    0  0.89046982867E-01 -0.39504323301E-01  0.48418482871E-01  0.88669854302E+00  0.88000000000E+00 0.  1.
        -11    1    4    4    0    0 -0.28370717302E-01  0.20048479692E-01 -0.25141583905E-01  0.42885889293E-01  0.51100000000E-03 0.  1.
         11    1    4    4    0    0 -0.78959364574E-01  0.22240152034E-01 -0.38285767661E-01  0.90527712568E-01  0.51100000000E-03 0. -1.
</event>
<event>
 8    1  0.1088088E+005  0.1043930E+01  0.7957747E-01            NaN
         13   -1    0    0    0    0  0.00000000000E+00  0.00000000000E+00  0.74505805969E-08  0.10566000000E+00  0.10566000000E+00 0. -1.
     999900   -1    0    0    0    0 -0.00000000000E+00 -0.00000000000E+00 -0.74505805969E-08  0.93827000000E+00  0.93827000000E+00 0. -1.
     999902    2    1    2    0    0  0.89945992178E-02 -0.19801595264E-01  0.10005094144E-01  0.10199903279E+01  0.10197093513E+01 0.  0.
     999903    2    3    3    0    0 -0.39381353970E-01 -0.41215916880E-01  0.11728281667E+00  0.13189837561E+00  0.19806048496E-01 0.  0.
         14    1    1    2    0    0 -0.89945992178E-02  0.19801595264E-01 -0.10005094144E-01  0.23939672072E-01  0.00000000000E+00 0. -1.
     999901    1    3    3    0    0  0.48375953188E-01  0.21414321616E-01 -0.10727772253E+00  0.88809195232E+00  0.88000000000E+00 0. -1.
        -11    1    4    4    0    0 -0.35955221354E-01 -0.28109712818E-01  0.10007795495E+00  0.10999450934E+00  0.51100000000E-03 0. -1.
         11    1    4    4    0    0 -0.34261326162E-02 -0.13106204062E-01  0.17204861727E-01  0.21903866272E-01  0.51100000000E-03 0.  1.
</event>
<event>
 8    1  0.1088088E+005  0.1043930E+01  0.7957747E-01            NaN
         13   -1    0    0    0    0  0.00000000000E+00  0.00000000000E+00  0.74505805969E-08  0.10566000000E+00  0.10566000000E+00 0.  1.
     999900   -1    0    0    0    0 -0.00000000000E+00 -0.00000000000E+00 -0.74505805969E-08  0.93827000000E+00  0.93827000000E+00 0. -1.
     999902    2    1    2    0    0  0.91597063766E-02  0.21006522791E-01  0.79200527780E-02  0.10196833207E+01  0.10193950035E+01 0.  0.
     999903    2    3    3    0    0  0.38071542326E-01 -0.98436957973E-01  0.70529428554E-01  0.12894061190E+00  0.22627507056E-01 0.  0.
         14    1    1    2    0    0 -0.91597063766E-02 -0.21006522791E-01 -0.79200527780E-02  0.24246679291E-01  0.00000000000E+00 0. -1.
     999901    1    3    3    0    0 -0.28911835950E-01  0.11944348076E+00 -0.62609375776E-01  0.89074270881E+00  0.88000000000E+00 0.  1.
        -11    1    4    4    0    0  0.23183292555E-01 -0.81823729989E-01  0.61084481584E-01  0.10470989855E+00  0.51100000000E-03 0. -1.
         11    1    4    4    0    0  0.14888249771E-01 -0.16613227984E-01  0.94449469707E-02  0.24230713353E-01  0.51100000000E-03 0.  1.
</event>
<event>
 8    1  0.1088088E+005  0.1043930E+01  0.7957747E-01            NaN
         13   -1    0    0    0    0  0.00000000000E+00  0.00000000000E+00  0.74505805969E-08  0.10566000000E+00  0.10566000000E+00 0.  1.
     999900   -1    0    0    0    0 -0.00000000000E+00 -0.00000000000E+00 -0.74505805969E-08  0.93827000000E+00  0.93827000000E+00 0. -1.
     999902    2    1    2    0    0 -0.19747012895E-01  0.16278974488E-01 -0.43339584760E-02  0.10179736381E+01  0.10176426657E+01 0.  0.
     999903    2    3    3    0    0  0.68776994184E-01  0.74471621301E-02 -0.10554051676E+00  0.12771678290E+00  0.19673352634E-01 0.  0.
         14    1    1    2    0    0  0.19747012895E-01 -0.16278974488E-01  0.43339584760E-02  0.25956361932E-01  0.00000000000E+00 0. -1.
     999901    1    3    3    0    0 -0.88524007079E-01  0.88318123578E-02  0.10120655828E+00  0.89025685517E+00  0.88000000000E+00 0.  1.
        -11    1    4    4    0    0  0.36758390253E-01  0.13767718508E-01 -0.59334013436E-01  0.71144329348E-01  0.51100000000E-03 0.  1.
         11    1    4    4    0    0  0.32018603931E-01 -0.63205563782E-02 -0.46206503320E-01  0.56572453550E-01  0.51100000000E-03 0. -1.
</event>
<event>
 8    1  0.1088088E+005  0.1043930E+01  0.7957747E-01            NaN
         13   -1    0    0    0    0  0.00000000000E+00  0.00000000000E+00  0.74505805969E-08  0.10566000000E+00  0.10566000000E+00 0.  1.
     999900   -1    0    0    0    0 -0.00000000000E+00 -0.00000000000E+00 -0.74505805969E-08  0.93827000000E+00  0.93827000000E+00 0. -1.
     999902    2    1    2    0    0  0.17708335485E-01  0.99081265174E-02 -0.11166257094E-01  0.10207687951E+01  0.10205059978E+01 0.  0.
     999903    2    3    3    0    0  0.20387348191E-01  0.12254415656E+00 -0.42624213910E-01  0.13302803593E+00  0.21140493384E-01 0.  0.
         14    1    1    2    0    0 -0.17708335485E-01 -0.99081265174E-02  0.11166257094E-01  0.23161204939E-01  0.00000000000E+00 0.  1.
     999901    1    3    3    0    0 -0.26790127066E-02 -0.11263603004E+00  0.31457956816E-01  0.88774075913E+00  0.88000000000E+00 0. -1.
        -11    1    4    4    0    0  0.16293088131E-01  0.11374860552E+00 -0.44328453374E-01  0.12316445461E+00  0.51100000000E-03 0.  1.
         11    1    4    4    0    0  0.40942600605E-02  0.87955510335E-02  0.17042394641E-02  0.98635813261E-02  0.51100000000E-03 0. -1.
</event>
<event>
 8    1  0.1088088E+005  0.1043930E+01  0.7957747E-01            NaN
         13   -1    0    0    0    0  0.00000000000E+00  0.00000000000E+00  0.74505805969E-08  0.10566000000E+00  0.10566000000E+00 0.  1.
     999900   -1    0    0    0    0 -0.00000000000E+00 -0.00000000000E+00 -0.74505805969E-08  0.93827000000E+00  0.93827000000E+00 0. -1.
     999902    2    1    2    0    0 -0.89189577403E-03 -0.21363544555E-01 -0.10487755383E-01  0.10201142588E+01  0.10198362180E+01 0.  0.
     999903    2    3    3    0    0 -0.83216919359E-01  0.17130410413E-01  0.95186495621E-01  0.12914498810E+00  0.19986304668E-01 0.  0.
         14    1    1    2    0    0  0.89189577403E-03  0.21363544555E-01  0.10487755383E-01  0.23815741160E-01  0.00000000000E+00 0. -1.
     999901    1    3    3    0    0  0.82325023585E-01 -0.38493954968E-01 -0.10567425100E+00  0.89096927074E+00  0.88000000000E+00 0. -1.
        -11    1    4    4    0    0 -0.56668382043E-01  0.19965160914E-01  0.59367469459E-01  0.84466980085E-01  0.51100000000E-03 0. -1.
         11    1    4    4    0    0 -0.26548537317E-01 -0.28347505014E-02  0.35819026162E-01  0.44678008016E-01  0.51100000000E-03 0.  1.
</event>
<event>
 8    1  0.1088088E+005  0.1043930E+01  0.7957747E-01            NaN
         13   -1    0    0    0    0  0.00000000000E+00  0.00000000000E+00  0.74505805969E-08  0.10566000000E+00  0.10566000000E+00 0. -1.
     999900   -1    0    0    0    0 -0.00000000000E+00 -0.00000000000E+00 -0.74505805969E-08  0.93827000000E+00  0.93827000000E+00 0. -1.
     999902    2    1    2    0    0 -0.11080544195E-01 -0.48882902682E-02 -0.44838705886E-02  0.10310157080E+01  0.10309348240E+01 0.  0.
     999903    2    3    3    0    0  0.31929798102E-01  0.11550050405E+00  0.67306917563E-01  0.13888496168E+00  0.19973306844E-01 0.  0.
         14    1    1    2    0    0  0.11080544195E-01  0.48882902682E-02  0.44838705886E-02  0.12914291962E-01  0.00000000000E+00 0.  1.
     999901    1    3    3    0    0 -0.43010342298E-01 -0.12038879431E+00 -0.71790788151E-01  0.89213074636E+00  0.88000000000E+00 0. -1.
        -11    1    4    4    0    0  0.18984597563E-01  0.49922275357E-01  0.39756343649E-01  0.66584356292E-01  0.51100000000E-03 0.  1.
         11    1    4    4    0    0  0.12945200539E-01  0.65578228689E-01  0.27550573914E-01  0.72300605385E-01  0.51100000000E-03 0. -1.
</event>
<event>
 8    1  0.1088088E+005  0.1043930E+01  0.7957747E-01            NaN
         13   -1    0    0    0    0  0.00000000000E+00  0.00000000000E+00  0.74505805969E-08  0.10566000000E+00  0.10566000000E+00 0. -1.
     999900   -1    0    0    0    0 -0.00000000000E+00 -0.00000000000E+00 -0.74505805969E-08  0.93827000000E+00  0.93827000000E+00 0. -1.
     999902    2    1    2    0    0  0.90917965374E-02 -0.21934597215E-01  0.15009656453E-02  0.10201384003E+01  0.10198609295E+01 0.  0.
     999903    2    3    3    0    0  0.96540372819E-01  0.83079762571E-01 -0.13147685030E-01  0.12947019482E+00  0.19167138334E-01 0.  0.
         14    1    1    2    0    0 -0.90917965374E-02  0.21934597215E-01 -0.15009656453E-02  0.23791599718E-01  0.00000000000E+00 0. -1.
     999901    1    3    3    0    0 -0.87448576282E-01 -0.10501435979E+00  0.14648650676E-01  0.89066820546E+00  0.88000000000E+00 0.  1.
        -11    1    4    4    0    0  0.48480057915E-01  0.35335442717E-01  0.20970893542E-02  0.60029729569E-01  0.51100000000E-03 0. -1.
         11    1    4    4    0    0  0.48060314905E-01  0.47744319855E-01 -0.15244774384E-01  0.69440465250E-01  0.51100000000E-03 0.  1.
</event>
<event>
 8    1  0.1088088E+005  0.1043930E+01  0.7957747E-01            NaN
         13   -1    0    0    0    0  0.00000000000E+00  0.00000000000E+00  0.74505805969E-08  0.10566000000E+00  0.10566000000E+00 0. -1.
     999900   -1    0    0    0    0 -0.00000000000E+00 -0.00000000000E+00 -0.74505805969E-08  0.93827000000E+00  0.93827000000E+00 0.  1.
     999902    2    1    2    0    0  0.50778004289E-02  0.18900122925E-01 -0.13307482884E-01  0.10202638257E+01  0.10199893070E+01 0.  0.
     999903    2    3    3    0    0 -0.10892533238E-01 -0.12381436039E+00 -0.26032095850E-01  0.12853270534E+00  0.19858076635E-01 0.  0.
         14    1    1    2    0    0 -0.50778004289E-02 -0.18900122925E-01  0.13307482884E-01  0.23666174268E-01  0.00000000000E+00 0. -1.
     999901    1    3    3    0    0  0.15970333667E-01  0.14271448332E+00  0.12724612966E-01  0.89173112039E+00  0.88000000000E+00 0.  1.
        -11    1    4    4    0    0  0.13677735925E-03 -0.62756731106E-01 -0.21419850402E-01  0.66313626951E-01  0.51100000000E-03 0.  1.
         11    1    4    4    0    0 -0.11029310597E-01 -0.61057629285E-01 -0.46122454474E-02  0.62219078386E-01  0.51100000000E-03 0. -1.
</event>
<event>
 8    1  0.1088088E+005  0.1043930E+01  0.7957747E-01            NaN
         13   -1    0    0    0    0  0.00000000000E+00  0.00000000000E+00  0.74505805969E-08  0.10566000000E+00  0.10566000000E+00 0.  1.
     999900   -1    0    0    0    0 -0.00000000000E+00 -0.00000000000E+00 -0.74505805969E-08  0.93827000000E+00  0.93827000000E+00 0.  1.
     999902    2    1    2    0    0  0.17901482909E-01 -0.12282712118E-01  0.91121147521E-02  0.10203851759E+01  0.10201134978E+01 0.  0.
     999903    2    3    3    0    0 -0.75633204337E-01  0.14908040880E-01 -0.10040185843E+00  0.12826333158E+00  0.20695839462E-01 0.  0.
         14    1    1    2    0    0 -0.17901482909E-01  0.12282712118E-01 -0.91121147521E-02  0.23544824114E-01  0.00000000000E+00 0.  1.
     999901    1    3    3    0    0  0.93534687246E-01 -0.27190752999E-01  0.10951397318E+00  0.89212184431E+00  0.88000000000E+00 0. -1.
        -11    1    4    4    0    0 -0.35124187205E-01  0.17440320706E-01 -0.48437914918E-01  0.62324682396E-01  0.51100000000E-03 0. -1.
         11    1    4    4    0    0 -0.40509017133E-01 -0.25322798258E-02 -0.51963943509E-01  0.65938649184E-01  0.51100000000E-03 0.  1.
</event>
<event>
 8    1  0.1088088E+005  0.1043930E+01  0.7957747E-01            NaN
         13   -1    0    0    0    0  0.00000000000E+00  0.00000000000E+00  0.74505805969E-08  0.10566000000E+00  0.10566000000E+00 0. -1.
     999900   -1    0    0    0    0 -0.00000000000E+00 -0.00000000000E+00 -0.74505805969E-08  0.93827000000E+00  0.93827000000E+00 0. -1.
     999902    2    1    2    0    0  0.77772093429E-02  0.17418680254E-01  0.14957069141E-01  0.10196893456E+01  0.10194011734E+01 0.  0.
     999903    2    3    3    0    0  0.88229050094E-01 -0.59566982258E-01  0.74324485377E-01  0.13068778150E+00  0.14918996335E-01 0.  0.
         14    1    1    2    0    0 -0.77772093429E-02 -0.17418680254E-01 -0.14957069141E-01  0.24240654369E-01  0.00000000000E+00 0.  1.
     999901    1    3    3    0    0 -0.80451840751E-01  0.76985662512E-01 -0.59367416237E-01  0.88900156413E+00  0.88000000000E+00 0. -1.
        -11    1    4    4    0    0  0.50853102911E-01 -0.25994876673E-01  0.42841073758E-01  0.71396011168E-01  0.51100000000E-03 0. -1.
         11    1    4    4    0    0  0.37375947183E-01 -0.33572105586E-01  0.31483411619E-01  0.59291770335E-01  0.51100000000E-03 0.  1.
</event>
<event>
 8    1  0.1088088E+005  0.1043930E+01  0.7957747E-01            NaN
         13   -1    0    0    0    0  0.00000000000E+00  0.00000000000E+00  0.74505805969E-08  0.10566000000E+00  0.10566000000E+00 0.  1.
     999900   -1    0    0    0    0 -0.00000000000E+00 -0.00000000000E+00 -0.74505805969E-08  0.93827000000E+00  0.93827000000E+00 0. -1.
     999902    2    1    2    0    0 -0.70694511422E-02 -0.22119294804E-01 -0.51859316582E-02  0.10201364246E+01  0.10198589072E+01 0.  0.
     999903    2    3    3    0    0  0.70659352345E-01  0.70547325842E-01 -0.78657855686E-01  0.12883008385E+00  0.20987210095E-01 0.  0.
         14    1    1    2    0    0  0.70694511422E-02  0.22119294804E-01  0.51859316582E-02  0.23793575377E-01  0.00000000000E+00 0.  1.
     999901    1    3    3    0    0 -0.77728803488E-01 -0.92666620645E-01  0.73471924028E-01  0.89130634077E+00  0.88000000000E+00 0. -1.
        -11    1    4    4    0    0  0.46138599515E-01  0.58606084819E-01 -0.60744070585E-01  0.96195357348E-01  0.51100000000E-03 0.  1.
         11    1    4    4    0    0  0.24520752830E-01  0.11941241022E-01 -0.17913785101E-01  0.32634726507E-01  0.51100000000E-03 0. -1.
</event>
<event>
 8    1  0.1088088E+005  0.1043930E+01  0.7957747E-01            NaN
         13   -1    0    0    0    0  0.00000000000E+00  0.00000000000E+00  0.74505805969E-08  0.10566000000E+00  0.10566000000E+00 0.  1.
     999900   -1    0    0    0    0 -0.00000000000E+00 -0.00000000000E+00 -0.74505805969E-08  0.93827000000E+00  0.93827000000E+00 0. -1.
     999902    2    1    2    0    0  0.20946417077E-01 -0.19869978720E-01 -0.24974788206E-02  0.10149505962E+01  0.10145367943E+01 0.  0.
     999903    2    3    3    0    0 -0.26927545277E-01 -0.61582926869E-02  0.11971755767E+00  0.12510991287E+00  0.23604648284E-01 0.  0.
         14    1    1    2    0    0 -0.20946417077E-01  0.19869978720E-01  0.24974788206E-02  0.28979403775E-01  0.00000000000E+00 0.  1.
     999901    1    3    3    0    0  0.47873962354E-01 -0.13711686033E-01 -0.12221503649E+00  0.88984068335E+00  0.88000000000E+00 0. -1.
        -11    1    4    4    0    0 -0.24919775449E-01 -0.12967352087E-01  0.80766617931E-01  0.85514063882E-01  0.51100000000E-03 0. -1.
         11    1    4    4    0    0 -0.20077698286E-02  0.68090594006E-02  0.38950939740E-01  0.39595848990E-01  0.51100000000E-03 0.  1.
</event>
<event>
 8    1  0.1088088E+005  0.1043930E+01  0.7957747E-01            NaN
         13   -1    0    0    0    0  0.00000000000E+00  0.00000000000E+00  0.74505805969E-08  0.10566000000E+00  0.10566000000E+00 0.  1.
     999900   -1    0    0    0    0 -0.00000000000E+00 -0.00000000000E+00 -0.74505805969E-08  0.93827000000E+00  0.93827000000E+00 0. -1.
     999902    2    1    2    0    0  0.20243357445E-01 -0.11805326435E-01  0.31876474781E-02  0.10202800455E+01  0.10200059073E+01 0.  0.
     999903    2    3    3    0    0  0.10240946615E+00  0.71412792823E-01  0.37274622706E-01  0.13188911425E+00  0.20441507364E-01 0.  0.
         14    1    1    2    0    0 -0.20243357445E-01  0.11805326435E-01 -0.31876474781E-02  0.23649954531E-01  0.00000000000E+00 0.  1.
     999901    1    3    3    0    0 -0.82166108707E-01 -0.83218119258E-01 -0.34086975228E-01  0.88839093122E+00  0.88000000000E+00 0.  1.
        -11    1    4    4    0    0  0.73522918833E-01  0.60416440323E-01  0.23357288430E-01  0.97987702794E-01  0.51100000000E-03 0.  1.
         11    1    4    4    0    0  0.28886547319E-01  0.10996352500E-01  0.13917334276E-01  0.33901411455E-01  0.51100000000E-03 0. -1.
</event>
<event>
 8    1  0.1088088E+005  0.1043930E+01  0.7957747E-01            NaN
         13   -1    0    0    0    0  0.00000000000E+00  0.00000000000E+00  0.74505805969E-08  0.10566000000E+00  0.10566000000E+00 0. -1.
     999900   -1    0    0    0    0 -0.00000000000E+00 -0.00000000000E+00 -0.74505805969E-08  0.93827000000E+00  0.93827000000E+00 0.  1.
     999902    2    1    2    0    0  0.63681959693E-03  0.18605426199E-01  0.13701558546E-01  0.10208150670E+01  0.10205533307E+01 0.  0.
     999903    2    3    3    0    0 -0.75083409357E-01 -0.97241286490E-02  0.10661580582E+00  0.13223801678E+00  0.19694821421E-01 0.  0.
         14    1    1    2    0    0 -0.63681959693E-03 -0.18605426199E-01 -0.13701558546E-01  0.23114933048E-01  0.00000000000E+00 0.  1.
     999901    1    3    3    0    0  0.75720228954E-01  0.28329554848E-01 -0.92914247278E-01  0.88857705018E+00  0.88000000000E+00 0. -1.
        -11    1    4    4    0    0 -0.17109097877E-01  0.58837136016E-02  0.22088374820E-01  0.28556903528E-01  0.51100000000E-03 0.  1.
         11    1    4    4    0    0 -0.57974311479E-01 -0.15607842251E-01  0.84527431005E-01  0.10368111325E+00  0.51100000000E-03 0. -1.
</event>
<event>
 8    1  0.1088088E+005  0.1043930E+01  0.7957747E-01            NaN
         13   -1    0    0    0    0  0.00000000000E+00  0.00000000000E+00  0.74505805969E-08  0.10566000000E+00  0.10566000000E+00 0.  1.
     999900   -1    0    0    0    0 -0.00000000000E+00 -0.00000000000E+00 -0.74505805969E-08  0.93827000000E+00  0.93827000000E+00 0.  1.
     999902    2    1    2    0    0 -0.20669172000E-01  0.11146594306E-01  0.20446674279E-02  0.10203579424E+01  0.10200856281E+01 0.  0.
     999903    2    3    3    0    0 -0.48650212486E-01 -0.10784609538E-01  0.12051175545E+00  0.13170819851E+00  0.18461185657E-01 0.  0.
         14    1    1    2    0    0  0.20669172000E-01 -0.11146594306E-01 -0.20446674279E-02  0.23572057625E-01  0.00000000000E+00 0.  1.
     999901    1    3    3    0    0  0.27981040486E-01  0.21931203845E-01 -0.11846708802E+00  0.88864974387E+00  0.88000000000E+00 0.  1.
        -11    1    4    4    0    0 -0.68642476296E-02 -0.74512430185E-02  0.35516420587E-01  0.36936650773E-01  0.51100000000E-03 0.  1.
         11    1    4    4    0    0 -0.41785964857E-01 -0.33333665197E-02  0.84995334860E-01  0.94771547736E-01  0.51100000000E-03 0. -1.
</event>
<event>
 8    1  0.1088088E+005  0.1043930E+01  0.7957747E-01            NaN
         13   -1    0    0    0    0  0.00000000000E+00  0.00000000000E+00  0.74505805969E-08  0.10566000000E+00  0.10566000000E+00 0.  1.
     999900   -1    0    0    0    0 -0.00000000000E+00 -0.00000000000E+00 -0.74505805969E-08  0.93827000000E+00  0.93827000000E+00 0.  1.
     999902    2    1    2    0    0 -0.20603926098E-01 -0.10151009989E-01 -0.68184292714E-02  0.10199705394E+01  0.10196890926E+01 0.  0.
     999903    2    3    3    0    0  0.15630125159E-01 -0.83474735163E-02  0.12643980422E+00  0.12919901089E+00  0.19783306047E-01 0.  0.
         14    1    1    2    0    0  0.20603926098E-01  0.10151009989E-01  0.68184292714E-02  0.23959460599E-01  0.00000000000E+00 0.  1.
     999901    1    3    3    0    0 -0.36234051258E-01 -0.18035364725E-02 -0.13325823349E+00  0.89077152851E+00  0.88000000000E+00 0.  1.
        -11    1    4    4    0    0  0.57906049772E-02 -0.13929943206E-01  0.78704206280E-01  0.80138552713E-01  0.51100000000E-03 0.  1.
         11    1    4    4    0    0  0.98395201820E-02  0.55824696895E-02  0.47735597935E-01  0.49060458177E-01  0.51100000000E-03 0. -1.
</event>
<event>
 8    1  0.1088088E+005  0.1043930E+01  0.7957747E-01            NaN
         13   -1    0    0    0    0  0.00000000000E+00  0.00000000000E+00  0.74505805969E-08  0.10566000000E+00  0.10566000000E+00 0.  1.
     999900   -1    0    0    0    0 -0.00000000000E+00 -0.00000000000E+00 -0.74505805969E-08  0.93827000000E+00  0.93827000000E+00 0. -1.
     999902    2    1    2    0    0 -0.15416649835E-01 -0.15656552209E-01  0.65979677754E-02  0.10209880320E+01  0.10207302423E+01 0.  0.
     999903    2    3    3    0    0  0.10067326518E+00 -0.63634004311E-01  0.49424721689E-01  0.13103700233E+00  0.23313087271E-01 0.  0.
         14    1    1    2    0    0  0.15416649835E-01  0.15656552209E-01 -0.65979677754E-02  0.22941968050E-01  0.00000000000E+00 0. -1.
     999901    1    3    3    0    0 -0.11608991501E+00  0.47977452102E-01 -0.42826753914E-01  0.88995102962E+00  0.88000000000E+00 0. -1.
        -11    1    4    4    0    0  0.90314353257E-01 -0.61231775440E-01  0.38308670418E-01  0.11564526829E+00  0.51100000000E-03 0.  1.
         11    1    4    4    0    0  0.10358911923E-01 -0.24022288704E-02  0.11116051271E-01  0.15391734036E-01  0.51100000000E-03 0. -1.
</event>
<event>
 8    1  0.1088088E+005  0.1043930E+01  0.7957747E-01            NaN
         13   -1    0    0    0    0  0.00000000000E+00  0.00000000000E+00  0.74505805969E-08  0.10566000000E+00  0.10566000000E+00 0.  1.
     999900   -1    0    0    0    0 -0.00000000000E+00 -0.00000000000E+00 -0.74505805969E-08  0.93827000000E+00  0.93827000000E+00 0. -1.
     999902    2    1    2    0    0 -0.84682753456E-02  0.15764968211E-01  0.16925314967E-01  0.10192984715E+01  0.10190008154E+01 0.  0.
     999903    2    3    3    0    0 -0.66264747889E-01 -0.78222288862E-01  0.78026634216E-01  0.13030611610E+00  0.19539318260E-01 0.  0.
         14    1    1    2    0    0  0.84682753456E-02 -0.15764968211E-01 -0.16925314967E-01  0.24631528510E-01  0.00000000000E+00 0.  1.
     999901    1    3    3    0    0  0.57796472544E-01  0.93987257073E-01 -0.61101319249E-01  0.88899235539E+00  0.88000000000E+00 0.  1.
        -11    1    4    4    0    0 -0.87970260176E-02 -0.90714220525E-02  0.25257568424E-02  0.12896469805E-01  0.51100000000E-03 0. -1.
         11    1    4    4    0    0 -0.57467721872E-01 -0.69150866810E-01  0.75500877373E-01  0.11740964629E+00  0.51100000000E-03 0.  1.
</event>
<event>
 8    1  0.1088088E+005  0.1043930E+01  0.7957747E-01            NaN
         13   -1    0    0    0    0  0.00000000000E+00  0.00000000000E+00  0.74505805969E-08  0.10566000000E+00  0.10566000000E+00 0. -1.
     999900   -1    0    0    0    0 -0.00000000000E+00 -0.00000000000E+00 -0.74505805969E-08  0.93827000000E+00  0.93827000000E+00 0.  1.
     999902    2    1    2    0    0 -0.97593218775E-02  0.21401912254E-01  0.44405816749E-03  0.10204037721E+01  0.10201325280E+01 0.  0.
     999903    2    3    3    0    0 -0.61921889657E-01  0.11529204852E+00  0.19018233878E-01  0.13367873514E+00  0.19538017745E-01 0.  0.
         14    1    1    2    0    0  0.97593218775E-02 -0.21401912254E-01 -0.44405816749E-03  0.23526227902E-01  0.00000000000E+00 0. -1.
     999901    1    3    3    0    0  0.52162567780E-01 -0.93890136269E-01 -0.18574175710E-01  0.88672503696E+00  0.88000000000E+00 0.  1.
        -11    1    4    4    0    0 -0.45378334712E-01  0.64252973127E-01  0.11253146689E-01  0.79464031161E-01  0.51100000000E-03 0.  1.
         11    1    4    4    0    0 -0.16543554945E-01  0.51039075395E-01  0.77650871887E-02  0.54214703979E-01  0.51100000000E-03 0. -1.
</event>
<event>
 8    1  0.1088088E+005  0.1043930E+01  0.7957747E-01            NaN
         13   -1    0    0    0    0  0.00000000000E+00  0.00000000000E+00  0.74505805969E-08  0.10566000000E+00  0.10566000000E+00 0.  1.
     999900   -1    0    0    0    0 -0.00000000000E+00 -0.00000000000E+00 -0.74505805969E-08  0.93827000000E+00  0.93827000000E+00 0.  1.
     999902    2    1    2    0    0 -0.15371112776E-01 -0.16595713208E-01  0.67923060894E-02  0.10203116972E+01  0.10200383009E+01 0.  0.
     999903    2    3    3    0    0 -0.20601580377E-02 -0.53520340961E-01  0.11929767808E+00  0.13228125382E+00  0.19942992972E-01 0.  0.
         14    1    1    2    0    0  0.15371112776E-01  0.16595713208E-01 -0.67923060894E-02  0.23618302794E-01  0.00000000000E+00 0. -1.
     999901    1    3    3    0    0 -0.13310954738E-01  0.36924627753E-01 -0.11250537199E+00  0.88803044338E+00  0.88000000000E+00 0.  1.
        -11    1    4    4    0    0  0.56287541337E-02 -0.43099160889E-01  0.99956588522E-01  0.10899908831E+00  0.51100000000E-03 0. -1.
         11    1    4    4    0    0 -0.76889121714E-02 -0.10421180073E-01  0.19341089562E-01  0.23282165512E-01  0.51100000000E-03 0.  1.
</event>
<event>
 8    1  0.1088088E+005  0.1043930E+01  0.7957747E-01            NaN
         13   -1    0    0    0    0  0.00000000000E+00  0.00000000000E+00  0.74505805969E-08  0.10566000000E+00  0.10566000000E+00 0. -1.
     999900   -1    0    0    0    0 -0.00000000000E+00 -0.00000000000E+00 -0.74505805969E-08  0.93827000000E+00  0.93827000000E+00 0.  1.
     999902    2    1    2    0    0 -0.15058947103E-01 -0.10639310417E-01 -0.12631663225E-01  0.10215799277E+01  0.10213354116E+01 0.  0.
     999903    2    3    3    0    0  0.12655418227E-01  0.12650341180E+00 -0.22964062206E-01  0.13046659557E+00  0.18190975779E-01 0.  0.
         14    1    1    2    0    0  0.15058947103E-01  0.10639310417E-01  0.12631663225E-01  0.22350072256E-01  0.00000000000E+00 0. -1.
     999901    1    3    3    0    0 -0.27714365330E-01 -0.13714272222E+00  0.10332398981E-01  0.89111333217E+00  0.88000000000E+00 0. -1.
        -11    1    4    4    0    0  0.15667213218E-01  0.86429133991E-01 -0.10951466948E-01  0.88519221200E-01  0.51100000000E-03 0.  1.
         11    1    4    4    0    0 -0.30117949908E-02  0.40074277810E-01 -0.12012595258E-01  0.41947374374E-01  0.51100000000E-03 0. -1.
</event>
<event>
 8    1  0.1088088E+005  0.1043930E+01  0.7957747E-01            NaN
         13   -1    0    0    0    0  0.00000000000E+00  0.00000000000E+00  0.74505805969E-08  0.10566000000E+00  0.10566000000E+00 0.  1.
     999900   -1    0    0    0    0 -0.00000000000E+00 -0.00000000000E+00 -0.74505805969E-08  0.93827000000E+00  0.93827000000E+00 0.  1.
     999902    2    1    2    0    0  0.22192383162E-01  0.90823852447E-02 -0.67131959772E-02  0.10190290243E+01  0.10187247389E+01 0.  0.
     999903    2    3    3    0    0  0.98371540495E-01 -0.78505676825E-01  0.28707516522E-01  0.13069937853E+00  0.20447610360E-01 0.  0.
         14    1    1    2    0    0 -0.22192383162E-01 -0.90823852447E-02  0.67131959772E-02  0.24900975732E-01  0.00000000000E+00 0. -1.
     999901    1    3    3    0    0 -0.76179157333E-01  0.87588062069E-01 -0.35420712499E-01  0.88832964574E+00  0.88000000000E+00 0. -1.
        -11    1    4    4    0    0  0.61413002591E-01 -0.53169684196E-01  0.27865106861E-01  0.85879552317E-01  0.51100000000E-03 0. -1.
         11    1    4    4    0    0  0.36958537904E-01 -0.25335992629E-01  0.84240966080E-03  0.44819826210E-01  0.51100000000E-03 0.  1.
</event>
<event>
 8    1  0.1088088E+005  0.1043930E+01  0.7957747E-01            NaN
         13   -1    0    0    0    0  0.00000000000E+00  0.00000000000E+00  0.74505805969E-08  0.10566000000E+00  0.10566000000E+00 0. -1.
     999900   -1    0    0    0    0 -0.00000000000E+00 -0.00000000000E+00 -0.74505805969E-08  0.93827000000E+00  0.93827000000E+00 0.  1.
     999902    2    1    2    0    0  0.16804269688E-01 -0.15059003223E-01 -0.92588550393E-02  0.10195397672E+01  0.10192479843E+01 0.  0.
     999903    2    3    3    0    0  0.31846184416E-01  0.12249164330E+00  0.74874003142E-02  0.12857014001E+00  0.21350353612E-01 0.  0.
         14    1    1    2    0    0 -0.16804269688E-01  0.15059003223E-01  0.92588550393E-02  0.24390232768E-01  0.00000000000E+00 0. -1.
     999901    1    3    3    0    0 -0.15041914727E-01 -0.13755064652E+00 -0.16746255353E-01  0.89096962722E+00  0.88000000000E+00 0.  1.
        -11    1    4    4    0    0  0.20938151646E-01  0.10870884414E+00  0.51124933507E-02  0.11082606957E+00  0.51100000000E-03 0.  1.
         11    1    4    4    0    0  0.10908032770E-01  0.13782799164E-01  0.23749069635E-02  0.17744070441E-01  0.51100000000E-03 0. -1.
</event>
<event>
 8    1  0.1088088E+005  0.1043930E+01  0.7957747E-01            NaN
         13   -1    0    0    0    0  0.00000000000E+00  0.00000000000E+00  0.74505805969E-08  0.10566000000E+00  0.10566000000E+00 0.  1.
     999900   -1    0    0    0    0 -0.00000000000E+00 -0.00000000000E+00 -0.74505805969E-08  0.93827000000E+00  0.93827000000E+00 0. -1.
     999902    2    1    2    0    0 -0.11624387883E-01 -0.21151887237E-01  0.19290866315E-02  0.10197173979E+01  0.10194299002E+01 0.  0.
     999903    2    3    3    0    0 -0.12011694670E+00  0.71998808857E-04  0.49715847512E-01  0.13151434496E+00  0.19906565944E-01 0.  0.
         14    1    1    2    0    0  0.11624387883E-01  0.21151887237E-01 -0.19290866315E-02  0.24212602144E-01  0.00000000000E+00 0.  1.
     999901    1    3    3    0    0  0.10849255882E+00 -0.21223886046E-01 -0.47786760880E-01  0.88820305290E+00  0.88000000000E+00 0. -1.
        -11    1    4    4    0    0 -0.98129487403E-01 -0.76911388150E-02  0.40083062505E-01  0.10628011543E+00  0.51100000000E-03 0.  1.
         11    1    4    4    0    0 -0.21987459300E-01  0.77631376239E-02  0.96327850064E-02  0.25234229534E-01  0.51100000000E-03 0. -1.
</event>
<event>
 8    1  0.1088088E+005  0.1043930E+01  0.7957747E-01            NaN
         13   -1    0    0    0    0  0.00000000000E+00  0.00000000000E+00  0.74505805969E-08  0.10566000000E+00  0.10566000000E+00 0. -1.
     999900   -1    0    0    0    0 -0.00000000000E+00 -0.00000000000E+00 -0.74505805969E-08  0.93827000000E+00  0.93827000000E+00 0. -1.
     999902    2    1    2    0    0 -0.14565553166E-01 -0.18071616327E-01 -0.18188629863E-02  0.10206480989E+01  0.10203825238E+01 0.  0.
     999903    2    3    3    0    0 -0.63864279208E-01 -0.67302832772E-01  0.93202178960E-01  0.13279502803E+00  0.18427041236E-01 0.  0.
         14    1    1    2    0    0  0.14565553166E-01  0.18071616327E-01  0.18188629863E-02  0.23281901087E-01  0.00000000000E+00 0.  1.
     999901    1    3    3    0    0  0.49298726042E-01  0.49231216446E-01 -0.95021041947E-01  0.88785307088E+00  0.88000000000E+00 0. -1.
        -11    1    4    4    0    0 -0.37882262007E-01 -0.49758589867E-01  0.54247595124E-01  0.82789164376E-01  0.51100000000E-03 0.  1.
         11    1    4    4    0    0 -0.25982017201E-01 -0.17544242905E-01  0.38954583836E-01  0.50005863654E-01  0.51100000000E-03 0. -1.
</event>
<event>
 8    1  0.1088088E+005  0.1043930E+01  0.7957747E-01            NaN
         13   -1    0    0    0    0  0.00000000000E+00  0.00000000000E+00  0.74505805969E-08  0.10566000000E+00  0.10566000000E+00 0. -1.
     999900   -1    0    0    0    0 -0.00000000000E+00 -0.00000000000E+00 -0.74505805969E-08  0.93827000000E+00  0.93827000000E+00 0.  1.
     999902    2    1    2    0    0 -0.18074810469E-02  0.21328728464E-01 -0.10635121848E-01  0.10200283795E+01  0.10197483060E+01 0.  0.
     999903    2    3    3    0    0  0.92385482988E-01  0.49749966999E-01  0.74859436935E-01  0.13042768208E+00  0.19932593194E-01 0.  0.
         14    1    1    2    0    0  0.18074810469E-02 -0.21328728464E-01  0.10635121848E-01  0.23901620496E-01  0.00000000000E+00 0.  1.
     999901    1    3    3    0    0 -0.94192964035E-01 -0.28421238535E-01 -0.85494558783E-01  0.88960069742E+00  0.88000000000E+00 0.  1.
        -11    1    4    4    0    0  0.41189413688E-01  0.12873907787E-01  0.36982877387E-01  0.56835725055E-01  0.51100000000E-03 0.  1.
         11    1    4    4    0    0  0.51196069300E-01  0.36876059212E-01  0.37876559548E-01  0.73591957026E-01  0.51100000000E-03 0. -1.
</event>
<event>
 8    1  0.1088088E+005  0.1043930E+01  0.7957747E-01            NaN
         13   -1    0    0    0    0  0.00000000000E+00  0.00000000000E+00  0.74505805969E-08  0.10566000000E+00  0.10566000000E+00 0. -1.
     999900   -1    0    0    0    0 -0.00000000000E+00 -0.00000000000E+00 -0.74505805969E-08  0.93827000000E+00  0.93827000000E+00 0.  1.
     999902    2    1    2    0    0 -0.16111771348E-01 -0.45552643618E-02  0.18018998152E-01  0.10193327663E+01  0.10190359486E+01 0.  0.
     999903    2    3    3    0    0  0.83995267931E-01 -0.91679952412E-01 -0.24382463545E-01  0.12837260195E+00  0.20605865493E-01 0.  0.
         14    1    1    2    0    0  0.16111771348E-01  0.45552643618E-02 -0.18018998152E-01  0.24597233661E-01  0.00000000000E+00 0.  1.
     999901    1    3    3    0    0 -0.10010703928E+00  0.87124688051E-01  0.42401461697E-01  0.89096016439E+00  0.88000000000E+00 0. -1.
        -11    1    4    4    0    0  0.39423877095E-01 -0.37043375816E-01 -0.20161179711E-01  0.57733768848E-01  0.51100000000E-03 0.  1.
         11    1    4    4    0    0  0.44571390836E-01 -0.54636576597E-01 -0.42212838340E-02  0.70638833098E-01  0.51100000000E-03 0. -1.
</event>
<event>
 8    1  0.1088088E+005  0.1043930E+01  0.7957747E-01            NaN
         13   -1    0    0    0    0  0.00000000000E+00  0.00000000000E+00  0.74505805969E-08  0.10566000000E+00  0.10566000000E+00 0.  1.
     999900   -1    0    0    0    0 -0.00000000000E+00 -0.00000000000E+00 -0.74505805969E-08  0.93827000000E+00  0.93827000000E+00 0.  1.
     999902    2    1    2    0    0  0.13663973576E-01 -0.19073358699E-01 -0.14246972330E-01  0.10164805299E+01  0.10161098338E+01 0.  0.
     999903    2    3    3    0    0  0.87728442180E-01 -0.48787958918E-01  0.77403633172E-01  0.12812905870E+00  0.18686592823E-01 0.  0.
         14    1    1    2    0    0 -0.13663973576E-01  0.19073358699E-01  0.14246972330E-01  0.27449470058E-01  0.00000000000E+00 0.  1.
     999901    1    3    3    0    0 -0.74064468604E-01  0.29714600220E-01 -0.91650605502E-01  0.88835147125E+00  0.88000000000E+00 0.  1.
        -11    1    4    4    0    0  0.30912528865E-01 -0.12392781266E-01  0.35606442556E-01  0.48757002992E-01  0.51100000000E-03 0. -1.
         11    1    4    4    0    0  0.56815913315E-01 -0.36395177652E-01  0.41797190616E-01  0.79372055704E-01  0.51100000000E-03 0.  1.
</event>
<event>
 8    1  0.1088088E+005  0.1043930E+01  0.7957747E-01            NaN
         13   -1    0    0    0    0  0.00000000000E+00  0.00000000000E+00  0.74505805969E-08  0.10566000000E+00  0.10566000000E+00 0.  1.
     999900   -1    0    0    0    0 -0.00000000000E+00 -0.00000000000E+00 -0.74505805969E-08  0.93827000000E+00  0.93827000000E+00 0. -1.
     999902    2    1    2    0    0 -0.16784387939E-01  0.97511040672E-02 -0.12846525314E-01  0.10206526951E+01  0.10203872261E+01 0.  0.
     999903    2    3    3    0    0 -0.74297326258E-01  0.64091328836E-01 -0.88576251267E-01  0.13386321082E+00  0.21114350605E-01 0.  0.
         14    1    1    2    0    0  0.16784387939E-01 -0.97511040672E-02  0.12846525314E-01  0.23277304862E-01  0.00000000000E+00 0.  1.
     999901    1    3    3    0    0  0.57512938319E-01 -0.54340224769E-01  0.75729725954E-01  0.88678948432E+00  0.88000000000E+00 0.  1.
        -11    1    4    4    0    0 -0.69837781660E-01  0.57501934628E-01 -0.72551317121E-01  0.11596440389E+00  0.51100000000E-03 0. -1.
         11    1    4    4    0    0 -0.44595445982E-02  0.65893942089E-02 -0.16024934146E-01  0.17898806928E-01  0.51100000000E-03 0.  1.
</event>
<event>
 8    1  0.1088088E+005  0.1043930E+01  0.7957747E-01            NaN
         13   -1    0    0    0    0  0.00000000000E+00  0.00000000000E+00  0.74505805969E-08  0.10566000000E+00  0.10566000000E+00 0. -1.
     999900   -1    0    0    0    0 -0.00000000000E+00 -0.00000000000E+00 -0.74505805969E-08  0.93827000000E+00  0.93827000000E+00 0. -1.
     999902    2    1    2    0    0  0.18231085268E-01  0.88035966766E-02  0.17390175246E-01  0.10172411638E+01  0.10168909928E+01 0.  0.
     999903    2    3    3    0    0 -0.10318045285E+00 -0.66828104629E-01  0.17286492694E-01  0.12569143067E+00  0.19680231102E-01 0.  0.
         14    1    1    2    0    0 -0.18231085268E-01 -0.88035966766E-02 -0.17390175246E-01  0.26688836235E-01  0.00000000000E+00 0. -1.
     999901    1    3    3    0    0  0.12141153812E+00  0.75631701306E-01  0.10368255270E-03  0.89154973309E+00  0.88000000000E+00 0.  1.
        -11    1    4    4    0    0 -0.31997166859E-01 -0.22403244049E-01 -0.35747938673E-02  0.39227086345E-01  0.51100000000E-03 0. -1.
         11    1    4    4    0    0 -0.71183285989E-01 -0.44424860580E-01  0.20861286561E-01  0.86464344326E-01  0.51100000000E-03 0.  1.
</event>
<event>
 8    1  0.1088088E+005  0.1043930E+01  0.7957747E-01            NaN
         13   -1    0    0    0    0  0.00000000000E+00  0.00000000000E+00  0.74505805969E-08  0.10566000000E+00  0.10566000000E+00 0.  1.
     999900   -1    0    0    0    0 -0.00000000000E+00 -0.00000000000E+00 -0.74505805969E-08  0.93827000000E+00  0.93827000000E+00 0.  1.
     999902    2    1    2    0    0 -0.66172755806E-02  0.25134947365E-01 -0.68817648032E-02  0.10170429659E+01  0.10166875046E+01 0.  0.
     999903    2    3    3    0    0 -0.90044237947E-01 -0.45772081536E-01 -0.75739149293E-01  0.12758852402E+00  0.18421848213E-01 0.  0.
         14    1    1    2    0    0  0.66172755806E-02 -0.25134947365E-01  0.68817648032E-02  0.26887034086E-01  0.00000000000E+00 0.  1.
     999901    1    3    3    0    0  0.83426962366E-01  0.70907028901E-01  0.68857384490E-01  0.88945444189E+00  0.88000000000E+00 0.  1.
        -11    1    4    4    0    0 -0.53106877267E-01 -0.29907295360E-01 -0.56124599168E-01  0.82855407075E-01  0.51100000000E-03 0. -1.
         11    1    4    4    0    0 -0.36937360680E-01 -0.15864786177E-01 -0.19614550125E-01  0.44733116950E-01  0.51100000000E-03 0.  1.
</event>
<event>
 8    1  0.1088088E+005  0.1043930E+01  0.7957747E-01            NaN
         13   -1    0    0    0    0  0.00000000000E+00  0.00000000000E+00  0.74505805969E-08  0.10566000000E+00  0.10566000000E+00 0.  1.
     999900   -1    0    0    0    0 -0.00000000000E+00 -0.00000000000E+00 -0.74505805969E-08  0.93827000000E+00  0.93827000000E+00 0.  1.
     999902    2    1    2    0    0 -0.18841172060E-02  0.20538408476E-01 -0.10216711000E-01  0.10209135428E+01  0.10206540572E+01 0.  0.
     999903    2    3    3    0    0  0.54176838672E-01 -0.18694244568E-01 -0.11508383823E+00  0.13204957892E+00  0.30136304395E-01 0.  0.
         14    1    1    2    0    0  0.18841172060E-02 -0.20538408476E-01  0.10216711000E-01  0.23016457243E-01  0.00000000000E+00 0.  1.
     999901    1    3    3    0    0 -0.56060955878E-01  0.39232653044E-01  0.10486712723E+00  0.88886396384E+00  0.88000000000E+00 0. -1.
        -11    1    4    4    0    0  0.22656470060E-01 -0.12243118873E-01 -0.23096184554E-01  0.34596306989E-01  0.51100000000E-03 0. -1.
         11    1    4    4    0    0  0.31520368612E-01 -0.64511256947E-02 -0.91987653674E-01  0.97453271928E-01  0.51100000000E-03 0.  1.
</event>
<event>
 8    1  0.1088088E+005  0.1043930E+01  0.7957747E-01            NaN
         13   -1    0    0    0    0  0.00000000000E+00  0.00000000000E+00  0.74505805969E-08  0.10566000000E+00  0.10566000000E+00 0. -1.
     999900   -1    0    0    0    0 -0.00000000000E+00 -0.00000000000E+00 -0.74505805969E-08  0.93827000000E+00  0.93827000000E+00 0. -1.
     999902    2    1    2    0    0  0.13725046247E-02  0.61024507324E-02  0.22822313280E-01  0.10202660684E+01  0.10199916023E+01 0.  0.
     999903    2    3    3    0    0 -0.11592198670E+00 -0.55601448871E-01  0.50445411532E-02  0.13016415398E+00  0.19693437253E-01 0.  0.
         14    1    1    2    0    0 -0.13725046247E-02 -0.61024507324E-02 -0.22822313280E-01  0.23663931570E-01  0.00000000000E+00 0.  1.
     999901    1    3    3    0    0  0.11729449132E+00  0.61703899604E-01  0.17777772127E-01  0.89010191445E+00  0.88000000000E+00 0.  1.
        -11    1    4    4    0    0 -0.57063248436E-01 -0.38135499158E-01  0.41374792076E-02  0.68759802743E-01  0.51100000000E-03 0. -1.
         11    1    4    4    0    0 -0.58858738260E-01 -0.17465949713E-01  0.90706194560E-03  0.61404351240E-01  0.51100000000E-03 0.  1.
</event>
<event>
 7    1  0.1088088E+005  0.1043930E+01  0.7957747E-01            NaN
         13   -1    0    0    0    0  0.00000000000E+00  0.00000000000E+00  0.74505805969E-08  0.10566000000E+00  0.10566000000E+00 0. -1.
     999900   -1    0    0    0    0 -0.00000000000E+00 -0.00000000000E+00 -0.74505805969E-08  0.93827000000E+00  0.93827000000E+00 0. -1.
     999903    2    1    2    0    0 -0.35599134038E-01  0.60140124514E-01  0.42136881355E-01  0.84026426436E-01  0.20019756455E-01 0.  0.
         14    1    1    2    0    0 -0.25488299266E-01  0.92279246044E-02  0.63244906085E-01  0.68809346296E-01  0.00000000000E+00 0. -1.
     999901    1    1    2    0    0  0.61087433305E-01 -0.69368049118E-01 -0.10538178744E+00  0.89109422727E+00  0.88000000000E+00 0. -1.
        -11    1    3    3    0    0 -0.21740273070E-01  0.19234936740E-01  0.12299055612E-01  0.31530146757E-01  0.51100000000E-03 0.  1.
         11    1    3    3    0    0 -0.13858860968E-01  0.40905187774E-01  0.29837825743E-01  0.52496279680E-01  0.51100000000E-03 0. -1.
</event>
<event>
 8    1  0.1088088E+005  0.1043930E+01  0.7957747E-01            NaN
         13   -1    0    0    0    0  0.00000000000E+00  0.00000000000E+00  0.74505805969E-08  0.10566000000E+00  0.10566000000E+00 0. -1.
     999900   -1    0    0    0    0 -0.00000000000E+00 -0.00000000000E+00 -0.74505805969E-08  0.93827000000E+00  0.93827000000E+00 0.  1.
     999902    2    1    2    0    0 -0.51414372496E-02  0.22644092266E-01 -0.43204584846E-02  0.10203110319E+01  0.10200376200E+01 0.  0.
     999903    2    3    3    0    0  0.97398088484E-01  0.84833629495E-01 -0.18938913827E-01  0.13205679348E+00  0.19929423300E-01 0.  0.
         14    1    1    2    0    0  0.51414372496E-02 -0.22644092266E-01  0.43204584846E-02  0.23618968078E-01  0.00000000000E+00 0. -1.
     999901    1    3    3    0    0 -0.10253952573E+00 -0.62189537229E-01  0.14618455342E-01  0.88825423844E+00  0.88000000000E+00 0.  1.
        -11    1    4    4    0    0  0.69000433935E-01  0.68031290468E-01 -0.77409477402E-02  0.97208537480E-01  0.51100000000E-03 0. -1.
         11    1    4    4    0    0  0.28397654548E-01  0.16802339027E-01 -0.11197966086E-01  0.34848255998E-01  0.51100000000E-03 0.  1.
</event>
<event>
 8    1  0.1088088E+005  0.1043930E+01  0.7957747E-01            NaN
         13   -1    0    0    0    0  0.00000000000E+00  0.00000000000E+00  0.74505805969E-08  0.10566000000E+00  0.10566000000E+00 0.  1.
     999900   -1    0    0    0    0 -0.00000000000E+00 -0.00000000000E+00 -0.74505805969E-08  0.93827000000E+00  0.93827000000E+00 0. -1.
     999902    2    1    2    0    0 -0.12349655134E-01 -0.13409478045E-01 -0.92277783854E-02  0.10234976732E+01  0.10232937052E+01 0.  0.
     999903    2    3    3    0    0  0.10659198499E+00  0.70548998091E-01 -0.23295561080E-01  0.13142478272E+00  0.19768104408E-01 0.  0.
         14    1    1    2    0    0  0.12349655134E-01  0.13409478045E-01  0.92277783854E-02  0.20432326772E-01  0.00000000000E+00 0.  1.
     999901    1    3    3    0    0 -0.11894164012E+00 -0.83958476136E-01  0.14067782695E-01  0.89207289051E+00  0.88000000000E+00 0.  1.
        -11    1    4    4    0    0  0.20527408377E-01  0.49731939157E-02 -0.30726074821E-02  0.21349688291E-01  0.51100000000E-03 0. -1.
         11    1    4    4    0    0  0.86064576610E-01  0.65575804175E-01 -0.20222953598E-01  0.11007509443E+00  0.51100000000E-03 0.  1.
</event>
<event>
 8    1  0.1088088E+005  0.1043930E+01  0.7957747E-01            NaN
         13   -1    0    0    0    0  0.00000000000E+00  0.00000000000E+00  0.74505805969E-08  0.10566000000E+00  0.10566000000E+00 0.  1.
     999900   -1    0    0    0    0 -0.00000000000E+00 -0.00000000000E+00 -0.74505805969E-08  0.93827000000E+00  0.93827000000E+00 0.  1.
     999902    2    1    2    0    0  0.67925563067E-02  0.20376111253E-01 -0.93372025264E-02  0.10205097506E+01  0.10202409730E+01 0.  0.
     999903    2    3    3    0    0  0.11533574952E+00 -0.32811179541E-01 -0.50636241280E-01  0.13128754929E+00  0.17131346931E-01 0.  0.
         14    1    1    2    0    0 -0.67925563067E-02 -0.20376111253E-01  0.93372025264E-02  0.23420249401E-01  0.00000000000E+00 0.  1.
     999901    1    3    3    0    0 -0.10854319321E+00  0.53187290794E-01  0.41299038754E-01  0.88922220131E+00  0.88000000000E+00 0. -1.
        -11    1    4    4    0    0  0.35167088825E-01 -0.14690604325E-01 -0.23276307774E-01  0.44660783876E-01  0.51100000000E-03 0. -1.
         11    1    4    4    0    0  0.80168660696E-01 -0.18120575217E-01 -0.27359933507E-01  0.86626765416E-01  0.51100000000E-03 0.  1.
</event>
<event>
 8    1  0.1088088E+005  0.1043930E+01  0.7957747E-01            NaN
         13   -1    0    0    0    0  0.00000000000E+00  0.00000000000E+00  0.74505805969E-08  0.10566000000E+00  0.10566000000E+00 0. -1.
     999900   -1    0    0    0    0 -0.00000000000E+00 -0.00000000000E+00 -0.74505805969E-08  0.93827000000E+00  0.93827000000E+00 0. -1.
     999902    2    1    2    0    0 -0.92712174820E-02 -0.11179211258E-01 -0.18715061007E-01  0.10202406829E+01  0.10199656206E+01 0.  0.
     999903    2    3    3    0    0 -0.72906445452E-01 -0.37488990255E-01  0.98637727424E-01  0.12978387669E+00  0.19841350713E-01 0.  0.
         14    1    1    2    0    0  0.92712174820E-02  0.11179211258E-01  0.18715061007E-01  0.23689317137E-01  0.00000000000E+00 0. -1.
     999901    1    3    3    0    0  0.63635227970E-01  0.26309778997E-01 -0.11735278843E+00  0.89045680617E+00  0.88000000000E+00 0. -1.
        -11    1    4    4    0    0 -0.22486846963E-01 -0.91283609890E-02  0.16629847599E-01  0.29424449236E-01  0.51100000000E-03 0. -1.
         11    1    4    4    0    0 -0.50419598489E-01 -0.28360629266E-01  0.82007879825E-01  0.10035942745E+00  0.51100000000E-03 0.  1.
</event>
<event>
 8    1  0.1088088E+005  0.1043930E+01  0.7957747E-01            NaN
         13   -1    0    0    0    0  0.00000000000E+00  0.00000000000E+00  0.74505805969E-08  0.10566000000E+00  0.10566000000E+00 0.  1.
     999900   -1    0    0    0    0 -0.00000000000E+00 -0.00000000000E+00 -0.74505805969E-08  0.93827000000E+00  0.93827000000E+00 0. -1.
     999902    2    1    2    0    0  0.15803549748E-01 -0.29453589998E-02  0.17330327743E-01  0.10202917348E+01  0.10200178706E+01 0.  0.
     999903    2    3    3    0    0 -0.77257208717E-01 -0.79521075757E-01 -0.61992751486E-01  0.12854272519E+00  0.19693988251E-01 0.  0.
         14    1    1    2    0    0 -0.15803549748E-01  0.29453589998E-02 -0.17330327743E-01  0.23638265248E-01  0.00000000000E+00 0. -1.
     999901    1    3    3    0    0  0.93060758465E-01  0.76575716757E-01  0.79323079228E-01  0.89174900957E+00  0.88000000000E+00 0.  1.
        -11    1    4    4    0    0 -0.20924569004E-01 -0.25711668644E-01 -0.28592557582E-01  0.43780394728E-01  0.51100000000E-03 0. -1.
         11    1    4    4    0    0 -0.56332639713E-01 -0.53809407113E-01 -0.33400193904E-01  0.84762330458E-01  0.51100000000E-03 0.  1.
</event>
<event>
 8    1  0.1088088E+005  0.1043930E+01  0.7957747E-01            NaN
         13   -1    0    0    0    0  0.00000000000E+00  0.00000000000E+00  0.74505805969E-08  0.10566000000E+00  0.10566000000E+00 0.  1.
     999900   -1    0    0    0    0 -0.00000000000E+00 -0.00000000000E+00 -0.74505805969E-08  0.93827000000E+00  0.93827000000E+00 0.  1.
     999902    2    1    2    0    0 -0.15420548940E-01  0.52127726343E-02  0.17644541767E-01  0.10199238303E+01  0.10196412720E+01 0.  0.
     999903    2    3    3    0    0  0.64735942242E-01 -0.96625190765E-01 -0.49485167169E-01  0.12790228816E+00  0.19571505784E-01 0.  0.
         14    1    1    2    0    0  0.15420548940E-01 -0.52127726343E-02 -0.17644541767E-01  0.24006169672E-01  0.00000000000E+00 0. -1.
     999901    1    3    3    0    0 -0.80156491183E-01  0.10183796340E+00  0.67129708936E-01  0.89202154217E+00  0.88000000000E+00 0.  1.
        -11    1    4    4    0    0  0.16750288088E-01 -0.25811219185E-01 -0.40419336382E-02  0.31038516965E-01  0.51100000000E-03 0.  1.
         11    1    4    4    0    0  0.47985654154E-01 -0.70813971580E-01 -0.45443233531E-01  0.96863771196E-01  0.51100000000E-03 0. -1.
</event>
<event>
 8    1  0.1088088E+005  0.1043930E+01  0.7957747E-01            NaN
         13   -1    0    0    0    0  0.00000000000E+00  0.00000000000E+00  0.74505805969E-08  0.10566000000E+00  0.10566000000E+00 0.  1.
     999900   -1    0    0    0    0 -0.00000000000E+00 -0.00000000000E+00 -0.74505805969E-08  0.93827000000E+00  0.93827000000E+00 0. -1.
     999902    2    1    2    0    0  0.10162389383E-01 -0.21132133376E-01 -0.54820045030E-02  0.10198490201E+01  0.10195646768E+01 0.  0.
     999903    2    3    3    0    0 -0.65793620284E-03 -0.99996358466E-01 -0.84856158199E-01  0.13269801734E+00  0.20211175997E-01 0.  0.
         14    1    1    2    0    0 -0.10162389383E-01  0.21132133376E-01  0.54820045030E-02  0.24080979888E-01  0.00000000000E+00 0.  1.
     999901    1    3    3    0    0  0.10820325586E-01  0.78864225090E-01  0.79374153695E-01  0.88715100277E+00  0.88000000000E+00 0.  1.
        -11    1    4    4    0    0 -0.86931528360E-02 -0.79619304370E-01 -0.67599290027E-01  0.10480806108E+00  0.51100000000E-03 0. -1.
         11    1    4    4    0    0  0.80352166331E-02 -0.20377054096E-01 -0.17256868171E-01  0.27889956258E-01  0.51100000000E-03 0.  1.
</event>
<event>
 8    1  0.1088088E+005  0.1043930E+01  0.7957747E-01            NaN
         13   -1    0    0    0    0  0.00000000000E+00  0.00000000000E+00  0.74505805969E-08  0.10566000000E+00  0.10566000000E+00 0.  1.
     999900   -1    0    0    0    0 -0.00000000000E+00 -0.00000000000E+00 -0.74505805969E-08  0.93827000000E+00  0.93827000000E+00 0. -1.
     999902    2    1    2    0    0  0.18062969934E-01 -0.42088319147E-02  0.14086409123E-01  0.10206402582E+01  0.10203745022E+01 0.  0.
     999903    2    3    3    0    0 -0.37928712673E-02  0.12691652446E+00 -0.17984937439E-01  0.13007857697E+00  0.21789634193E-01 0.  0.
         14    1    1    2    0    0 -0.18062969934E-01  0.42088319147E-02 -0.14086409123E-01  0.23289741753E-01  0.00000000000E+00 0. -1.
     999901    1    3    3    0    0  0.21855841202E-01 -0.13112535638E+00  0.32071346563E-01  0.89056168127E+00  0.88000000000E+00 0.  1.
        -11    1    4    4    0    0  0.76301453140E-02  0.38301437544E-01 -0.65030502512E-03  0.39062811638E-01  0.51100000000E-03 0.  1.
         11    1    4    4    0    0 -0.11423016581E-01  0.88615086921E-01 -0.17334632414E-01  0.91015765336E-01  0.51100000000E-03 0. -1.
</event>
<event>
 8    1  0.1088088E+005  0.1043930E+01  0.7957747E-01            NaN
         13   -1    0    0    0    0  0.00000000000E+00  0.00000000000E+00  0.74505805969E-08  0.10566000000E+00  0.10566000000E+00 0. -1.
     999900   -1    0    0    0    0 -0.00000000000E+00 -0.00000000000E+00 -0.74505805969E-08  0.93827000000E+00  0.93827000000E+00 0.  1.
     999902    2    1    2    0    0  0.11467920719E-01 -0.18026863550E-01  0.11157193313E-01  0.10198268057E+01  0.10195419312E+01 0.  0.
     999903    2    3    3    0    0  0.11925116253E+00  0.37917311241E-01 -0.31149720330E-01  0.13048049917E+00  0.19907117580E-01 0.  0.
         14    1    1    2    0    0 -0.11467920719E-01  0.18026863550E-01 -0.11157193313E-01  0.24103194347E-01  0.00000000000E+00 0.  1.
     999901    1    3    3    0    0 -0.10778324181E+00 -0.55944174791E-01  0.42306913643E-01  0.88934630648E+00  0.88000000000E+00 0.  1.
        -11    1    4    4    0    0  0.49398623739E-01  0.10159636119E-01 -0.20994332355E-01  0.54630260345E-01  0.51100000000E-03 0.  1.
         11    1    4    4    0    0  0.69852538795E-01  0.27757675122E-01 -0.10155387975E-01  0.75850238827E-01  0.51100000000E-03 0. -1.
</event>
<event>
 8    1  0.1088088E+005  0.1043930E+01  0.7957747E-01            NaN
         13   -1    0    0    0    0  0.00000000000E+00  0.00000000000E+00  0.74505805969E-08  0.10566000000E+00  0.10566000000E+00 0. -1.
     999900   -1    0    0    0    0 -0.00000000000E+00 -0.00000000000E+00 -0.74505805969E-08  0.93827000000E+00  0.93827000000E+00 0.  1.
     999902    2    1    2    0    0  0.10788243418E-01 -0.10320464149E-01 -0.17847748733E-01  0.10206611300E+01  0.10203958555E+01 0.  0.
     999903    2    3    3    0    0 -0.20577715418E-01  0.11415502046E+00  0.52007056907E-01  0.12860862958E+00  0.19509858175E-01 0.  0.
         14    1    1    2    0    0 -0.10788243418E-01  0.10320464149E-01  0.17847748733E-01  0.23268870001E-01  0.00000000000E+00 0. -1.
     999901    1    3    3    0    0  0.31365958836E-01 -0.12447548460E+00 -0.69854805640E-01  0.89205250042E+00  0.88000000000E+00 0.  1.
        -11    1    4    4    0    0 -0.48659691347E-02  0.45900518082E-01  0.11026065925E-01  0.47459145237E-01  0.51100000000E-03 0. -1.
         11    1    4    4    0    0 -0.15711746283E-01  0.68254502374E-01  0.40980990981E-01  0.81149484338E-01  0.51100000000E-03 0.  1.
</event>
<event>
 8    1  0.1088088E+005  0.1043930E+01  0.7957747E-01            NaN
         13   -1    0    0    0    0  0.00000000000E+00  0.00000000000E+00  0.74505805969E-08  0.10566000000E+00  0.10566000000E+00 0. -1.
     999900   -1    0    0    0    0 -0.00000000000E+00 -0.00000000000E+00 -0.74505805969E-08  0.93827000000E+00  0.93827000000E+00 0. -1.
     999902    2    1    2    0    0 -0.70555501293E-04 -0.18437690636E-01  0.15785915535E-01  0.10196576177E+01  0.10193686815E+01 0.  0.
     999903    2    3    3    0    0  0.55185658197E-01 -0.38925548035E-01  0.11222853486E+00  0.13242924783E+00  0.19534750620E-01 0.  0.
         14    1    1    2    0    0  0.70555501293E-04  0.18437690636E-01 -0.15785915535E-01  0.24272382317E-01  0.00000000000E+00 0.  1.
     999901    1    3    3    0    0 -0.55256213698E-01  0.20487857399E-01 -0.96442619330E-01  0.88722836986E+00  0.88000000000E+00 0. -1.
        -11    1    4    4    0    0  0.15200938427E-01 -0.18667793433E-01  0.52424889380E-01  0.57690425447E-01  0.51100000000E-03 0. -1.
         11    1    4    4    0    0  0.39984719770E-01 -0.20257754603E-01  0.59803645485E-01  0.74738822381E-01  0.51100000000E-03 0.  1.
</event>
<event>
 8    1  0.1088088E+005  0.1043930E+01  0.7957747E-01            NaN
         13   -1    0    0    0    0  0.00000000000E+00  0.00000000000E+00  0.74505805969E-08  0.10566000000E+00  0.10566000000E+00 0.  1.
     999900   -1    0    0    0    0 -0.00000000000E+00 -0.00000000000E+00 -0.74505805969E-08  0.93827000000E+00  0.93827000000E+00 0.  1.
     999902    2    1    2    0    0  0.16503480967E-01 -0.47233111341E-02 -0.16036252102E-01  0.10204388116E+01  0.10201683843E+01 0.  0.
     999903    2    3    3    0    0 -0.76746627857E-01 -0.61622025048E-01 -0.84305796202E-01  0.13106050225E+00  0.19546588432E-01 0.  0.
         14    1    1    2    0    0 -0.16503480967E-01  0.47233111341E-02  0.16036252102E-01  0.23491188424E-01  0.00000000000E+00 0. -1.
     999901    1    3    3    0    0  0.93250108824E-01  0.56898713914E-01  0.68269544100E-01  0.88937830932E+00  0.88000000000E+00 0. -1.
        -11    1    4    4    0    0 -0.64097652978E-01 -0.54090431304E-01 -0.61877546172E-01  0.10422751900E+00  0.51100000000E-03 0. -1.
         11    1    4    4    0    0 -0.12648974879E-01 -0.75315937444E-02 -0.22428250030E-01  0.26832983253E-01  0.51100000000E-03 0.  1.
</event>
<event>
 7    1  0.1088088E+005  0.1043930E+01  0.7957747E-01            NaN
         13   -1    0    0    0    0  0.00000000000E+00  0.00000000000E+00  0.74505805969E-08  0.10566000000E+00  0.10566000000E+00 0. -1.
     999900   -1    0    0    0    0 -0.00000000000E+00 -0.00000000000E+00 -0.74505805969E-08  0.93827000000E+00  0.93827000000E+00 0.  1.
     999903    2    1    2    0    0 -0.50377623962E-01  0.67168653767E-01 -0.74829285125E-01  0.11411403824E+00  0.19314729264E-01 0.  0.
         14    1    1    2    0    0  0.35642604910E-01  0.17888836388E-01 -0.11183945809E-01  0.41418430631E-01  0.00000000000E+00 0. -1.
     999901    1    1    2    0    0  0.14735019052E-01 -0.85057490155E-01  0.86013230935E-01  0.88839753113E+00  0.88000000000E+00 0. -1.
        -11    1    3    3    0    0 -0.26940529012E-01  0.21446874620E-01 -0.25160681104E-01  0.42650692011E-01  0.51100000000E-03 0. -1.
         11    1    3    3    0    0 -0.23437094950E-01  0.45721779147E-01 -0.49668604021E-01  0.71463346230E-01  0.51100000000E-03 0.  1.
</event>
<event>
 8    1  0.1088088E+005  0.1043930E+01  0.7957747E-01            NaN
         13   -1    0    0    0    0  0.00000000000E+00  0.00000000000E+00  0.74505805969E-08  0.10566000000E+00  0.10566000000E+00 0.  1.
     999900   -1    0    0    0    0 -0.00000000000E+00 -0.00000000000E+00 -0.74505805969E-08  0.93827000000E+00  0.93827000000E+00 0.  1.
     999902    2    1    2    0    0  0.18988452741E-01  0.74941973407E-02  0.13309381840E-01  0.10195606755E+01  0.10192693987E+01 0.  0.
     999903    2    3    3    0    0  0.11952480410E-01 -0.30034729997E-01  0.12575551299E+00  0.13158429198E+00  0.21331433446E-01 0.  0.
         14    1    1    2    0    0 -0.18988452741E-01 -0.74941973407E-02 -0.13309381840E-01  0.24369324493E-01  0.00000000000E+00 0. -1.
     999901    1    3    3    0    0  0.70359723308E-02  0.37528927338E-01 -0.11244613115E+00  0.88797638353E+00  0.88000000000E+00 0.  1.
        -11    1    4    4    0    0  0.52926570459E-02 -0.24247051198E-01  0.55795703468E-01  0.61068431754E-01  0.51100000000E-03 0. -1.
         11    1    4    4    0    0  0.66598233645E-02 -0.57876787990E-02  0.69959809527E-01  0.70515860224E-01  0.51100000000E-03 0.  1.
</event>
<event>
 8    1  0.1088088E+005  0.1043930E+01  0.7957747E-01            NaN
         13   -1    0    0    0    0  0.00000000000E+00  0.00000000000E+00  0.74505805969E-08  0.10566000000E+00  0.10566000000E+00 0. -1.
     999900   -1    0    0    0    0 -0.00000000000E+00 -0.00000000000E+00 -0.74505805969E-08  0.93827000000E+00  0.93827000000E+00 0. -1.
     999902    2    1    2    0    0 -0.25063211264E-02  0.11528406629E-01  0.20438378686E-01  0.10203309931E+01  0.10200580485E+01 0.  0.
     999903    2    3    3    0    0 -0.10457750996E+00 -0.38714461274E-01 -0.62188210595E-01  0.12916881556E+00  0.19543394626E-01 0.  0.
         14    1    1    2    0    0  0.25063211264E-02 -0.11528406629E-01 -0.20438378686E-01  0.23599006935E-01  0.00000000000E+00 0.  1.
     999901    1    3    3    0    0  0.10207118884E+00  0.50242867903E-01  0.82626589281E-01  0.89116217751E+00  0.88000000000E+00 0.  1.
        -11    1    4    4    0    0 -0.48352489186E-01 -0.83032022387E-02 -0.31060259801E-01  0.58068125834E-01  0.51100000000E-03 0. -1.
         11    1    4    4    0    0 -0.56225020776E-01 -0.30411259036E-01 -0.31127950795E-01  0.71100689723E-01  0.51100000000E-03 0.  1.
</event>
<event>
 8    1  0.1088088E+005  0.1043930E+01  0.7957747E-01            NaN
         13   -1    0    0    0    0  0.00000000000E+00  0.00000000000E+00  0.74505805969E-08  0.10566000000E+00  0.10566000000E+00 0.  1.
     999900   -1    0    0    0    0 -0.00000000000E+00 -0.00000000000E+00 -0.74505805969E-08  0.93827000000E+00  0.93827000000E+00 0.  1.
     999902    2    1    2    0    0  0.14830001835E-01  0.11261545955E-01  0.13896186537E-01  0.10206952120E+01  0.10204307230E+01 0.  0.
     999903    2    3    3    0    0  0.98062612386E-01 -0.24685357992E-01 -0.80715618195E-01  0.13099231726E+00  0.20453198136E-01 0.  0.
         14    1    1    2    0    0 -0.14830001835E-01 -0.11261545955E-01 -0.13896186537E-01  0.23234787970E-01  0.00000000000E+00 0. -1.
     999901    1    3    3    0    0 -0.83232610551E-01  0.35946903947E-01  0.94611804733E-01  0.88970289477E+00  0.88000000000E+00 0. -1.
        -11    1    4    4    0    0  0.43667417335E-01 -0.17044850149E-01 -0.26685164471E-01  0.53941907430E-01  0.51100000000E-03 0.  1.
         11    1    4    4    0    0  0.54395195051E-01 -0.76405078430E-02 -0.54030453725E-01  0.77050409833E-01  0.51100000000E-03 0. -1.
</event>
<event>
 8    1  0.1088088E+005  0.1043930E+01  0.7957747E-01            NaN
         13   -1    0    0    0    0  0.00000000000E+00  0.00000000000E+00  0.74505805969E-08  0.10566000000E+00  0.10566000000E+00 0. -1.
     999900   -1    0    0    0    0 -0.00000000000E+00 -0.00000000000E+00 -0.74505805969E-08  0.93827000000E+00  0.93827000000E+00 0. -1.
     999902    2    1    2    0    0  0.22354311962E-01  0.19893822998E-01 -0.75940752404E-02  0.10130568817E+01  0.10125863401E+01 0.  0.
     999903    2    3    3    0    0 -0.47754644221E-01 -0.45416647490E-01 -0.10176526676E+00  0.12286087145E+00  0.19885831689E-01 0.  0.
         14    1    1    2    0    0 -0.22354311962E-01 -0.19893822998E-01  0.75940752404E-02  0.30873118332E-01  0.00000000000E+00 0. -1.
     999901    1    3    3    0    0  0.70108956183E-01  0.65310470489E-01  0.94171191517E-01  0.89019601022E+00  0.88000000000E+00 0.  1.
        -11    1    4    4    0    0 -0.38091576927E-01 -0.38407046196E-01 -0.94467941144E-01  0.10886010498E+00  0.51100000000E-03 0. -1.
         11    1    4    4    0    0 -0.96630672941E-02 -0.70096012942E-02 -0.72973256131E-02  0.14000766477E-01  0.51100000000E-03 0.  1.
</event>
<event>
 8    1  0.1088088E+005  0.1043930E+01  0.7957747E-01            NaN
         13   -1    0    0    0    0  0.00000000000E+00  0.00000000000E+00  0.74505805969E-08  0.10566000000E+00  0.10566000000E+00 0. -1.
     999900   -1    0    0    0    0 -0.00000000000E+00 -0.00000000000E+00 -0.74505805969E-08  0.93827000000E+00  0.93827000000E+00 0. -1.
     999902    2    1    2    0    0  0.22154459949E-01  0.38983748829E-02 -0.79097979848E-03  0.10214212668E+01  0.10211732278E+01 0.  0.
     999903    2    3    3    0    0  0.57804045474E-01  0.35890313196E-01 -0.11257147110E+00  0.13305802164E+00  0.20066857325E-01 0.  0.
         14    1    1    2    0    0 -0.22154459949E-01 -0.38983748829E-02  0.79097979848E-03  0.22508733225E-01  0.00000000000E+00 0. -1.
     999901    1    3    3    0    0 -0.35649585525E-01 -0.31991938313E-01  0.11178049130E+00  0.88836324513E+00  0.88000000000E+00 0.  1.
        -11    1    4    4    0    0  0.33063454517E-01  0.14235400873E-01 -0.42814395983E-01  0.55939005059E-01  0.51100000000E-03 0.  1.
         11    1    4    4    0    0  0.24740590957E-01  0.21654912323E-01 -0.69757075120E-01  0.77119016584E-01  0.51100000000E-03 0. -1.
</event>
<event>
 8    1  0.1088088E+005  0.1043930E+01  0.7957747E-01            NaN
         13   -1    0    0    0    0  0.00000000000E+00  0.00000000000E+00  0.74505805969E-08  0.10566000000E+00  0.10566000000E+00 0.  1.
     999900   -1    0    0    0    0 -0.00000000000E+00 -0.00000000000E+00 -0.74505805969E-08  0.93827000000E+00  0.93827000000E+00 0.  1.
     999902    2    1    2    0    0 -0.17182404865E-01 -0.14238174285E-01  0.83260453855E-02  0.10201122823E+01  0.10198341948E+01 0.  0.
     999903    2    3    3    0    0  0.47147501171E-01  0.91412202193E-01  0.75221909684E-01  0.12894709251E+00  0.19746883148E-01 0.  0.
         14    1    1    2    0    0  0.17182404865E-01  0.14238174285E-01 -0.83260453855E-02  0.23817717684E-01  0.00000000000E+00 0. -1.
     999901    1    3    3    0    0 -0.64329906035E-01 -0.10565037648E+00 -0.66895864298E-01  0.89116518981E+00  0.88000000000E+00 0. -1.
        -11    1    4    4    0    0  0.28348115493E-01  0.54947271619E-01  0.56844979153E-01  0.83990660709E-01  0.51100000000E-03 0. -1.
         11    1    4    4    0    0  0.18799385678E-01  0.36464930574E-01  0.18376930531E-01  0.44956431802E-01  0.51100000000E-03 0.  1.
</event>
<event>
 8    1  0.1088088E+005  0.1043930E+01  0.7957747E-01            NaN
         13   -1    0    0    0    0  0.00000000000E+00  0.00000000000E+00  0.74505805969E-08  0.10566000000E+00  0.10566000000E+00 0. -1.
     999900   -1    0    0    0    0 -0.00000000000E+00 -0.00000000000E+00 -0.74505805969E-08  0.93827000000E+00  0.93827000000E+00 0.  1.
     999902    2    1    2    0    0 -0.10237379599E-01 -0.11786683274E-02  0.21151029359E-01  0.10204021603E+01  0.10201308786E+01 0.  0.
     999903    2    3    3    0    0 -0.12445422596E-01  0.11608378582E+00 -0.52322625795E-01  0.12958582868E+00  0.20603299497E-01 0.  0.
         14    1    1    2    0    0  0.10237379599E-01  0.11786683274E-02 -0.21151029359E-01  0.23527839744E-01  0.00000000000E+00 0.  1.
     999901    1    3    3    0    0  0.22080429971E-02 -0.11726245415E+00  0.73473655154E-01  0.89081633158E+00  0.88000000000E+00 0. -1.
        -11    1    4    4    0    0 -0.14281224802E-01  0.57285781419E-01 -0.33152318398E-01  0.67712269721E-01  0.51100000000E-03 0.  1.
         11    1    4    4    0    0  0.18358022057E-02  0.58798004400E-01 -0.19170307397E-01  0.61873558956E-01  0.51100000000E-03 0. -1.
</event>
<event>
 8    1  0.1347006E+005  0.1043930E+01  0.7957747E-01            NaN
         13   -1    0    0    0    0  0.00000000000E+00  0.00000000000E+00  0.74505805969E-08  0.10566000000E+00  0.10566000000E+00 0. -1.
     999900   -1    0    0    0    0 -0.00000000000E+00 -0.00000000000E+00 -0.74505805969E-08  0.93827000000E+00  0.93827000000E+00 0. -1.
     999902    2    1    2    0    0  0.30333705352E-02 -0.11770239327E-01 -0.21359170145E-01  0.10193545240E+01  0.10190582376E+01 0.  0.
     999903    2    3    3    0    0  0.48840072134E-01  0.69779048265E-01 -0.97695935853E-01  0.13111140301E+00  0.19779683857E-01 0.  0.
         14    1    1    2    0    0 -0.30333705352E-02  0.11770239327E-01  0.21359170145E-01  0.24575475986E-01  0.00000000000E+00 0. -1.
     999901    1    3    3    0    0 -0.45806701598E-01 -0.81549287592E-01  0.76336765708E-01  0.88824312101E+00  0.88000000000E+00 0.  1.
        -11    1    4    4    0    0  0.27964174950E-01  0.24242832603E-01 -0.35935945703E-01  0.51588403036E-01  0.51100000000E-03 0. -1.
         11    1    4    4    0    0  0.20875897184E-01  0.45536215661E-01 -0.61759990151E-01  0.79522999971E-01  0.51100000000E-03 0.  1.
</event>
<event>
 8    1  0.1088088E+005  0.1043930E+01  0.7957747E-01            NaN
         13   -1    0    0    0    0  0.00000000000E+00  0.00000000000E+00  0.74505805969E-08  0.10566000000E+00  0.10566000000E+00 0. -1.
     999900   -1    0    0    0    0 -0.00000000000E+00 -0.00000000000E+00 -0.74505805969E-08  0.93827000000E+00  0.93827000000E+00 0.  1.
     999902    2    1    2    0    0  0.14212162399E-01 -0.11681557619E-01 -0.14347593287E-01  0.10205998097E+01  0.10203331190E+01 0.  0.
     999903    2    3    3    0    0 -0.10748219653E+00 -0.64924185717E-01  0.25762395806E-01  0.12972770566E+00  0.19950040523E-01 0.  0.
         14    1    1    2    0    0 -0.14212162399E-01  0.11681557619E-01  0.14347593287E-01  0.23330190346E-01  0.00000000000E+00 0. -1.
     999901    1    3    3    0    0  0.12169435893E+00  0.53242628097E-01 -0.40109989092E-01  0.89087210399E+00  0.88000000000E+00 0.  1.
        -11    1    4    4    0    0 -0.27990485388E-01 -0.20766754870E-01 -0.12091838734E-02  0.34877623582E-01  0.51100000000E-03 0.  1.
         11    1    4    4    0    0 -0.79491711143E-01 -0.44157430847E-01  0.26971579679E-01  0.94850082081E-01  0.51100000000E-03 0. -1.
</event>
<event>
 8    1  0.1088088E+005  0.1043930E+01  0.7957747E-01            NaN
         13   -1    0    0    0    0  0.00000000000E+00  0.00000000000E+00  0.74505805969E-08  0.10566000000E+00  0.10566000000E+00 0.  1.
     999900   -1    0    0    0    0 -0.00000000000E+00 -0.00000000000E+00 -0.74505805969E-08  0.93827000000E+00  0.93827000000E+00 0. -1.
     999902    2    1    2    0    0  0.11345164906E-03 -0.13119539335E-01  0.24661102420E-01  0.10159960573E+01  0.10156119747E+01 0.  0.
     999903    2    3    3    0    0 -0.10651199290E+00 -0.61010554406E-01 -0.24674561872E-01  0.12689733243E+00  0.20664137838E-01 0.  0.
         14    1    1    2    0    0 -0.11345164906E-03  0.13119539335E-01 -0.24661102420E-01  0.27933942725E-01  0.00000000000E+00 0. -1.
     999901    1    3    3    0    0  0.10662544455E+00  0.47891015072E-01  0.49335664291E-01  0.88909872485E+00  0.88000000000E+00 0. -1.
        -11    1    4    4    0    0 -0.14132183579E-01 -0.12020809529E-02 -0.38749121280E-03  0.14197706919E-01  0.51100000000E-03 0. -1.
         11    1    4    4    0    0 -0.92379809326E-01 -0.59808473453E-01 -0.24287070659E-01  0.11269962551E+00  0.51100000000E-03 0.  1.
</event>
<event>
 8    1  0.1088088E+005  0.1043930E+01  0.7957747E-01            NaN
         13   -1    0    0    0    0  0.00000000000E+00  0.00000000000E+00  0.74505805969E-08  0.10566000000E+00  0.10566000000E+00 0. -1.
     999900   -1    0    0    0    0 -0.00000000000E+00 -0.00000000000E+00 -0.74505805969E-08  0.93827000000E+00  0.93827000000E+00 0. -1.
     999902    2    1    2    0    0  0.25394831427E-01  0.24955320266E-01 -0.24338720104E-02  0.10082426184E+01  0.10076108318E+01 0.  0.
     999903    2    3    3    0    0  0.63117962946E-01  0.44690760729E-01  0.92659317938E-01  0.12209633418E+00  0.18456009250E-01 0.  0.
         14    1    1    2    0    0 -0.25394831427E-01 -0.24955320266E-01  0.24338720104E-02  0.35687381605E-01  0.00000000000E+00 0. -1.
     999901    1    3    3    0    0 -0.37723131518E-01 -0.19735440463E-01 -0.95093189949E-01  0.88614628422E+00  0.88000000000E+00 0. -1.
        -11    1    4    4    0    0  0.15691809508E-01  0.53892041152E-02  0.29655396298E-01  0.33984997532E-01  0.51100000000E-03 0. -1.
         11    1    4    4    0    0  0.47426153437E-01  0.39301556614E-01  0.63003921640E-01  0.88111336644E-01  0.51100000000E-03 0.  1.
</event>
<event>
 8    1  0.1088088E+005  0.1043930E+01  0.7957747E-01            NaN
         13   -1    0    0    0    0  0.00000000000E+00  0.00000000000E+00  0.74505805969E-08  0.10566000000E+00  0.10566000000E+00 0. -1.
     999900   -1    0    0    0    0 -0.00000000000E+00 -0.00000000000E+00 -0.74505805969E-08  0.93827000000E+00  0.93827000000E+00 0.  1.
     999902    2    1    2    0    0  0.13465129706E-01  0.58258938919E-02 -0.18969321136E-01  0.10199490513E+01  0.10196670934E+01 0.  0.
     999903    2    3    3    0    0 -0.46845129897E-01  0.36781997253E-01  0.11145836602E+00  0.12775681339E+00  0.18747119659E-01 0.  0.
         14    1    1    2    0    0 -0.13465129706E-01 -0.58258938919E-02  0.18969321136E-01  0.23980948730E-01  0.00000000000E+00 0. -1.
     999901    1    3    3    0    0  0.60310259603E-01 -0.30956103361E-01 -0.13042768716E+00  0.89219223788E+00  0.88000000000E+00 0.  1.
        -11    1    4    4    0    0 -0.87413812252E-02  0.11971587930E-01  0.43753080224E-01  0.46198742552E-01  0.51100000000E-03 0.  1.
         11    1    4    4    0    0 -0.38103748672E-01  0.24810409322E-01  0.67705285797E-01  0.81558070842E-01  0.51100000000E-03 0. -1.
</event>
<event>
 7    1  0.1088088E+005  0.1043930E+01  0.7957747E-01            NaN
         13   -1    0    0    0    0  0.00000000000E+00  0.00000000000E+00  0.74505805969E-08  0.10566000000E+00  0.10566000000E+00 0.  1.
     999900   -1    0    0    0    0 -0.00000000000E+00 -0.00000000000E+00 -0.74505805969E-08  0.93827000000E+00  0.93827000000E+00 0. -1.
     999903    2    1    2    0    0  0.54980709953E-01 -0.11725069144E-01 -0.46412764481E-01  0.75161875510E-01  0.18297735109E-01 0.  0.
         14    1    1    2    0    0  0.62471071875E-01 -0.46105893993E-01 -0.31201024717E-02  0.77705362244E-01  0.00000000000E+00 0.  1.
     999901    1    1    2    0    0 -0.11745178183E+00  0.57830963137E-01  0.49532866953E-01  0.89106276225E+00  0.88000000000E+00 0.  1.
        -11    1    3    3    0    0  0.13934391601E-01  0.91369471531E-03 -0.34109265249E-02  0.14383937155E-01  0.51100000000E-03 0. -1.
         11    1    3    3    0    0  0.41046318352E-01 -0.12638763859E-01 -0.43001837956E-01  0.60777938355E-01  0.51100000000E-03 0.  1.
</event>
<event>
 8    1  0.1088088E+005  0.1043930E+01  0.7957747E-01            NaN
         13   -1    0    0    0    0  0.00000000000E+00  0.00000000000E+00  0.74505805969E-08  0.10566000000E+00  0.10566000000E+00 0. -1.
     999900   -1    0    0    0    0 -0.00000000000E+00 -0.00000000000E+00 -0.74505805969E-08  0.93827000000E+00  0.93827000000E+00 0.  1.
     999902    2    1    2    0    0 -0.16160363067E-01  0.14966004803E-01 -0.87331769918E-02  0.10202359709E+01  0.10199607979E+01 0.  0.
     999903    2    3    3    0    0  0.37952237542E-01  0.10324908018E+00 -0.69847344676E-01  0.13205974040E+00  0.21456434563E-01 0.  0.
         14    1    1    2    0    0  0.16160363067E-01 -0.14966004803E-01  0.87331769918E-02  0.23694029092E-01  0.00000000000E+00 0.  1.
     999901    1    3    3    0    0 -0.54112600610E-01 -0.88283075378E-01  0.61114167684E-01  0.88817623051E+00  0.88000000000E+00 0. -1.
        -11    1    4    4    0    0  0.21555561691E-01  0.84002958813E-01 -0.55887669905E-01  0.10317379560E+00  0.51100000000E-03 0.  1.
         11    1    4    4    0    0  0.16396675851E-01  0.19246121369E-01 -0.13959674771E-01  0.28885944807E-01  0.51100000000E-03 0. -1.
</event>
<event>
 8    1  0.1088088E+005  0.1043930E+01  0.7957747E-01            NaN
         13   -1    0    0    0    0  0.00000000000E+00  0.00000000000E+00  0.74505805969E-08  0.10566000000E+00  0.10566000000E+00 0.  1.
     999900   -1    0    0    0    0 -0.00000000000E+00 -0.00000000000E+00 -0.74505805969E-08  0.93827000000E+00  0.93827000000E+00 0.  1.
     999902    2    1    2    0    0  0.59526889581E-02  0.54436376479E-02  0.18765989893E-01  0.10235037896E+01  0.10232999449E+01 0.  0.
     999903    2    3    3    0    0 -0.79766536677E-01  0.54372118015E-02 -0.10190588358E+00  0.13114204299E+00  0.20522248547E-01 0.  0.
         14    1    1    2    0    0 -0.59526889581E-02 -0.54436376479E-02 -0.18765989893E-01  0.20426210449E-01  0.00000000000E+00 0. -1.
     999901    1    3    3    0    0  0.85719225635E-01  0.64258463333E-05  0.12067187347E+00  0.89236174656E+00  0.88000000000E+00 0. -1.
        -11    1    4    4    0    0 -0.68158776175E-01  0.11985178428E-01 -0.85396130304E-01  0.10991825810E+00  0.51100000000E-03 0.  1.
         11    1    4    4    0    0 -0.11607760502E-01 -0.65479666263E-02 -0.16509753273E-01  0.21223784887E-01  0.51100000000E-03 0. -1.
</event>
<event>
 8    1  0.1088088E+005  0.1043930E+01  0.7957747E-01            NaN
         13   -1    0    0    0    0  0.00000000000E+00  0.00000000000E+00  0.74505805969E-08  0.10566000000E+00  0.10566000000E+00 0. -1.
     999900   -1    0    0    0    0 -0.00000000000E+00 -0.00000000000E+00 -0.74505805969E-08  0.93827000000E+00  0.93827000000E+00 0. -1.
     999902    2    1    2    0    0  0.49116873895E-02  0.15827055222E-01  0.16553041237E-01  0.10205072861E+01  0.10202384513E+01 0.  0.
     999903    2    3    3    0    0 -0.91712308885E-02 -0.12107038215E+00 -0.36130735473E-01  0.12825462167E+00  0.20041682120E-01 0.  0.
         14    1    1    2    0    0 -0.49116873895E-02 -0.15827055222E-01 -0.16553041237E-01  0.23422713852E-01  0.00000000000E+00 0.  1.
     999901    1    3    3    0    0  0.14082918278E-01  0.13689743737E+00  0.52683776710E-01  0.89225266448E+00  0.88000000000E+00 0.  1.
        -11    1    4    4    0    0 -0.77021712824E-02 -0.98379664480E-01 -0.20868616929E-01  0.10086447402E+00  0.51100000000E-03 0. -1.
         11    1    4    4    0    0 -0.14690596061E-02 -0.22690717673E-01 -0.15262118545E-01  0.27390147647E-01  0.51100000000E-03 0.  1.
</event>
<event>
 8    1  0.1088088E+005  0.1043930E+01  0.7957747E-01            NaN
         13   -1    0    0    0    0  0.00000000000E+00  0.00000000000E+00  0.74505805969E-08  0.10566000000E+00  0.10566000000E+00 0. -1.
     999900   -1    0    0    0    0 -0.00000000000E+00 -0.00000000000E+00 -0.74505805969E-08  0.93827000000E+00  0.93827000000E+00 0.  1.
     999902    2    1    2    0    0  0.14390026630E-01 -0.12881843725E-01  0.13665622630E-01  0.10202706677E+01  0.10199963095E+01 0.  0.
     999903    2    3    3    0    0  0.12684984375E+00  0.26165142712E-01 -0.14906189820E-01  0.13179544231E+00  0.19296283801E-01 0.  0.
         14    1    1    2    0    0 -0.14390026630E-01  0.12881843725E-01 -0.13665622630E-01  0.23659332324E-01  0.00000000000E+00 0.  1.
     999901    1    3    3    0    0 -0.11245981712E+00 -0.39046986437E-01  0.28571812449E-01  0.88847522536E+00  0.88000000000E+00 0.  1.
        -11    1    4    4    0    0  0.22577763703E-01 -0.15009482309E-02  0.14578148598E-02  0.22680269059E-01  0.51100000000E-03 0.  1.
         11    1    4    4    0    0  0.10427208004E+00  0.27666090943E-01 -0.16364004679E-01  0.10911517326E+00  0.51100000000E-03 0. -1.
</event>
<event>
 8    1  0.1138472E+005  0.1043930E+01  0.7957747E-01            NaN
         13   -1    0    0    0    0  0.00000000000E+00  0.00000000000E+00  0.74505805969E-08  0.10566000000E+00  0.10566000000E+00 0. -1.
     999900   -1    0    0    0    0 -0.00000000000E+00 -0.00000000000E+00 -0.74505805969E-08  0.93827000000E+00  0.93827000000E+00 0.  1.
     999902    2    1    2    0    0 -0.58611087362E-02 -0.22559071585E-02 -0.22492882126E-01  0.10205768105E+01  0.10203095877E+01 0.  0.
     999903    2    3    3    0    0  0.98037519980E-01 -0.10507814057E-01  0.80199083750E-01  0.12849572739E+00  0.18907391227E-01 0.  0.
         14    1    1    2    0    0  0.58611087362E-02  0.22559071585E-02  0.22492882126E-01  0.23353189484E-01  0.00000000000E+00 0. -1.
     999901    1    3    3    0    0 -0.10389862872E+00  0.82519068989E-02 -0.10269196588E+00  0.89208108313E+00  0.88000000000E+00 0.  1.
        -11    1    4    4    0    0  0.67895119412E-01 -0.13723520348E-01  0.48036459955E-01  0.84296173441E-01  0.51100000000E-03 0. -1.
         11    1    4    4    0    0  0.30142400568E-01  0.32157062903E-02  0.32162623794E-01  0.44199553949E-01  0.51100000000E-03 0.  1.
</event>
<event>
 8    1  0.1088088E+005  0.1043930E+01  0.7957747E-01            NaN
         13   -1    0    0    0    0  0.00000000000E+00  0.00000000000E+00  0.74505805969E-08  0.10566000000E+00  0.10566000000E+00 0.  1.
     999900   -1    0    0    0    0 -0.00000000000E+00 -0.00000000000E+00 -0.74505805969E-08  0.93827000000E+00  0.93827000000E+00 0. -1.
     999902    2    1    2    0    0  0.16757320108E-01  0.40150272373E-02 -0.83568605359E-02  0.10247788815E+01  0.10245999174E+01 0.  0.
     999903    2    3    3    0    0 -0.48419637049E-01 -0.11355381263E+00 -0.47391445958E-01  0.13371537834E+00  0.19872685735E-01 0.  0.
         14    1    1    2    0    0 -0.16757320108E-01 -0.40150272373E-02  0.83568605359E-02  0.19151118477E-01  0.00000000000E+00 0.  1.
     999901    1    3    3    0    0  0.65176957157E-01  0.11756883987E+00  0.39034585422E-01  0.89106350319E+00  0.88000000000E+00 0.  1.
        -11    1    4    4    0    0 -0.69963212381E-02 -0.51965326735E-02 -0.57884220630E-02  0.10474703512E-01  0.51100000000E-03 0. -1.
         11    1    4    4    0    0 -0.41423315811E-01 -0.10835727996E+00 -0.41603023895E-01  0.12324067482E+00  0.51100000000E-03 0.  1.
</event>
<event>
 8    1  0.1088088E+005  0.1043930E+01  0.7957747E-01            NaN
         13   -1    0    0    0    0  0.00000000000E+00  0.00000000000E+00  0.74505805969E-08  0.10566000000E+00  0.10566000000E+00 0.  1.
     999900   -1    0    0    0    0 -0.00000000000E+00 -0.00000000000E+00 -0.74505805969E-08  0.93827000000E+00  0.93827000000E+00 0. -1.
     999902    2    1    2    0    0  0.13311859657E-02 -0.23105025416E-01  0.37441241049E-02  0.10204857529E+01  0.10202164178E+01 0.  0.
     999903    2    3    3    0    0  0.89787852592E-02  0.48725618092E-01 -0.11777495704E+00  0.12920296155E+00  0.19174470652E-01 0.  0.
         14    1    1    2    0    0 -0.13311859657E-02  0.23105025416E-01 -0.37441241049E-02  0.23444247074E-01  0.00000000000E+00 0. -1.
     999901    1    3    3    0    0 -0.76475992935E-02 -0.71830643508E-01  0.12151908114E+00  0.89128279138E+00  0.88000000000E+00 0.  1.
        -11    1    4    4    0    0  0.49458265324E-02  0.19239555164E-01 -0.71268036373E-01  0.73986592113E-01  0.51100000000E-03 0. -1.
         11    1    4    4    0    0  0.40329587269E-02  0.29486062928E-01 -0.46506920665E-01  0.55216369437E-01  0.51100000000E-03 0.  1.
</event>
<event>
 8    1  0.1088088E+005  0.1043930E+01  0.7957747E-01            NaN
         13   -1    0    0    0    0  0.00000000000E+00  0.00000000000E+00  0.74505805969E-08  0.10566000000E+00  0.10566000000E+00 0.  1.
     999900   -1    0    0    0    0 -0.00000000000E+00 -0.00000000000E+00 -0.74505805969E-08  0.93827000000E+00  0.93827000000E+00 0.  1.
     999902    2    1    2    0    0  0.22794611657E-01  0.63066456279E-02 -0.95073671601E-03  0.10202599345E+01  0.10199853244E+01 0.  0.
     999903    2    3    3    0    0  0.88212509512E-01  0.23278097726E-01 -0.94100829261E-01  0.13276657044E+00  0.21182055840E-01 0.  0.
         14    1    1    2    0    0 -0.22794611657E-01 -0.63066456279E-02  0.95073671601E-03  0.23670065483E-01  0.00000000000E+00 0.  1.
     999901    1    3    3    0    0 -0.65417897856E-01 -0.16971452098E-01  0.93150092545E-01  0.88749336408E+00  0.88000000000E+00 0. -1.
        -11    1    4    4    0    0  0.51863998343E-01  0.23570167474E-01 -0.51901173572E-01  0.77067633012E-01  0.51100000000E-03 0. -1.
         11    1    4    4    0    0  0.36348511169E-01 -0.29206974830E-03 -0.42199655689E-01  0.55698937424E-01  0.51100000000E-03 0.  1.
</event>
<event>
 8    1  0.1088088E+005  0.1043930E+01  0.7957747E-01            NaN
         13   -1    0    0    0    0  0.00000000000E+00  0.00000000000E+00  0.74505805969E-08  0.10566000000E+00  0.10566000000E+00 0.  1.
     999900   -1    0    0    0    0 -0.00000000000E+00 -0.00000000000E+00 -0.74505805969E-08  0.93827000000E+00  0.93827000000E+00 0. -1.
     999902    2    1    2    0    0 -0.20293571397E-01  0.99811624184E-02  0.10830513150E-01  0.10188550592E+01  0.10185464540E+01 0.  0.
     999903    2    3    3    0    0 -0.92820097279E-01  0.74993969834E-01  0.54008296015E-01  0.13242904249E+00  0.19516385080E-01 0.  0.
         14    1    1    2    0    0  0.20293571397E-01 -0.99811624184E-02 -0.10830513150E-01  0.25074940844E-01  0.00000000000E+00 0. -1.
     999901    1    3    3    0    0  0.72526525882E-01 -0.65012807416E-01 -0.43177782865E-01  0.88642601666E+00  0.88000000000E+00 0. -1.
        -11    1    4    4    0    0 -0.58622682050E-01  0.58382668079E-01  0.33847177060E-01  0.89392657969E-01  0.51100000000E-03 0.  1.
         11    1    4    4    0    0 -0.34197415229E-01  0.16611301755E-01  0.20161118955E-01  0.43036384523E-01  0.51100000000E-03 0. -1.
</event>
<event>
 8    1  0.1088088E+005  0.1043930E+01  0.7957747E-01            NaN
         13   -1    0    0    0    0  0.00000000000E+00  0.00000000000E+00  0.74505805969E-08  0.10566000000E+00  0.10566000000E+00 0. -1.
     999900   -1    0    0    0    0 -0.00000000000E+00 -0.00000000000E+00 -0.74505805969E-08  0.93827000000E+00  0.93827000000E+00 0.  1.
     999902    2    1    2    0    0 -0.59208310539E-02  0.77718998372E-02 -0.32076532042E-01  0.10103984839E+01  0.10098419350E+01 0.  0.
     999903    2    3    3    0    0 -0.10397047198E+00  0.43872307152E-01 -0.48316156906E-01  0.12406858087E+00  0.17997871068E-01 0.  0.
         14    1    1    2    0    0  0.59208310539E-02 -0.77718998372E-02  0.32076532042E-01  0.33531516149E-01  0.00000000000E+00 0. -1.
     999901    1    3    3    0    0  0.98049640928E-01 -0.36100407315E-01  0.16239624864E-01  0.88632990298E+00  0.88000000000E+00 0. -1.
        -11    1    4    4    0    0 -0.55335617143E-01  0.14751820869E-01 -0.19679028907E-01  0.60557179948E-01  0.51100000000E-03 0.  1.
         11    1    4    4    0    0 -0.48634854839E-01  0.29120486283E-01 -0.28637127999E-01  0.63511400926E-01  0.51100000000E-03 0. -1.
</event>
<event>
 8    1  0.1088088E+005  0.1043930E+01  0.7957747E-01            NaN
         13   -1    0    0    0    0  0.00000000000E+00  0.00000000000E+00  0.74505805969E-08  0.10566000000E+00  0.10566000000E+00 0.  1.
     999900   -1    0    0    0    0 -0.00000000000E+00 -0.00000000000E+00 -0.74505805969E-08  0.93827000000E+00  0.93827000000E+00 0.  1.
     999902    2    1    2    0    0  0.11558754368E-02 -0.22356522606E-01 -0.72740406574E-02  0.10203914822E+01  0.10201199514E+01 0.  0.
     999903    2    3    3    0    0 -0.63707197461E-01 -0.73240782467E-01 -0.88368307223E-01  0.13282587554E+00  0.20271562980E-01 0.  0.
         14    1    1    2    0    0 -0.11558754368E-02  0.22356522606E-01  0.72740406574E-02  0.23538517764E-01  0.00000000000E+00 0.  1.
     999901    1    3    3    0    0  0.64863072898E-01  0.50884259860E-01  0.81094266566E-01  0.88756560670E+00  0.88000000000E+00 0.  1.
        -11    1    4    4    0    0 -0.19735148756E-01 -0.26093277936E-01 -0.42805738154E-01  0.53878823203E-01  0.51100000000E-03 0. -1.
         11    1    4    4    0    0 -0.43972048705E-01 -0.47147504530E-01 -0.45562569069E-01  0.78947052332E-01  0.51100000000E-03 0.  1.
</event>
<event>
 8    1  0.1088088E+005  0.1043930E+01  0.7957747E-01            NaN
         13   -1    0    0    0    0  0.00000000000E+00  0.00000000000E+00  0.74505805969E-08  0.10566000000E+00  0.10566000000E+00 0. -1.
     999900   -1    0    0    0    0 -0.00000000000E+00 -0.00000000000E+00 -0.74505805969E-08  0.93827000000E+00  0.93827000000E+00 0. -1.
     999902    2    1    2    0    0  0.36108085785E-02 -0.17480149330E-01 -0.16744328520E-01  0.10194562161E+01  0.10191624063E+01 0.  0.
     999903    2    3    3    0    0 -0.33316059673E-02 -0.12473342245E+00 -0.40207604846E-01  0.13260674353E+00  0.19959225125E-01 0.  0.
         14    1    1    2    0    0 -0.36108085785E-02  0.17480149330E-01  0.16744328520E-01  0.24473783867E-01  0.00000000000E+00 0. -1.
     999901    1    3    3    0    0  0.69424145458E-02  0.10725327312E+00  0.23463276327E-01  0.88684947260E+00  0.88000000000E+00 0.  1.
        -11    1    4    4    0    0 -0.31397625016E-02 -0.10110935046E+00 -0.24045411117E-01  0.10397789080E+00  0.51100000000E-03 0.  1.
         11    1    4    4    0    0 -0.19184346573E-03 -0.23624071993E-01 -0.16162193730E-01  0.28628852729E-01  0.51100000000E-03 0. -1.
</event>
<event>
 8    1  0.1088088E+005  0.1043930E+01  0.7957747E-01            NaN
         13   -1    0    0    0    0  0.00000000000E+00  0.00000000000E+00  0.74505805969E-08  0.10566000000E+00  0.10566000000E+00 0.  1.
     999900   -1    0    0    0    0 -0.00000000000E+00 -0.00000000000E+00 -0.74505805969E-08  0.93827000000E+00  0.93827000000E+00 0.  1.
     999902    2    1    2    0    0 -0.22015652076E-01  0.10032717938E-01 -0.26778009935E-02  0.10195883693E+01  0.10192977621E+01 0.  0.
     999903    2    3    3    0    0 -0.11432858898E+00 -0.61931324100E-01 -0.68782031095E-02  0.13182818491E+00  0.20611780492E-01 0.  0.
         14    1    1    2    0    0  0.22015652076E-01 -0.10032717938E-01  0.26778009935E-02  0.24341630670E-01  0.00000000000E+00 0.  1.
     999901    1    3    3    0    0  0.92312936905E-01  0.71964042037E-01  0.42004021160E-02  0.88776018442E+00  0.88000000000E+00 0. -1.
        -11    1    4    4    0    0 -0.80641684461E-01 -0.50261803679E-01  0.21495831623E-02  0.95048471900E-01  0.51100000000E-03 0.  1.
         11    1    4    4    0    0 -0.33686904520E-01 -0.11669520420E-01 -0.90277862718E-02  0.36779713008E-01  0.51100000000E-03 0. -1.
</event>
<event>
 8    1  0.1088088E+005  0.1043930E+01  0.7957747E-01            NaN
         13   -1    0    0    0    0  0.00000000000E+00  0.00000000000E+00  0.74505805969E-08  0.10566000000E+00  0.10566000000E+00 0.  1.
     999900   -1    0    0    0    0 -0.00000000000E+00 -0.00000000000E+00 -0.74505805969E-08  0.93827000000E+00  0.93827000000E+00 0.  1.
     999902    2    1    2    0    0 -0.74758864049E-02  0.16570477042E-01  0.20033889431E-01  0.10168777115E+01  0.10165178079E+01 0.  0.
     999903    2    3    3    0    0  0.10022484127E+00  0.19583800104E-01 -0.70529077000E-01  0.12569300689E+00  0.19895658930E-01 0.  0.
         14    1    1    2    0    0  0.74758864049E-02 -0.16570477042E-01 -0.20033889431E-01  0.27052288492E-01  0.00000000000E+00 0.  1.
     999901    1    3    3    0    0 -0.10770072767E+00 -0.30133230612E-02  0.90562966431E-01  0.89118470462E+00  0.88000000000E+00 0. -1.
        -11    1    4    4    0    0  0.86198066255E-01  0.17444312904E-01 -0.51384012283E-01  0.10185768757E+00  0.51100000000E-03 0. -1.
         11    1    4    4    0    0  0.14026775015E-01  0.21394871991E-02 -0.19145064717E-01  0.23835319314E-01  0.51100000000E-03 0.  1.
</event>
<event>
 8    1  0.1088088E+005  0.1043930E+01  0.7957747E-01            NaN
         13   -1    0    0    0    0  0.00000000000E+00  0.00000000000E+00  0.74505805969E-08  0.10566000000E+00  0.10566000000E+00 0.  1.
     999900   -1    0    0    0    0 -0.00000000000E+00 -0.00000000000E+00 -0.74505805969E-08  0.93827000000E+00  0.93827000000E+00 0. -1.
     999902    2    1    2    0    0 -0.45726355627E-02 -0.10420615371E-01  0.20739877897E-01  0.10202732725E+01  0.10199989754E+01 0.  0.
     999903    2    3    3    0    0 -0.42377375888E-02  0.11702745223E+00 -0.48685777967E-01  0.12838592323E+00  0.19981424178E-01 0.  0.
         14    1    1    2    0    0  0.45726355627E-02  0.10420615371E-01 -0.20739877897E-01  0.23656727497E-01  0.00000000000E+00 0. -1.
     999901    1    3    3    0    0 -0.33489797394E-03 -0.12744806761E+00  0.69425655863E-01  0.89188734927E+00  0.88000000000E+00 0.  1.
        -11    1    4    4    0    0  0.36504394714E-02  0.72971899306E-01 -0.38056961182E-01  0.82382141342E-01  0.51100000000E-03 0. -1.
         11    1    4    4    0    0 -0.78881770602E-02  0.44055552929E-01 -0.10628816784E-01  0.46003781893E-01  0.51100000000E-03 0.  1.
</event>
<event>
 8    1  0.1088088E+005  0.1043930E+01  0.7957747E-01            NaN
         13   -1    0    0    0    0  0.00000000000E+00  0.00000000000E+00  0.74505805969E-08  0.10566000000E+00  0.10566000000E+00 0. -1.
     999900   -1    0    0    0    0 -0.00000000000E+00 -0.00000000000E+00 -0.74505805969E-08  0.93827000000E+00  0.93827000000E+00 0.  1.
     999902    2    1    2    0    0 -0.42793214447E-02 -0.75441447668E-02 -0.21542649552E-01  0.10207068981E+01  0.10204426781E+01 0.  0.
     999903    2    3    3    0    0  0.51125317441E-01 -0.89923788636E-01  0.76001817552E-01  0.12976862706E+00  0.19066579446E-01 0.  0.
         14    1    1    2    0    0  0.42793214447E-02  0.75441447668E-02  0.21542649552E-01  0.23223101904E-01  0.00000000000E+00 0. -1.
     999901    1    3    3    0    0 -0.55404638886E-01  0.82379643870E-01 -0.97544467104E-01  0.89093827104E+00  0.88000000000E+00 0.  1.
        -11    1    4    4    0    0  0.37485310687E-01 -0.76942247689E-01  0.67950818956E-01  0.10928326914E+00  0.51100000000E-03 0. -1.
         11    1    4    4    0    0  0.13640006754E-01 -0.12981540947E-01  0.80509985959E-02  0.20485357918E-01  0.51100000000E-03 0.  1.
</event>
<event>
 8    1  0.1088088E+005  0.1043930E+01  0.7957747E-01            NaN
         13   -1    0    0    0    0  0.00000000000E+00  0.00000000000E+00  0.74505805969E-08  0.10566000000E+00  0.10566000000E+00 0. -1.
     999900   -1    0    0    0    0 -0.00000000000E+00 -0.00000000000E+00 -0.74505805969E-08  0.93827000000E+00  0.93827000000E+00 0.  1.
     999902    2    1    2    0    0  0.17369769310E-01  0.14611554234E-01 -0.29272282955E-02  0.10210438673E+01  0.10207873451E+01 0.  0.
     999903    2    3    3    0    0 -0.76512802756E-02  0.36798648216E-01  0.12420509584E+00  0.13127932100E+00  0.19866345664E-01 0.  0.
         14    1    1    2    0    0 -0.17369769310E-01 -0.14611554234E-01  0.29272282955E-02  0.22886132668E-01  0.00000000000E+00 0. -1.
     999901    1    3    3    0    0  0.25021049586E-01 -0.22187093982E-01 -0.12713232414E+00  0.88976454633E+00  0.88000000000E+00 0.  1.
        -11    1    4    4    0    0 -0.52514087887E-02  0.17520066246E-01  0.30395580368E-01  0.35477914855E-01  0.51100000000E-03 0.  1.
         11    1    4    4    0    0 -0.23998714869E-02  0.19278581970E-01  0.93809515472E-01  0.95801406149E-01  0.51100000000E-03 0. -1.
</event>
<event>
 8    1  0.1088088E+005  0.1043930E+01  0.7957747E-01            NaN
         13   -1    0    0    0    0  0.00000000000E+00  0.00000000000E+00  0.74505805969E-08  0.10566000000E+00  0.10566000000E+00 0.  1.
     999900   -1    0    0    0    0 -0.00000000000E+00 -0.00000000000E+00 -0.74505805969E-08  0.93827000000E+00  0.93827000000E+00 0.  1.
     999902    2    1    2    0    0 -0.19582118728E-01  0.62377922376E-02 -0.13957384515E-01  0.10190869324E+01  0.10187840781E+01 0.  0.
     999903    2    3    3    0    0 -0.11841320920E+00 -0.48197920551E-01  0.24435217830E-01  0.13105268576E+00  0.15264301970E-01 0.  0.
         14    1    1    2    0    0  0.19582118728E-01 -0.62377922376E-02  0.13957384515E-01  0.24843067612E-01  0.00000000000E+00 0. -1.
     999901    1    3    3    0    0  0.98831090476E-01  0.54435712788E-01 -0.38392602345E-01  0.88803424663E+00  0.88000000000E+00 0. -1.
        -11    1    4    4    0    0 -0.76355489888E-02 -0.14701529019E-02  0.50065193531E-02  0.92622521531E-02  0.51100000000E-03 0. -1.
         11    1    4    4    0    0 -0.11077766022E+00 -0.46727767649E-01  0.19428698477E-01  0.12179043361E+00  0.51100000000E-03 0.  1.
</event>
<event>
 8    1  0.1088088E+005  0.1043930E+01  0.7957747E-01            NaN
         13   -1    0    0    0    0  0.00000000000E+00  0.00000000000E+00  0.74505805969E-08  0.10566000000E+00  0.10566000000E+00 0. -1.
     999900   -1    0    0    0    0 -0.00000000000E+00 -0.00000000000E+00 -0.74505805969E-08  0.93827000000E+00  0.93827000000E+00 0.  1.
     999902    2    1    2    0    0 -0.90911533231E-02 -0.22899076730E-01 -0.30482058726E-02  0.10191044417E+01  0.10188020194E+01 0.  0.
     999903    2    3    3    0    0  0.32999400599E-01  0.93684527537E-01 -0.77691140932E-01  0.12728892311E+00  0.17343743191E-01 0.  0.
         14    1    1    2    0    0  0.90911533231E-02  0.22899076730E-01  0.30482058726E-02  0.24825558259E-01  0.00000000000E+00 0.  1.
     999901    1    3    3    0    0 -0.42090553922E-01 -0.11658360427E+00  0.74642935060E-01  0.89181551863E+00  0.88000000000E+00 0. -1.
        -11    1    4    4    0    0  0.72152048302E-02  0.17063965821E-01 -0.23644484941E-01  0.30042651338E-01  0.51100000000E-03 0. -1.
         11    1    4    4    0    0  0.25784195769E-01  0.76620561716E-01 -0.54046655992E-01  0.97246271774E-01  0.51100000000E-03 0.  1.
</event>
<event>
 7    1  0.1088088E+005  0.1043930E+01  0.7957747E-01            NaN
         13   -1    0    0    0    0  0.00000000000E+00  0.00000000000E+00  0.74505805969E-08  0.10566000000E+00  0.10566000000E+00 0. -1.
     999900   -1    0    0    0    0 -0.00000000000E+00 -0.00000000000E+00 -0.74505805969E-08  0.93827000000E+00  0.93827000000E+00 0. -1.
     999902    2    1    2    0    0 -0.12258450257E-01 -0.20357458104E-01  0.40797238300E-02  0.10198190098E+01  0.10195339488E+01 0.  0.
         14    1    1    2    0    0  0.12258450257E-01  0.20357458104E-01 -0.40797238300E-02  0.24110990226E-01  0.00000000000E+00 0.  1.
     999901    1    3    3    0    0  0.46182929402E-02  0.10059344347E+00 -0.33819863532E-01  0.88638826293E+00  0.88000000000E+00 0. -1.
        -11    1    3    3    0    0 -0.26844220267E-01 -0.10689147815E+00  0.28696619096E-01  0.11388659856E+00  0.51100000000E-03 0.  1.
         11    1    3    3    0    0  0.99674770704E-02 -0.14059423425E-01  0.92029682654E-02  0.19544148282E-01  0.51100000000E-03 0. -1.
</event>
<event>
 8    1  0.1088088E+005  0.1043930E+01  0.7957747E-01            NaN
         13   -1    0    0    0    0  0.00000000000E+00  0.00000000000E+00  0.74505805969E-08  0.10566000000E+00  0.10566000000E+00 0.  1.
     999900   -1    0    0    0    0 -0.00000000000E+00 -0.00000000000E+00 -0.74505805969E-08  0.93827000000E+00  0.93827000000E+00 0.  1.
     999902    2    1    2    0    0  0.23759098813E-01  0.43559740300E-02 -0.35060924158E-03  0.10197723467E+01  0.10194861681E+01 0.  0.
     999903    2    3    3    0    0 -0.48744470264E-01 -0.11291937939E+00  0.31487588647E-01  0.12846771477E+00  0.19638632249E-01 0.  0.
         14    1    1    2    0    0 -0.23759098813E-01 -0.43559740300E-02  0.35060924158E-03  0.24157653300E-01  0.00000000000E+00 0. -1.
     999901    1    3    3    0    0  0.72503569076E-01  0.11727535342E+00 -0.31838197888E-01  0.89130463193E+00  0.88000000000E+00 0.  1.
        -11    1    4    4    0    0 -0.21658983368E-01 -0.28528039935E-01  0.68112363372E-02  0.36463881918E-01  0.51100000000E-03 0. -1.
         11    1    4    4    0    0 -0.27085486895E-01 -0.84391339457E-01  0.24676352309E-01  0.92003832855E-01  0.51100000000E-03 0.  1.
</event>
<event>
 8    1  0.1088088E+005  0.1043930E+01  0.7957747E-01            NaN
         13   -1    0    0    0    0  0.00000000000E+00  0.00000000000E+00  0.74505805969E-08  0.10566000000E+00  0.10566000000E+00 0.  1.
     999900   -1    0    0    0    0 -0.00000000000E+00 -0.00000000000E+00 -0.74505805969E-08  0.93827000000E+00  0.93827000000E+00 0.  1.
     999902    2    1    2    0    0 -0.50836394824E-02 -0.90086797883E-02  0.20277374997E-01  0.10211666163E+01  0.10209128692E+01 0.  0.
     999903    2    3    3    0    0  0.42838654435E-01  0.69439915522E-01  0.10253220180E+00  0.13256288857E+00  0.20075229436E-01 0.  0.
         14    1    1    2    0    0  0.50836394824E-02  0.90086797883E-02 -0.20277374997E-01  0.22763383726E-01  0.00000000000E+00 0. -1.
     999901    1    3    3    0    0 -0.47922293917E-01 -0.78448595310E-01 -0.82254826808E-01  0.88860372771E+00  0.88000000000E+00 0.  1.
        -11    1    4    4    0    0  0.35241121107E-01  0.38660053575E-01  0.63393990574E-01  0.82192429829E-01  0.51100000000E-03 0. -1.
         11    1    4    4    0    0  0.75975333271E-02  0.30779861947E-01  0.39138211230E-01  0.50370458738E-01  0.51100000000E-03 0.  1.
</event>
<event>
 8    1  0.1088088E+005  0.1043930E+01  0.7957747E-01            NaN
         13   -1    0    0    0    0  0.00000000000E+00  0.00000000000E+00  0.74505805969E-08  0.10566000000E+00  0.10566000000E+00 0. -1.
     999900   -1    0    0    0    0 -0.00000000000E+00 -0.00000000000E+00 -0.74505805969E-08  0.93827000000E+00  0.93827000000E+00 0.  1.
     999902    2    1    2    0    0 -0.12263947709E-01  0.30185223142E-02  0.19560386280E-01  0.10206464306E+01  0.10203808170E+01 0.  0.
     999903    2    3    3    0    0  0.10684549408E+00 -0.53295221423E-01  0.48723367066E-01  0.13036064715E+00  0.19068077915E-01 0.  0.
         14    1    1    2    0    0  0.12263947709E-01 -0.30185223142E-02 -0.19560386280E-01  0.23283569353E-01  0.00000000000E+00 0.  1.
     999901    1    3    3    0    0 -0.11910944178E+00  0.56313743737E-01 -0.29162980785E-01  0.89028578350E+00  0.88000000000E+00 0.  1.
        -11    1    4    4    0    0  0.47062257770E-01 -0.18735198786E-01  0.11636943896E-01  0.51976373135E-01  0.51100000000E-03 0.  1.
         11    1    4    4    0    0  0.59783236305E-01 -0.34560022636E-01  0.37086423170E-01  0.78384274011E-01  0.51100000000E-03 0. -1.
</event>
<event>
 8    1  0.1088088E+005  0.1043930E+01  0.7957747E-01            NaN
         13   -1    0    0    0    0  0.00000000000E+00  0.00000000000E+00  0.74505805969E-08  0.10566000000E+00  0.10566000000E+00 0.  1.
     999900   -1    0    0    0    0 -0.00000000000E+00 -0.00000000000E+00 -0.74505805969E-08  0.93827000000E+00  0.93827000000E+00 0. -1.
     999902    2    1    2    0    0 -0.50189166194E-02 -0.18842866254E-01 -0.14018927685E-01  0.10199138915E+01  0.10196310964E+01 0.  0.
     999903    2    3    3    0    0  0.53861485006E-01  0.86153351293E-01 -0.77185649361E-01  0.12947515578E+00  0.21971162704E-01 0.  0.
         14    1    1    2    0    0  0.50189166194E-02  0.18842866254E-01  0.14018927685E-01  0.24016108472E-01  0.00000000000E+00 0.  1.
     999901    1    3    3    0    0 -0.58880401626E-01 -0.10499621755E+00  0.63166721676E-01  0.89043873575E+00  0.88000000000E+00 0. -1.
        -11    1    4    4    0    0  0.20091065207E-02  0.16877797407E-01 -0.85881810151E-02  0.19050315705E-01  0.51100000000E-03 0. -1.
         11    1    4    4    0    0  0.51852378485E-01  0.69275553886E-01 -0.68597468346E-01  0.11042484007E+00  0.51100000000E-03 0.  1.
</event>
<event>
 8    1  0.1088088E+005  0.1043930E+01  0.7957747E-01            NaN
         13   -1    0    0    0    0  0.00000000000E+00  0.00000000000E+00  0.74505805969E-08  0.10566000000E+00  0.10566000000E+00 0.  1.
     999900   -1    0    0    0    0 -0.00000000000E+00 -0.00000000000E+00 -0.74505805969E-08  0.93827000000E+00  0.93827000000E+00 0. -1.
     999902    2    1    2    0    0  0.79006165160E-02 -0.80449500484E-02 -0.18093347032E-01  0.10226107559E+01  0.10223885014E+01 0.  0.
     999903    2    3    3    0    0  0.78206166015E-01  0.37394886575E-01 -0.10133531295E+00  0.13472738859E+00  0.19184411389E-01 0.  0.
         14    1    1    2    0    0 -0.79006165160E-02  0.80449500484E-02  0.18093347032E-01  0.21319244110E-01  0.00000000000E+00 0.  1.
     999901    1    3    3    0    0 -0.70305549499E-01 -0.45439836623E-01  0.83241965917E-01  0.88788336730E+00  0.88000000000E+00 0.  1.
        -11    1    4    4    0    0  0.45912567925E-01  0.31627318870E-01 -0.59135367111E-01  0.81274251499E-01  0.51100000000E-03 0.  1.
         11    1    4    4    0    0  0.32293598090E-01  0.57675677046E-02 -0.42199945838E-01  0.53453137088E-01  0.51100000000E-03 0. -1.
</event>
<event>
 8    1  0.1088088E+005  0.1043930E+01  0.7957747E-01            NaN
         13   -1    0    0    0    0  0.00000000000E+00  0.00000000000E+00  0.74505805969E-08  0.10566000000E+00  0.10566000000E+00 0. -1.
     999900   -1    0    0    0    0 -0.00000000000E+00 -0.00000000000E+00 -0.74505805969E-08  0.93827000000E+00  0.93827000000E+00 0. -1.
     999902    2    1    2    0    0 -0.22023965108E-02 -0.18924093373E-01 -0.15029067698E-01  0.10196638768E+01  0.10193750914E+01 0.  0.
     999903    2    3    3    0    0  0.10209401636E+00 -0.40321443495E-01  0.65955082037E-01  0.12955488298E+00  0.19631298374E-01 0.  0.
         14    1    1    2    0    0  0.22023965108E-02  0.18924093373E-01  0.15029067698E-01  0.24266123222E-01  0.00000000000E+00 0. -1.
     999901    1    3    3    0    0 -0.10429641287E+00  0.21397350122E-01 -0.80984149735E-01  0.89010899380E+00  0.88000000000E+00 0. -1.
        -11    1    4    4    0    0  0.12937486680E-01 -0.53547790850E-02  0.16900027951E-01  0.21952774002E-01  0.51100000000E-03 0.  1.
         11    1    4    4    0    0  0.89156529678E-01 -0.34966664410E-01  0.49055054087E-01  0.10760210898E+00  0.51100000000E-03 0. -1.
</event>
<event>
 7    1  0.1088088E+005  0.1043930E+01  0.7957747E-01            NaN
         13   -1    0    0    0    0  0.00000000000E+00  0.00000000000E+00  0.74505805969E-08  0.10566000000E+00  0.10566000000E+00 0.  1.
     999900   -1    0    0    0    0 -0.00000000000E+00 -0.00000000000E+00 -0.74505805969E-08  0.93827000000E+00  0.93827000000E+00 0. -1.
     999903    2    1    2    0    0 -0.18591446822E-01 -0.83355904346E-01 -0.43332845520E-01  0.97645990599E-01  0.19056633882E-01 0.  0.
         14    1    1    2    0    0 -0.19020892900E-01 -0.46110038923E-01 -0.20061363502E-01  0.53762332183E-01  0.00000000000E+00 0.  1.
     999901    1    1    2    0    0  0.37612339721E-01  0.12946594327E+00  0.63394209022E-01  0.89252167722E+00  0.88000000000E+00 0. -1.
        -11    1    3    3    0    0 -0.14009849282E-01 -0.27822723547E-01 -0.21217036745E-01  0.37693548410E-01  0.51100000000E-03 0. -1.
         11    1    3    3    0    0 -0.45815975394E-02 -0.55533180799E-01 -0.22115808775E-01  0.59952442189E-01  0.51100000000E-03 0.  1.
</event>
<event>
 8    1  0.1088088E+005  0.1043930E+01  0.7957747E-01            NaN
         13   -1    0    0    0    0  0.00000000000E+00  0.00000000000E+00  0.74505805969E-08  0.10566000000E+00  0.10566000000E+00 0.  1.
     999900   -1    0    0    0    0 -0.00000000000E+00 -0.00000000000E+00 -0.74505805969E-08  0.93827000000E+00  0.93827000000E+00 0.  1.
     999902    2    1    2    0    0 -0.15891072607E-01 -0.13664327575E-01  0.11505011482E-01  0.10200217310E+01  0.10197414998E+01 0.  0.
     999903    2    3    3    0    0 -0.50806535853E-01  0.28596088801E-01 -0.11378688110E+00  0.12945837520E+00  0.20321816341E-01 0.  0.
         14    1    1    2    0    0  0.15891072607E-01  0.13664327575E-01 -0.11505011482E-01  0.23908268985E-01  0.00000000000E+00 0. -1.
     999901    1    3    3    0    0  0.34915463246E-01 -0.42260416376E-01  0.12529189258E+00  0.89056335581E+00  0.88000000000E+00 0. -1.
        -11    1    4    4    0    0 -0.20572679243E-01  0.10588670081E-02 -0.43621519973E-01  0.48243698618E-01  0.51100000000E-03 0. -1.
         11    1    4    4    0    0 -0.30233856609E-01  0.27537221793E-01 -0.70165361129E-01  0.81214676586E-01  0.51100000000E-03 0.  1.
</event>
<event>
 8    1  0.1088088E+005  0.1043930E+01  0.7957747E-01            NaN
         13   -1    0    0    0    0  0.00000000000E+00  0.00000000000E+00  0.74505805969E-08  0.10566000000E+00  0.10566000000E+00 0. -1.
     999900   -1    0    0    0    0 -0.00000000000E+00 -0.00000000000E+00 -0.74505805969E-08  0.93827000000E+00  0.93827000000E+00 0.  1.
     999902    2    1    2    0    0 -0.21916637638E-01  0.83972610798E-02  0.98739949693E-03  0.10204389814E+01  0.10201685580E+01 0.  0.
     999903    2    3    3    0    0  0.91047799058E-01 -0.74591518021E-01 -0.46534665291E-01  0.12807893740E+00  0.19625056886E-01 0.  0.
         14    1    1    2    0    0  0.21916637638E-01 -0.83972610798E-02 -0.98739949693E-03  0.23491018641E-01  0.00000000000E+00 0. -1.
     999901    1    3    3    0    0 -0.11296443670E+00  0.82988779100E-01  0.47522064788E-01  0.89236004396E+00  0.88000000000E+00 0. -1.
        -11    1    4    4    0    0  0.23927264841E-01 -0.29506676087E-01 -0.20272305662E-01  0.43062575798E-01  0.51100000000E-03 0. -1.
         11    1    4    4    0    0  0.67120534217E-01 -0.45084841933E-01 -0.26262359628E-01  0.85016361602E-01  0.51100000000E-03 0.  1.
</event>
<event>
 8    1  0.1088088E+005  0.1043930E+01  0.7957747E-01            NaN
         13   -1    0    0    0    0  0.00000000000E+00  0.00000000000E+00  0.74505805969E-08  0.10566000000E+00  0.10566000000E+00 0. -1.
     999900   -1    0    0    0    0 -0.00000000000E+00 -0.00000000000E+00 -0.74505805969E-08  0.93827000000E+00  0.93827000000E+00 0. -1.
     999902    2    1    2    0    0  0.45913621541E-02 -0.13798555165E-01  0.17693573531E-01  0.10210270902E+01  0.10207701875E+01 0.  0.
     999903    2    3    3    0    0 -0.38983469473E-01  0.58851339868E-01 -0.10542939267E+00  0.12842637435E+00  0.19869214715E-01 0.  0.
         14    1    1    2    0    0 -0.45913621541E-02  0.13798555165E-01 -0.17693573531E-01  0.22902909757E-01  0.00000000000E+00 0.  1.
     999901    1    3    3    0    0  0.43574831627E-01 -0.72649895033E-01  0.12312296620E+00  0.89260071589E+00  0.88000000000E+00 0.  1.
        -11    1    4    4    0    0 -0.12455657198E-01  0.19459149422E-01 -0.52209815084E-01  0.57095777468E-01  0.51100000000E-03 0. -1.
         11    1    4    4    0    0 -0.26527812275E-01  0.39392190446E-01 -0.53219577590E-01  0.71330596885E-01  0.51100000000E-03 0.  1.
</event>
<event>
 8    1  0.1088088E+005  0.1043930E+01  0.7957747E-01            NaN
         13   -1    0    0    0    0  0.00000000000E+00  0.00000000000E+00  0.74505805969E-08  0.10566000000E+00  0.10566000000E+00 0.  1.
     999900   -1    0    0    0    0 -0.00000000000E+00 -0.00000000000E+00 -0.74505805969E-08  0.93827000000E+00  0.93827000000E+00 0.  1.
     999902    2    1    2    0    0 -0.22557976289E-01  0.87487170024E-02 -0.21583886304E-02  0.10196388291E+01  0.10193494400E+01 0.  0.
     999903    2    3    3    0    0 -0.44309340608E-01  0.14437277844E-01 -0.12129253325E+00  0.13132670713E+00  0.19054467423E-01 0.  0.
         14    1    1    2    0    0  0.22557976289E-01 -0.87487170024E-02  0.21583886304E-02  0.24291170926E-01  0.00000000000E+00 0.  1.
     999901    1    3    3    0    0  0.21751364318E-01 -0.56885608417E-02  0.11913414461E+00  0.88831212194E+00  0.88000000000E+00 0. -1.
        -11    1    4    4    0    0 -0.29715286010E-01  0.91505095857E-02 -0.54453311637E-01  0.62706892106E-01  0.51100000000E-03 0. -1.
         11    1    4    4    0    0 -0.14594054598E-01  0.52867682583E-02 -0.66839221608E-01  0.68619815028E-01  0.51100000000E-03 0.  1.
</event>
<event>
 8    1  0.1088088E+005  0.1043930E+01  0.7957747E-01            NaN
         13   -1    0    0    0    0  0.00000000000E+00  0.00000000000E+00  0.74505805969E-08  0.10566000000E+00  0.10566000000E+00 0.  1.
     999900   -1    0    0    0    0 -0.00000000000E+00 -0.00000000000E+00 -0.74505805969E-08  0.93827000000E+00  0.93827000000E+00 0.  1.
     999902    2    1    2    0    0 -0.21084287994E-01 -0.14739083053E-03 -0.97531011916E-02  0.10206987300E+01  0.10204343220E+01 0.  0.
     999903    2    3    3    0    0 -0.95611356747E-01 -0.55937585763E-01 -0.72182766352E-01  0.13358865060E+00  0.19105778481E-01 0.  0.
         14    1    1    2    0    0  0.21084287994E-01  0.14739083053E-03  0.97531011916E-02  0.23231270028E-01  0.00000000000E+00 0.  1.
     999901    1    3    3    0    0  0.74527068753E-01  0.55790194933E-01  0.62429665161E-01  0.88711007937E+00  0.88000000000E+00 0. -1.
        -11    1    4    4    0    0 -0.31054445729E-01 -0.89058869006E-02 -0.24668368251E-01  0.40650743341E-01  0.51100000000E-03 0. -1.
         11    1    4    4    0    0 -0.64556911018E-01 -0.47031698863E-01 -0.47514398102E-01  0.92937907261E-01  0.51100000000E-03 0.  1.
</event>
<event>
 8    1  0.1088088E+005  0.1043930E+01  0.7957747E-01            NaN
         13   -1    0    0    0    0  0.00000000000E+00  0.00000000000E+00  0.74505805969E-08  0.10566000000E+00  0.10566000000E+00 0.  1.
     999900   -1    0    0    0    0 -0.00000000000E+00 -0.00000000000E+00 -0.74505805969E-08  0.93827000000E+00  0.93827000000E+00 0.  1.
     999902    2    1    2    0    0  0.19252913716E-01 -0.86415611048E-02 -0.58119641112E-02  0.10220409573E+01  0.10218065317E+01 0.  0.
     999903    2    3    3    0    0 -0.40859541241E-01 -0.84042015754E-01  0.90460985948E-01  0.13155389014E+00  0.19765462574E-01 0.  0.
         14    1    1    2    0    0 -0.19252913716E-01  0.86415611048E-02  0.58119641112E-02  0.21889042732E-01  0.00000000000E+00 0.  1.
     999901    1    3    3    0    0  0.60112454957E-01  0.75400454650E-01 -0.96272950060E-01  0.89048706712E+00  0.88000000000E+00 0. -1.
        -11    1    4    4    0    0 -0.29006733216E-01 -0.37962290812E-01  0.49064621700E-01  0.68484482323E-01  0.51100000000E-03 0. -1.
         11    1    4    4    0    0 -0.11852808025E-01 -0.46079724943E-01  0.41396364249E-01  0.63069407821E-01  0.51100000000E-03 0.  1.
</event>
<event>
 8    1  0.1209295E+005  0.1043930E+01  0.7957747E-01            NaN
         13   -1    0    0    0    0  0.00000000000E+00  0.00000000000E+00  0.74505805969E-08  0.10566000000E+00  0.10566000000E+00 0.  1.
     999900   -1    0    0    0    0 -0.00000000000E+00 -0.00000000000E+00 -0.74505805969E-08  0.93827000000E+00  0.93827000000E+00 0. -1.
     999902    2    1    2    0    0 -0.20839519131E-02  0.14252380079E-01 -0.17548852140E-01  0.10212267975E+01  0.10209744054E+01 0.  0.
     999903    2    3    3    0    0 -0.10005766650E+00  0.37430783683E-01 -0.77518274089E-01  0.13345857394E+00  0.19735955715E-01 0.  0.
         14    1    1    2    0    0  0.20839519131E-02 -0.14252380079E-01  0.17548852140E-01  0.22703202526E-01  0.00000000000E+00 0. -1.
     999901    1    3    3    0    0  0.97973714589E-01 -0.23178403604E-01  0.59969421949E-01  0.88776822353E+00  0.88000000000E+00 0.  1.
        -11    1    4    4    0    0 -0.45018333514E-01  0.22789504127E-01 -0.26508642365E-01  0.56999834138E-01  0.51100000000E-03 0.  1.
         11    1    4    4    0    0 -0.55039332988E-01  0.14641279556E-01 -0.51009631724E-01  0.76458739804E-01  0.51100000000E-03 0. -1.
</event>
<event>
 8    1  0.1088088E+005  0.1043930E+01  0.7957747E-01            NaN
         13   -1    0    0    0    0  0.00000000000E+00  0.00000000000E+00  0.74505805969E-08  0.10566000000E+00  0.10566000000E+00 0. -1.
     999900   -1    0    0    0    0 -0.00000000000E+00 -0.00000000000E+00 -0.74505805969E-08  0.93827000000E+00  0.93827000000E+00 0. -1.
     999902    2    1    2    0    0 -0.17731515944E-01 -0.11614231512E-01 -0.99054556797E-02  0.10205330967E+01  0.10202648609E+01 0.  0.
     999903    2    3    3    0    0 -0.16354801267E-01  0.11451461393E+00 -0.56890582489E-01  0.13029830569E+00  0.18974555691E-01 0.  0.
         14    1    1    2    0    0  0.17731515944E-01  0.11614231512E-01  0.99054556797E-02  0.23396903289E-01  0.00000000000E+00 0. -1.
     999901    1    3    3    0    0 -0.13767146771E-02 -0.12612884544E+00  0.46985126809E-01  0.89023479102E+00  0.88000000000E+00 0. -1.
        -11    1    4    4    0    0 -0.40018291952E-02  0.86556377897E-01 -0.41701765319E-01  0.96162984268E-01  0.51100000000E-03 0. -1.
         11    1    4    4    0    0 -0.12352972071E-01  0.27958236030E-01 -0.15188817169E-01  0.34135321427E-01  0.51100000000E-03 0.  1.
</event>
<event>
 8    1  0.1088088E+005  0.1043930E+01  0.7957747E-01            NaN
         13   -1    0    0    0    0  0.00000000000E+00  0.00000000000E+00  0.74505805969E-08  0.10566000000E+00  0.10566000000E+00 0.  1.
     999900   -1    0    0    0    0 -0.00000000000E+00 -0.00000000000E+00 -0.74505805969E-08  0.93827000000E+00  0.93827000000E+00 0.  1.
     999902    2    1    2    0    0  0.34623950409E-02  0.22197794854E-01 -0.75290689001E-02  0.10202357569E+01  0.10199605789E+01 0.  0.
     999903    2    3    3    0    0 -0.39805042694E-02 -0.32349054986E-01 -0.12553994003E+00  0.13065309002E+00  0.15736823546E-01 0.  0.
         14    1    1    2    0    0 -0.34623950409E-02 -0.22197794854E-01  0.75290689001E-02  0.23694243063E-01  0.00000000000E+00 0. -1.
     999901    1    3    3    0    0  0.74428993103E-02  0.54546849840E-01  0.11801087113E+00  0.88958266692E+00  0.88000000000E+00 0. -1.
        -11    1    4    4    0    0 -0.94565524087E-02 -0.13230919091E-01 -0.59084913944E-01  0.61284351838E-01  0.51100000000E-03 0.  1.
         11    1    4    4    0    0  0.54760481393E-02 -0.19118135895E-01 -0.66455026088E-01  0.69368738180E-01  0.51100000000E-03 0. -1.
</event>
<event>
 8    1  0.1088088E+005  0.1043930E+01  0.7957747E-01            NaN
         13   -1    0    0    0    0  0.00000000000E+00  0.00000000000E+00  0.74505805969E-08  0.10566000000E+00  0.10566000000E+00 0.  1.
     999900   -1    0    0    0    0 -0.00000000000E+00 -0.00000000000E+00 -0.74505805969E-08  0.93827000000E+00  0.93827000000E+00 0.  1.
     999902    2    1    2    0    0 -0.56007260679E-02  0.97728671638E-02 -0.20922363915E-01  0.10201682160E+01  0.10198914485E+01 0.  0.
     999903    2    3    3    0    0  0.78257642122E-01 -0.84434303417E-01  0.52653594053E-01  0.12813646857E+00  0.19827845759E-01 0.  0.
         14    1    1    2    0    0  0.56007260679E-02 -0.97728671638E-02  0.20922363915E-01  0.23761783958E-01  0.00000000000E+00 0.  1.
     999901    1    3    3    0    0 -0.83858368189E-01  0.94207170581E-01 -0.73575957968E-01  0.89203174747E+00  0.88000000000E+00 0.  1.
        -11    1    4    4    0    0  0.32012971398E-01 -0.32860049213E-01  0.10564506844E-01  0.47079540119E-01  0.51100000000E-03 0. -1.
         11    1    4    4    0    0  0.46244670724E-01 -0.51574254204E-01  0.42089087209E-01  0.81056928452E-01  0.51100000000E-03 0.  1.
</event>
<event>
 8    1  0.1088088E+005  0.1043930E+01  0.7957747E-01            NaN
         13   -1    0    0    0    0  0.00000000000E+00  0.00000000000E+00  0.74505805969E-08  0.10566000000E+00  0.10566000000E+00 0.  1.
     999900   -1    0    0    0    0 -0.00000000000E+00 -0.00000000000E+00 -0.74505805969E-08  0.93827000000E+00  0.93827000000E+00 0. -1.
     999902    2    1    2    0    0 -0.20385432808E-01  0.55777902490E-02 -0.87776757376E-02  0.10210449567E+01  0.10207884592E+01 0.  0.
     999903    2    3    3    0    0 -0.11219858814E-02  0.85143258299E-01 -0.99666267811E-01  0.13258422024E+00  0.19863968139E-01 0.  0.
         14    1    1    2    0    0  0.20385432808E-01 -0.55777902490E-02  0.87776757376E-02  0.22885043285E-01  0.00000000000E+00 0.  1.
     999901    1    3    3    0    0 -0.19263446926E-01 -0.79565468050E-01  0.90888592074E-01  0.88846073648E+00  0.88000000000E+00 0.  1.
        -11    1    4    4    0    0 -0.77450514345E-02  0.38003315236E-01 -0.34709156645E-01  0.52050211014E-01  0.51100000000E-03 0. -1.
         11    1    4    4    0    0  0.66230655531E-02  0.47139943063E-01 -0.64957111167E-01  0.80534009222E-01  0.51100000000E-03 0.  1.
</event>
<event>
 8    1  0.1088088E+005  0.1043930E+01  0.7957747E-01            NaN
         13   -1    0    0    0    0  0.00000000000E+00  0.00000000000E+00  0.74505805969E-08  0.10566000000E+00  0.10566000000E+00 0. -1.
     999900   -1    0    0    0    0 -0.00000000000E+00 -0.00000000000E+00 -0.74505805969E-08  0.93827000000E+00  0.93827000000E+00 0.  1.
     999902    2    1    2    0    0  0.21486115394E-03  0.13021785277E-01  0.19127366436E-01  0.10207897925E+01  0.10205274770E+01 0.  0.
     999903    2    3    3    0    0 -0.46631621779E-01  0.46595101442E-01 -0.10991602418E+00  0.12951320400E+00  0.18615209096E-01 0.  0.
         14    1    1    2    0    0 -0.21486115394E-03 -0.13021785277E-01 -0.19127366436E-01  0.23140207516E-01  0.00000000000E+00 0.  1.
     999901    1    3    3    0    0  0.46846482933E-01 -0.33573316166E-01  0.12904339062E+00  0.89127658849E+00  0.88000000000E+00 0. -1.
        -11    1    4    4    0    0 -0.11584233943E-01  0.20065316148E-02 -0.17873629170E-01  0.21399728640E-01  0.51100000000E-03 0.  1.
         11    1    4    4    0    0 -0.35047387836E-01  0.44588569828E-01 -0.92042395012E-01  0.10811347536E+00  0.51100000000E-03 0. -1.
</event>
<event>
 8    1  0.1088088E+005  0.1043930E+01  0.7957747E-01            NaN
         13   -1    0    0    0    0  0.00000000000E+00  0.00000000000E+00  0.74505805969E-08  0.10566000000E+00  0.10566000000E+00 0. -1.
     999900   -1    0    0    0    0 -0.00000000000E+00 -0.00000000000E+00 -0.74505805969E-08  0.93827000000E+00  0.93827000000E+00 0. -1.
     999902    2    1    2    0    0  0.19200238986E-01 -0.13245942444E-01  0.80784097462E-02  0.10192446831E+01  0.10189457096E+01 0.  0.
     999903    2    3    3    0    0 -0.73916528386E-01  0.73686210073E-01 -0.69594395551E-01  0.12668600365E+00  0.17681993824E-01 0.  0.
         14    1    1    2    0    0 -0.19200238986E-01  0.13245942444E-01 -0.80784097462E-02  0.24685316939E-01  0.00000000000E+00 0.  1.
     999901    1    3    3    0    0  0.93116767372E-01 -0.86932152517E-01  0.77672805297E-01  0.89255867941E+00  0.88000000000E+00 0.  1.
        -11    1    4    4    0    0 -0.34639621349E-01  0.22719670240E-01 -0.24828752996E-01  0.48299222347E-01  0.51100000000E-03 0. -1.
         11    1    4    4    0    0 -0.39276907037E-01  0.50966539832E-01 -0.44765642555E-01  0.78386781305E-01  0.51100000000E-03 0.  1.
</event>
<event>
 8    1  0.1088088E+005  0.1043930E+01  0.7957747E-01            NaN
         13   -1    0    0    0    0  0.00000000000E+00  0.00000000000E+00  0.74505805969E-08  0.10566000000E+00  0.10566000000E+00 0. -1.
     999900   -1    0    0    0    0 -0.00000000000E+00 -0.00000000000E+00 -0.74505805969E-08  0.93827000000E+00  0.93827000000E+00 0.  1.
     999902    2    1    2    0    0 -0.55636526080E-02 -0.10285670199E-01 -0.20654990445E-01  0.10201944176E+01  0.10199182672E+01 0.  0.
     999903    2    3    3    0    0 -0.74511616093E-01 -0.10287231059E+00  0.27753201642E-01  0.13133590202E+00  0.18552243496E-01 0.  0.
         14    1    1    2    0    0  0.55636526080E-02  0.10285670199E-01  0.20654990445E-01  0.23735582404E-01  0.00000000000E+00 0. -1.
     999901    1    3    3    0    0  0.68947963485E-01  0.92586640394E-01 -0.48408192087E-01  0.88885851557E+00  0.88000000000E+00 0. -1.
        -11    1    4    4    0    0 -0.53537314912E-01 -0.58591653969E-01  0.17434910381E-01  0.81261695920E-01  0.51100000000E-03 0.  1.
         11    1    4    4    0    0 -0.20974301181E-01 -0.44280656624E-01  0.10318291260E-01  0.50074206101E-01  0.51100000000E-03 0. -1.
</event>
<event>
 8    1  0.1088088E+005  0.1043930E+01  0.7957747E-01            NaN
         13   -1    0    0    0    0  0.00000000000E+00  0.00000000000E+00  0.74505805969E-08  0.10566000000E+00  0.10566000000E+00 0. -1.
     999900   -1    0    0    0    0 -0.00000000000E+00 -0.00000000000E+00 -0.74505805969E-08  0.93827000000E+00  0.93827000000E+00 0.  1.
     999902    2    1    2    0    0 -0.75595437403E-02  0.21734300572E-01 -0.51301402419E-02  0.10203536376E+01  0.10200812227E+01 0.  0.
     999903    2    3    3    0    0 -0.10502736439E+00 -0.77701493415E-02 -0.76435628761E-01  0.13161579029E+00  0.19727858961E-01 0.  0.
         14    1    1    2    0    0  0.75595437403E-02 -0.21734300572E-01  0.51301402419E-02  0.23576362353E-01  0.00000000000E+00 0. -1.
     999901    1    3    3    0    0  0.97467820648E-01  0.29504449913E-01  0.71305488519E-01  0.88873784735E+00  0.88000000000E+00 0. -1.
        -11    1    4    4    0    0 -0.37475145039E-01  0.50902190875E-02 -0.33648272432E-01  0.50623751192E-01  0.51100000000E-03 0. -1.
         11    1    4    4    0    0 -0.67552219349E-01 -0.12860368429E-01 -0.42787356329E-01  0.80992039101E-01  0.51100000000E-03 0.  1.
</event>
<event>
 8    1  0.1088088E+005  0.1043930E+01  0.7957747E-01            NaN
         13   -1    0    0    0    0  0.00000000000E+00  0.00000000000E+00  0.74505805969E-08  0.10566000000E+00  0.10566000000E+00 0.  1.
     999900   -1    0    0    0    0 -0.00000000000E+00 -0.00000000000E+00 -0.74505805969E-08  0.93827000000E+00  0.93827000000E+00 0. -1.
     999902    2    1    2    0    0  0.92376335001E-02 -0.51941725604E-02 -0.21566301431E-01  0.10199004628E+01  0.10196173475E+01 0.  0.
     999903    2    3    3    0    0 -0.44614986559E-01  0.17928281270E-01 -0.12155829627E+00  0.13230080551E+00  0.20375560176E-01 0.  0.
         14    1    1    2    0    0 -0.92376335001E-02  0.51941725604E-02  0.21566301431E-01  0.24029537213E-01  0.00000000000E+00 0. -1.
     999901    1    3    3    0    0  0.53852620059E-01 -0.23122453830E-01  0.99991994841E-01  0.88759965727E+00  0.88000000000E+00 0.  1.
        -11    1    4    4    0    0 -0.12844846246E-01  0.14912150416E-01 -0.56564978892E-01  0.59893407510E-01  0.51100000000E-03 0.  1.
         11    1    4    4    0    0 -0.31770140313E-01  0.30161308537E-02 -0.64993317379E-01  0.72407398004E-01  0.51100000000E-03 0. -1.
</event>
<event>
 8    1  0.1088088E+005  0.1043930E+01  0.7957747E-01            NaN
         13   -1    0    0    0    0  0.00000000000E+00  0.00000000000E+00  0.74505805969E-08  0.10566000000E+00  0.10566000000E+00 0.  1.
     999900   -1    0    0    0    0 -0.00000000000E+00 -0.00000000000E+00 -0.74505805969E-08  0.93827000000E+00  0.93827000000E+00 0. -1.
     999902    2    1    2    0    0 -0.10869044532E-01 -0.17075604353E-01  0.11990099253E-01  0.10204039533E+01  0.10201327134E+01 0.  0.
     999903    2    3    3    0    0 -0.19244787882E-01 -0.27888335900E-01  0.12673509961E+00  0.13284917564E+00  0.20952251784E-01 0.  0.
         14    1    1    2    0    0  0.10869044532E-01  0.17075604353E-01 -0.11990099253E-01  0.23526046696E-01  0.00000000000E+00 0. -1.
     999901    1    3    3    0    0  0.83757433500E-02  0.10812731547E-01 -0.11474500036E+00  0.88755477766E+00  0.88000000000E+00 0. -1.
        -11    1    4    4    0    0 -0.44835212114E-02 -0.10380814897E-01  0.80063465126E-01  0.80859649080E-01  0.51100000000E-03 0. -1.
         11    1    4    4    0    0 -0.14761266671E-01 -0.17507521004E-01  0.46671634488E-01  0.51989526563E-01  0.51100000000E-03 0.  1.
</event>
<event>
 8    1  0.1088088E+005  0.1043930E+01  0.7957747E-01            NaN
         13   -1    0    0    0    0  0.00000000000E+00  0.00000000000E+00  0.74505805969E-08  0.10566000000E+00  0.10566000000E+00 0.  1.
     999900   -1    0    0    0    0 -0.00000000000E+00 -0.00000000000E+00 -0.74505805969E-08  0.93827000000E+00  0.93827000000E+00 0. -1.
     999902    2    1    2    0    0 -0.10052950114E-01  0.19998068471E-01  0.79958085437E-02  0.10201620068E+01  0.10198850928E+01 0.  0.
     999903    2    3    3    0    0  0.34818976616E-01 -0.10928846541E-01  0.12421875509E+00  0.13084893636E+00  0.18956376476E-01 0.  0.
         14    1    1    2    0    0  0.10052950114E-01 -0.19998068471E-01 -0.79958085437E-02  0.23767993244E-01  0.00000000000E+00 0. -1.
     999901    1    3    3    0    0 -0.44871926730E-01  0.30926915012E-01 -0.11622294655E+00  0.88931307040E+00  0.88000000000E+00 0. -1.
        -11    1    4    4    0    0  0.12406018101E-01  0.31175454821E-02  0.24045085696E-01  0.27240698267E-01  0.51100000000E-03 0. -1.
         11    1    4    4    0    0  0.22412958516E-01 -0.14046392023E-01  0.10017366940E+00  0.10360823809E+00  0.51100000000E-03 0.  1.
</event>
<event>
 8    1  0.1088088E+005  0.1043930E+01  0.7957747E-01            NaN
         13   -1    0    0    0    0  0.00000000000E+00  0.00000000000E+00  0.74505805969E-08  0.10566000000E+00  0.10566000000E+00 0. -1.
     999900   -1    0    0    0    0 -0.00000000000E+00 -0.00000000000E+00 -0.74505805969E-08  0.93827000000E+00  0.93827000000E+00 0. -1.
     999902    2    1    2    0    0 -0.19298381079E-01 -0.52921548701E-02  0.12730893422E-01  0.10202127054E+01  0.10199369854E+01 0.  0.
     999903    2    3    3    0    0 -0.63573275189E-01  0.87561235265E-01  0.72694071934E-01  0.13219378608E+00  0.21959912210E-01 0.  0.
         14    1    1    2    0    0  0.19298381079E-01  0.52921548701E-02 -0.12730893422E-01  0.23717294592E-01  0.00000000000E+00 0.  1.
     999901    1    3    3    0    0  0.44274894110E-01 -0.92853390135E-01 -0.59963178512E-01  0.88801891933E+00  0.88000000000E+00 0. -1.
        -11    1    4    4    0    0 -0.28741299075E-01  0.50355769866E-01  0.27932313829E-01  0.64360244780E-01  0.51100000000E-03 0. -1.
         11    1    4    4    0    0 -0.34831976114E-01  0.37205465399E-01  0.44761758105E-01  0.67833541300E-01  0.51100000000E-03 0.  1.
</event>
<event>
 8    1  0.1088088E+005  0.1043930E+01  0.7957747E-01            NaN
         13   -1    0    0    0    0  0.00000000000E+00  0.00000000000E+00  0.74505805969E-08  0.10566000000E+00  0.10566000000E+00 0. -1.
     999900   -1    0    0    0    0 -0.00000000000E+00 -0.00000000000E+00 -0.74505805969E-08  0.93827000000E+00  0.93827000000E+00 0.  1.
     999902    2    1    2    0    0  0.76427349526E-02 -0.11208373824E-01 -0.18830449250E-01  0.10207217071E+01  0.10204578279E+01 0.  0.
     999903    2    3    3    0    0 -0.11362385899E+00  0.13366076771E-01  0.55899958384E-01  0.12892906063E+00  0.20220385471E-01 0.  0.
         14    1    1    2    0    0 -0.76427349526E-02  0.11208373824E-01  0.18830449250E-01  0.23208292920E-01  0.00000000000E+00 0.  1.
     999901    1    3    3    0    0  0.12126659394E+00 -0.24574450595E-01 -0.74730407634E-01  0.89179264645E+00  0.88000000000E+00 0.  1.
        -11    1    4    4    0    0 -0.33646583698E-01  0.13071428918E-01  0.14915548545E-01  0.39060076266E-01  0.51100000000E-03 0. -1.
         11    1    4    4    0    0 -0.79977275293E-01  0.29464785287E-03  0.40984409839E-01  0.89868984369E-01  0.51100000000E-03 0.  1.
</event>
<event>
 8    1  0.1088088E+005  0.1043930E+01  0.7957747E-01            NaN
         13   -1    0    0    0    0  0.00000000000E+00  0.00000000000E+00  0.74505805969E-08  0.10566000000E+00  0.10566000000E+00 0. -1.
     999900   -1    0    0    0    0 -0.00000000000E+00 -0.00000000000E+00 -0.74505805969E-08  0.93827000000E+00  0.93827000000E+00 0. -1.
     999902    2    1    2    0    0 -0.12285612151E-01 -0.12652085201E-01 -0.16105873587E-01  0.10200467278E+01  0.10197670892E+01 0.  0.
     999903    2    3    3    0    0  0.10293544948E+00  0.63333124933E-01  0.35799010361E-01  0.12777784336E+00  0.20947950689E-01 0.  0.
         14    1    1    2    0    0  0.12285612151E-01  0.12652085201E-01  0.16105873587E-01  0.23883272177E-01  0.00000000000E+00 0. -1.
     999901    1    3    3    0    0 -0.11522106163E+00 -0.75985210134E-01 -0.51904883948E-01  0.89226888446E+00  0.88000000000E+00 0. -1.
        -11    1    4    4    0    0  0.30821397822E-01  0.12572797401E-01  0.20583220309E-02  0.33354633993E-01  0.51100000000E-03 0. -1.
         11    1    4    4    0    0  0.72114051656E-01  0.50760327532E-01  0.33740688330E-01  0.94423209368E-01  0.51100000000E-03 0.  1.
</event>
<event>
 8    1  0.1088088E+005  0.1043930E+01  0.7957747E-01            NaN
         13   -1    0    0    0    0  0.00000000000E+00  0.00000000000E+00  0.74505805969E-08  0.10566000000E+00  0.10566000000E+00 0.  1.
     999900   -1    0    0    0    0 -0.00000000000E+00 -0.00000000000E+00 -0.74505805969E-08  0.93827000000E+00  0.93827000000E+00 0. -1.
     999902    2    1    2    0    0 -0.15902622420E-01 -0.81345888037E-02  0.11741274837E-01  0.10225542551E+01  0.10223308086E+01 0.  0.
     999903    2    3    3    0    0 -0.56187148436E-02  0.24649758461E-01  0.13022152921E+00  0.13394965077E+00  0.18592517906E-01 0.  0.
         14    1    1    2    0    0  0.15902622420E-01  0.81345888037E-02 -0.11741274837E-01  0.21375744891E-01  0.00000000000E+00 0. -1.
     999901    1    3    3    0    0 -0.10283907576E-01 -0.32784347265E-01 -0.11848025437E+00  0.88860460434E+00  0.88000000000E+00 0. -1.
        -11    1    4    4    0    0 -0.86577905018E-02  0.68184356611E-02  0.27220897016E-01  0.29371529694E-01  0.51100000000E-03 0. -1.
         11    1    4    4    0    0  0.30390756582E-02  0.17831322800E-01  0.10300063219E+00  0.10457812107E+00  0.51100000000E-03 0.  1.
</event>
<event>
 8    1  0.1088088E+005  0.1043930E+01  0.7957747E-01            NaN
         13   -1    0    0    0    0  0.00000000000E+00  0.00000000000E+00  0.74505805969E-08  0.10566000000E+00  0.10566000000E+00 0. -1.
     999900   -1    0    0    0    0 -0.00000000000E+00 -0.00000000000E+00 -0.74505805969E-08  0.93827000000E+00  0.93827000000E+00 0.  1.
     999902    2    1    2    0    0  0.18201664301E-01  0.91175857320E-02 -0.11561174375E-01  0.10205186415E+01  0.10202500703E+01 0.  0.
     999903    2    3    3    0    0  0.87855252851E-01 -0.43799108416E-01  0.84223136512E-01  0.13100954481E+00  0.20810015765E-01 0.  0.
         14    1    1    2    0    0 -0.18201664301E-01 -0.91175857320E-02  0.11561174375E-01  0.23411358479E-01  0.00000000000E+00 0.  1.
     999901    1    3    3    0    0 -0.69653588551E-01  0.52916694148E-01 -0.95784310887E-01  0.88950909671E+00  0.88000000000E+00 0.  1.
        -11    1    4    4    0    0  0.44177999619E-01 -0.10475797112E-01  0.38635220535E-01  0.59618615904E-01  0.51100000000E-03 0. -1.
         11    1    4    4    0    0  0.43677253232E-01 -0.33323311304E-01  0.45587915977E-01  0.71390928908E-01  0.51100000000E-03 0.  1.
</event>
<event>
 8    1  0.1088088E+005  0.1043930E+01  0.7957747E-01            NaN
         13   -1    0    0    0    0  0.00000000000E+00  0.00000000000E+00  0.74505805969E-08  0.10566000000E+00  0.10566000000E+00 0. -1.
     999900   -1    0    0    0    0 -0.00000000000E+00 -0.00000000000E+00 -0.74505805969E-08  0.93827000000E+00  0.93827000000E+00 0.  1.
     999902    2    1    2    0    0  0.99569460325E-02  0.18956586369E-01 -0.97550492390E-02  0.10204001482E+01  0.10201288196E+01 0.  0.
     999903    2    3    3    0    0  0.41091914980E-01 -0.37247183346E-02  0.12186602092E+00  0.12977793086E+00  0.16987209280E-01 0.  0.
         14    1    1    2    0    0 -0.99569460325E-02 -0.18956586369E-01  0.97550492390E-02  0.23529851821E-01  0.00000000000E+00 0.  1.
     999901    1    3    3    0    0 -0.31134968948E-01  0.22681304704E-01 -0.13162107016E+00  0.89062221732E+00  0.88000000000E+00 0.  1.
        -11    1    4    4    0    0  0.86615032664E-02 -0.28056465667E-02  0.51368727843E-01  0.52171837352E-01  0.51100000000E-03 0.  1.
         11    1    4    4    0    0  0.32430411714E-01 -0.91907176786E-03  0.70497293079E-01  0.77606093507E-01  0.51100000000E-03 0. -1.
</event>
<event>
 8    1  0.1088088E+005  0.1043930E+01  0.7957747E-01            NaN
         13   -1    0    0    0    0  0.00000000000E+00  0.00000000000E+00  0.74505805969E-08  0.10566000000E+00  0.10566000000E+00 0.  1.
     999900   -1    0    0    0    0 -0.00000000000E+00 -0.00000000000E+00 -0.74505805969E-08  0.93827000000E+00  0.93827000000E+00 0. -1.
     999902    2    1    2    0    0  0.34785060259E-02 -0.10564055692E-02 -0.23237497883E-01  0.10204098532E+01  0.10201387510E+01 0.  0.
     999903    2    3    3    0    0 -0.75286104717E-01 -0.91791673807E-01 -0.52858922333E-01  0.13175121144E+00  0.21693480658E-01 0.  0.
         14    1    1    2    0    0 -0.34785060259E-02  0.10564055692E-02  0.23237497883E-01  0.23520146785E-01  0.00000000000E+00 0.  1.
     999901    1    3    3    0    0  0.78764610743E-01  0.90735268238E-01  0.29621424449E-01  0.88865864177E+00  0.88000000000E+00 0. -1.
        -11    1    4    4    0    0 -0.40337322047E-01 -0.63799146418E-01 -0.27822562904E-01  0.80447416124E-01  0.51100000000E-03 0.  1.
         11    1    4    4    0    0 -0.34948782670E-01 -0.27992527389E-01 -0.25036359429E-01  0.51303795320E-01  0.51100000000E-03 0. -1.
</event>
<event>
 7    1  0.1088088E+005  0.1043930E+01  0.7957747E-01            NaN
         13   -1    0    0    0    0  0.00000000000E+00  0.00000000000E+00  0.74505805969E-08  0.10566000000E+00  0.10566000000E+00 0.  1.
     999900   -1    0    0    0    0 -0.00000000000E+00 -0.00000000000E+00 -0.74505805969E-08  0.93827000000E+00  0.93827000000E+00 0. -1.
     999903    2    1    2    0    0 -0.93260485054E-01 -0.14314914242E-01  0.51321815232E-01  0.10927302824E+00  0.20105500237E-01 0.  0.
         14    1    1    2    0    0  0.21047106929E-01  0.82590380138E-02  0.41044952993E-01  0.46860223913E-01  0.00000000000E+00 0.  1.
     999901    1    1    2    0    0  0.72213378125E-01  0.60558762286E-02 -0.92366768224E-01  0.88779674785E+00  0.88000000000E+00 0.  1.
        -11    1    3    3    0    0 -0.47148591595E-01 -0.67528660484E-02  0.14536918172E-01  0.49801345365E-01  0.51100000000E-03 0.  1.
         11    1    3    3    0    0 -0.46111893459E-01 -0.75620481941E-02  0.36784897059E-01  0.59471682874E-01  0.51100000000E-03 0. -1.
</event>
<event>
 8    1  0.1088088E+005  0.1043930E+01  0.7957747E-01            NaN
         13   -1    0    0    0    0  0.00000000000E+00  0.00000000000E+00  0.74505805969E-08  0.10566000000E+00  0.10566000000E+00 0.  1.
     999900   -1    0    0    0    0 -0.00000000000E+00 -0.00000000000E+00 -0.74505805969E-08  0.93827000000E+00  0.93827000000E+00 0.  1.
     999902    2    1    2    0    0  0.55872578688E-02 -0.21349602049E-01  0.79367904308E-02  0.10204775886E+01  0.10202080637E+01 0.  0.
     999903    2    3    3    0    0  0.51132215073E-01 -0.91833436609E-01 -0.78000088518E-01  0.13231799640E+00  0.19394712259E-01 0.  0.
         14    1    1    2    0    0 -0.55872578688E-02  0.21349602049E-01 -0.79367904308E-02  0.23452411400E-01  0.00000000000E+00 0.  1.
     999901    1    3    3    0    0 -0.45544957204E-01  0.70483834561E-01  0.85936878949E-01  0.88815959220E+00  0.88000000000E+00 0. -1.
        -11    1    4    4    0    0  0.26994908104E-01 -0.34035997921E-01 -0.24093975460E-01  0.49678516408E-01  0.51100000000E-03 0.  1.
         11    1    4    4    0    0  0.24137306969E-01 -0.57797438689E-01 -0.53906113058E-01  0.82639479988E-01  0.51100000000E-03 0. -1.
</event>
<event>
 8    1  0.1088088E+005  0.1043930E+01  0.7957747E-01            NaN
         13   -1    0    0    0    0  0.00000000000E+00  0.00000000000E+00  0.74505805969E-08  0.10566000000E+00  0.10566000000E+00 0.  1.
     999900   -1    0    0    0    0 -0.00000000000E+00 -0.00000000000E+00 -0.74505805969E-08  0.93827000000E+00  0.93827000000E+00 0. -1.
     999902    2    1    2    0    0  0.18312293704E-01 -0.40564520740E-02  0.17720969356E-01  0.10181263635E+01  0.10177993242E+01 0.  0.
     999903    2    3    3    0    0  0.44522440432E-01  0.11687086981E+00  0.24461152838E-01  0.12944429486E+00  0.22725086616E-01 0.  0.
         14    1    1    2    0    0 -0.18312293704E-01  0.40564520740E-02 -0.17720969356E-01  0.25803636547E-01  0.00000000000E+00 0. -1.
     999901    1    3    3    0    0 -0.26210146728E-01 -0.12092732188E+00 -0.67401834826E-02  0.88868206859E+00  0.88000000000E+00 0.  1.
        -11    1    4    4    0    0  0.40476749465E-01  0.77591112962E-01  0.14407336412E-01  0.88693745672E-01  0.51100000000E-03 0.  1.
         11    1    4    4    0    0  0.40456909668E-02  0.39279756845E-01  0.10053816426E-01  0.40750549186E-01  0.51100000000E-03 0. -1.
</event>
<event>
 8    1  0.1088088E+005  0.1043930E+01  0.7957747E-01            NaN
         13   -1    0    0    0    0  0.00000000000E+00  0.00000000000E+00  0.74505805969E-08  0.10566000000E+00  0.10566000000E+00 0. -1.
     999900   -1    0    0    0    0 -0.00000000000E+00 -0.00000000000E+00 -0.74505805969E-08  0.93827000000E+00  0.93827000000E+00 0.  1.
     999902    2    1    2    0    0  0.98273105621E-02  0.19711878161E-01 -0.10190221333E-01  0.10196611973E+01  0.10193723473E+01 0.  0.
     999903    2    3    3    0    0  0.67573309684E-01 -0.23507119628E-02 -0.11131606889E+00  0.13171536824E+00  0.19646704802E-01 0.  0.
         14    1    1    2    0    0 -0.98273105621E-02 -0.19711878161E-01  0.10190221333E-01  0.24268802697E-01  0.00000000000E+00 0. -1.
     999901    1    3    3    0    0 -0.57745999122E-01  0.22062590124E-01  0.10112584756E+00  0.88794582906E+00  0.88000000000E+00 0. -1.
        -11    1    4    4    0    0  0.49281627546E-01 -0.49641474101E-02 -0.64089942060E-01  0.81000638068E-01  0.51100000000E-03 0.  1.
         11    1    4    4    0    0  0.18291682138E-01  0.26134354473E-02 -0.47226126833E-01  0.50714730177E-01  0.51100000000E-03 0. -1.
</event>
<event>
 8    1  0.1088088E+005  0.1043930E+01  0.7957747E-01            NaN
         13   -1    0    0    0    0  0.00000000000E+00  0.00000000000E+00  0.74505805969E-08  0.10566000000E+00  0.10566000000E+00 0.  1.
     999900   -1    0    0    0    0 -0.00000000000E+00 -0.00000000000E+00 -0.74505805969E-08  0.93827000000E+00  0.93827000000E+00 0. -1.
     999902    2    1    2    0    0  0.13339210142E-01 -0.89670851515E-02 -0.17359541747E-01  0.10202720873E+01  0.10199977624E+01 0.  0.
     999903    2    3    3    0    0  0.98224249020E-01 -0.72022200297E-01  0.44390670622E-01  0.13179332780E+00  0.23743402924E-01 0.  0.
         14    1    1    2    0    0 -0.13339210142E-01  0.89670851515E-02  0.17359541747E-01  0.23657912694E-01  0.00000000000E+00 0.  1.
     999901    1    3    3    0    0 -0.84885038877E-01  0.63055115146E-01 -0.61750212369E-01  0.88847875951E+00  0.88000000000E+00 0. -1.
        -11    1    4    4    0    0  0.33315599746E-01 -0.38705062226E-01  0.16274303677E-01  0.53601540179E-01  0.51100000000E-03 0.  1.
         11    1    4    4    0    0  0.64908649273E-01 -0.33317138071E-01  0.28116366945E-01  0.78191787618E-01  0.51100000000E-03 0. -1.
</event>
<event>
 8    1  0.1088088E+005  0.1043930E+01  0.7957747E-01            NaN
         13   -1    0    0    0    0  0.00000000000E+00  0.00000000000E+00  0.74505805969E-08  0.10566000000E+00  0.10566000000E+00 0. -1.
     999900   -1    0    0    0    0 -0.00000000000E+00 -0.00000000000E+00 -0.74505805969E-08  0.93827000000E+00  0.93827000000E+00 0. -1.
     999902    2    1    2    0    0  0.14607313905E-01 -0.16274918588E-01  0.43968042490E-02  0.10216235327E+01  0.10213799803E+01 0.  0.
     999903    2    3    3    0    0  0.18619798481E-01  0.98176625019E-01 -0.80488281463E-01  0.13015242627E+00  0.21816141189E-01 0.  0.
         14    1    1    2    0    0 -0.14607313905E-01  0.16274918588E-01 -0.43968042490E-02  0.22306467272E-01  0.00000000000E+00 0.  1.
     999901    1    3    3    0    0 -0.40124845763E-02 -0.11445154361E+00  0.84885085711E-01  0.89147110645E+00  0.88000000000E+00 0.  1.
        -11    1    4    4    0    0  0.86805751218E-02  0.35585845069E-01 -0.43116079990E-01  0.56577046833E-01  0.51100000000E-03 0. -1.
         11    1    4    4    0    0  0.99392233593E-02  0.62590779951E-01 -0.37372201473E-01  0.73575379440E-01  0.51100000000E-03 0.  1.
</event>
<event>
 8    1  0.1088088E+005  0.1043930E+01  0.7957747E-01            NaN
         13   -1    0    0    0    0  0.00000000000E+00  0.00000000000E+00  0.74505805969E-08  0.10566000000E+00  0.10566000000E+00 0. -1.
     999900   -1    0    0    0    0 -0.00000000000E+00 -0.00000000000E+00 -0.74505805969E-08  0.93827000000E+00  0.93827000000E+00 0. -1.
     999902    2    1    2    0    0  0.13431014839E-01  0.12760725043E-01 -0.16985231856E-01  0.10187958327E+01  0.10184857497E+01 0.  0.
     999903    2    3    3    0    0 -0.73686317843E-01  0.81719415532E-01 -0.66941904018E-01  0.13040380229E+00  0.20400902598E-01 0.  0.
         14    1    1    2    0    0 -0.13431014839E-01 -0.12760725043E-01  0.16985231856E-01  0.25134167272E-01  0.00000000000E+00 0. -1.
     999901    1    3    3    0    0  0.87117332682E-01 -0.68958690489E-01  0.49956672162E-01  0.88839203044E+00  0.88000000000E+00 0.  1.
        -11    1    4    4    0    0 -0.53778482690E-01  0.46023834522E-01 -0.38199229733E-01  0.80434823415E-01  0.51100000000E-03 0.  1.
         11    1    4    4    0    0 -0.19907835153E-01  0.35695581010E-01 -0.28742674285E-01  0.49968978879E-01  0.51100000000E-03 0. -1.
</event>
<event>
 8    1  0.1088088E+005  0.1043930E+01  0.7957747E-01            NaN
         13   -1    0    0    0    0  0.00000000000E+00  0.00000000000E+00  0.74505805969E-08  0.10566000000E+00  0.10566000000E+00 0. -1.
     999900   -1    0    0    0    0 -0.00000000000E+00 -0.00000000000E+00 -0.74505805969E-08  0.93827000000E+00  0.93827000000E+00 0.  1.
     999902    2    1    2    0    0  0.13191731786E-01  0.14648684850E-01  0.16046465245E-01  0.10185116050E+01  0.10181943797E+01 0.  0.
     999903    2    3    3    0    0 -0.91036832565E-01  0.80051329468E-01  0.40024634599E-01  0.12962688127E+00  0.22477471839E-01 0.  0.
         14    1    1    2    0    0 -0.13191731786E-01 -0.14648684850E-01 -0.16046465245E-01  0.25418394957E-01  0.00000000000E+00 0.  1.
     999901    1    3    3    0    0  0.10422856435E+00 -0.65402644618E-01 -0.23978169354E-01  0.88888472377E+00  0.88000000000E+00 0.  1.
        -11    1    4    4    0    0 -0.74946897376E-01  0.53361510645E-01  0.32364931740E-01  0.97530703740E-01  0.51100000000E-03 0.  1.
         11    1    4    4    0    0 -0.16089935189E-01  0.26689818823E-01  0.76597028585E-02  0.32096177531E-01  0.51100000000E-03 0. -1.
</event>
<event>
 8    1  0.1088088E+005  0.1043930E+01  0.7957747E-01            NaN
         13   -1    0    0    0    0  0.00000000000E+00  0.00000000000E+00  0.74505805969E-08  0.10566000000E+00  0.10566000000E+00 0. -1.
     999900   -1    0    0    0    0 -0.00000000000E+00 -0.00000000000E+00 -0.74505805969E-08  0.93827000000E+00  0.93827000000E+00 0.  1.
     999902    2    1    2    0    0 -0.10998055910E-01  0.20756271985E-01 -0.88203460283E-02  0.10188385958E+01  0.10185295802E+01 0.  0.
     999903    2    3    3    0    0 -0.12985202690E-01 -0.55511534448E-01  0.11208700189E+00  0.12730098368E+00  0.19796426629E-01 0.  0.
         14    1    1    2    0    0  0.10998055910E-01 -0.20756271985E-01  0.88203460283E-02  0.25091404197E-01  0.00000000000E+00 0. -1.
     999901    1    3    3    0    0  0.19871467795E-02  0.76267806433E-01 -0.12090734792E+00  0.89153761212E+00  0.88000000000E+00 0.  1.
        -11    1    4    4    0    0  0.47875478226E-02 -0.16948743499E-01  0.27636053719E-01  0.32774885301E-01  0.51100000000E-03 0. -1.
         11    1    4    4    0    0 -0.17772750513E-01 -0.38562790949E-01  0.84450948171E-01  0.94526098378E-01  0.51100000000E-03 0.  1.
</event>
<event>
 8    1  0.1088088E+005  0.1043930E+01  0.7957747E-01            NaN
         13   -1    0    0    0    0  0.00000000000E+00  0.00000000000E+00  0.74505805969E-08  0.10566000000E+00  0.10566000000E+00 0.  1.
     999900   -1    0    0    0    0 -0.00000000000E+00 -0.00000000000E+00 -0.74505805969E-08  0.93827000000E+00  0.93827000000E+00 0.  1.
     999902    2    1    2    0    0  0.16445532989E-02  0.31857744994E-02  0.23148931314E-01  0.10205050830E+01  0.10202361970E+01 0.  0.
     999903    2    3    3    0    0  0.12475201457E+00 -0.14562463277E-01  0.34208857408E-01  0.13168970909E+00  0.19919916623E-01 0.  0.
         14    1    1    2    0    0 -0.16445532989E-02 -0.31857744994E-02 -0.23148931314E-01  0.23424916984E-01  0.00000000000E+00 0. -1.
     999901    1    3    3    0    0 -0.12310746127E+00  0.17748237776E-01 -0.11059926094E-01  0.88881537393E+00  0.88000000000E+00 0.  1.
        -11    1    4    4    0    0  0.69418633859E-01 -0.13379722239E-01  0.27815911981E-01  0.75973349106E-01  0.51100000000E-03 0.  1.
         11    1    4    4    0    0  0.55333380713E-01 -0.11827410379E-02  0.63929454269E-02  0.55716359983E-01  0.51100000000E-03 0. -1.
</event>
<event>
 8    1  0.1088088E+005  0.1043930E+01  0.7957747E-01            NaN
         13   -1    0    0    0    0  0.00000000000E+00  0.00000000000E+00  0.74505805969E-08  0.10566000000E+00  0.10566000000E+00 0.  1.
     999900   -1    0    0    0    0 -0.00000000000E+00 -0.00000000000E+00 -0.74505805969E-08  0.93827000000E+00  0.93827000000E+00 0. -1.
     999902    2    1    2    0    0  0.13214538137E-03 -0.70556927020E-02  0.22074910695E-01  0.10207545400E+01  0.10204914155E+01 0.  0.
     999903    2    3    3    0    0 -0.12522966263E+00  0.30062514981E-01  0.15276683625E-01  0.13106944961E+00  0.18963131287E-01 0.  0.
         14    1    1    2    0    0 -0.13214538137E-03  0.70556927020E-02 -0.22074910695E-01  0.23175459955E-01  0.00000000000E+00 0. -1.
     999901    1    3    3    0    0  0.12536180802E+00 -0.37118207683E-01  0.67982270705E-02  0.88968509043E+00  0.88000000000E+00 0. -1.
        -11    1    4    4    0    0 -0.41921252725E-01  0.10265935590E-02  0.58294588855E-02  0.42340158671E-01  0.51100000000E-03 0.  1.
         11    1    4    4    0    0 -0.83308409909E-01  0.29035921422E-01  0.94472247392E-02  0.88729290940E-01  0.51100000000E-03 0. -1.
</event>
<event>
 8    1  0.1088088E+005  0.1043930E+01  0.7957747E-01            NaN
         13   -1    0    0    0    0  0.00000000000E+00  0.00000000000E+00  0.74505805969E-08  0.10566000000E+00  0.10566000000E+00 0. -1.
     999900   -1    0    0    0    0 -0.00000000000E+00 -0.00000000000E+00 -0.74505805969E-08  0.93827000000E+00  0.93827000000E+00 0.  1.
     999902    2    1    2    0    0 -0.16798012889E-01  0.15127165876E-01 -0.12534155072E-01  0.10180821872E+01  0.10177540127E+01 0.  0.
     999903    2    3    3    0    0  0.11558517467E+00 -0.44556107429E-01  0.12109875674E-01  0.12584077942E+00  0.18549214656E-01 0.  0.
         14    1    1    2    0    0  0.16798012889E-01 -0.15127165876E-01  0.12534155072E-01  0.25847812825E-01  0.00000000000E+00 0. -1.
     999901    1    3    3    0    0 -0.13238318756E+00  0.59683273305E-01 -0.24644030745E-01  0.89224140775E+00  0.88000000000E+00 0. -1.
        -11    1    4    4    0    0  0.91972857253E-01 -0.27684752370E-01  0.12148860472E-01  0.96815845381E-01  0.51100000000E-03 0. -1.
         11    1    4    4    0    0  0.23612317414E-01 -0.16871355059E-01 -0.38984798056E-04  0.29024934040E-01  0.51100000000E-03 0.  1.
</event>
<event>
 8    1  0.1088088E+005  0.1043930E+01  0.7957747E-01            NaN
         13   -1    0    0    0    0  0.00000000000E+00  0.00000000000E+00  0.74505805969E-08  0.10566000000E+00  0.10566000000E+00 0.  1.
     999900   -1    0    0    0    0 -0.00000000000E+00 -0.00000000000E+00 -0.74505805969E-08  0.93827000000E+00  0.93827000000E+00 0. -1.
     999902    2    1    2    0    0  0.19644989299E-01 -0.12934373928E-01  0.36506509991E-02  0.10201276706E+01  0.10198499465E+01 0.  0.
     999903    2    3    3    0    0 -0.30979997825E-01  0.89493789079E-01 -0.84191983750E-01  0.12840420089E+00  0.20747292115E-01 0.  0.
         14    1    1    2    0    0 -0.19644989299E-01  0.12934373928E-01 -0.36506509991E-02  0.23802329427E-01  0.00000000000E+00 0.  1.
     999901    1    3    3    0    0  0.50624987124E-01 -0.10242816301E+00  0.87842634749E-01  0.89172346968E+00  0.88000000000E+00 0.  1.
        -11    1    4    4    0    0 -0.27074184060E-01  0.53907141188E-01 -0.60715236506E-01  0.85589674485E-01  0.51100000000E-03 0.  1.
         11    1    4    4    0    0 -0.39058137653E-02  0.35586647891E-01 -0.23476747245E-01  0.42814526407E-01  0.51100000000E-03 0. -1.
</event>
<event>
 8    1  0.1088088E+005  0.1043930E+01  0.7957747E-01            NaN
         13   -1    0    0    0    0  0.00000000000E+00  0.00000000000E+00  0.74505805969E-08  0.10566000000E+00  0.10566000000E+00 0. -1.
     999900   -1    0    0    0    0 -0.00000000000E+00 -0.00000000000E+00 -0.74505805969E-08  0.93827000000E+00  0.93827000000E+00 0.  1.
     999902    2    1    2    0    0 -0.17894797565E-02 -0.17451004835E-01  0.15630045198E-01  0.10204345085E+01  0.10201639810E+01 0.  0.
     999903    2    3    3    0    0  0.32611258012E-01  0.10335843652E+00 -0.64778251323E-01  0.12788544766E+00  0.20297914418E-01 0.  0.
         14    1    1    2    0    0  0.17894797565E-02  0.17451004835E-01 -0.15630045198E-01  0.23495491492E-01  0.00000000000E+00 0.  1.
     999901    1    3    3    0    0 -0.34400737768E-01 -0.12080944135E+00  0.80408296521E-01  0.89254906085E+00  0.88000000000E+00 0. -1.
        -11    1    4    4    0    0  0.32261321117E-01  0.75257637019E-01 -0.52086795485E-01  0.97045351021E-01  0.51100000000E-03 0.  1.
         11    1    4    4    0    0  0.34993689415E-03  0.28100799496E-01 -0.12691455838E-01  0.30840096635E-01  0.51100000000E-03 0. -1.
</event>
<event>
 8    1  0.1088088E+005  0.1043930E+01  0.7957747E-01            NaN
         13   -1    0    0    0    0  0.00000000000E+00  0.00000000000E+00  0.74505805969E-08  0.10566000000E+00  0.10566000000E+00 0.  1.
     999900   -1    0    0    0    0 -0.00000000000E+00 -0.00000000000E+00 -0.74505805969E-08  0.93827000000E+00  0.93827000000E+00 0.  1.
     999902    2    1    2    0    0  0.22889603396E-01  0.51034767920E-02  0.84319817768E-02  0.10190085687E+01  0.10187037771E+01 0.  0.
     999903    2    3    3    0    0  0.51318059409E-02  0.42282101182E-01 -0.11984757376E+00  0.12875397940E+00  0.20000869068E-01 0.  0.
         14    1    1    2    0    0 -0.22889603396E-01 -0.51034767920E-02 -0.84319817768E-02  0.24921431253E-01  0.00000000000E+00 0. -1.
     999901    1    3    3    0    0  0.17757797455E-01 -0.37178624390E-01  0.12827955554E+00  0.89025458935E+00  0.88000000000E+00 0. -1.
        -11    1    4    4    0    0  0.10988036682E-01  0.25358000414E-01 -0.56149241448E-01  0.62584052052E-01  0.51100000000E-03 0. -1.
         11    1    4    4    0    0 -0.58562307407E-02  0.16924100768E-01 -0.63698332311E-01  0.66169927349E-01  0.51100000000E-03 0.  1.
</event>
<event>
 8    1  0.1088088E+005  0.1043930E+01  0.7957747E-01            NaN
         13   -1    0    0    0    0  0.00000000000E+00  0.00000000000E+00  0.74505805969E-08  0.10566000000E+00  0.10566000000E+00 0.  1.
     999900   -1    0    0    0    0 -0.00000000000E+00 -0.00000000000E+00 -0.74505805969E-08  0.93827000000E+00  0.93827000000E+00 0.  1.
     999902    2    1    2    0    0 -0.15696025373E-01  0.89456446934E-02 -0.15065459115E-01  0.10204064410E+01  0.10201352591E+01 0.  0.
     999903    2    3    3    0    0 -0.11498534477E+00 -0.32097563855E-01  0.51684316605E-01  0.13136288383E+00  0.18249809542E-01 0.  0.
         14    1    1    2    0    0  0.15696025373E-01 -0.89456446934E-02  0.15065459115E-01  0.23523559038E-01  0.00000000000E+00 0.  1.
     999901    1    3    3    0    0  0.99289319398E-01  0.41043208548E-01 -0.66749775719E-01  0.88904355713E+00  0.88000000000E+00 0.  1.
        -11    1    4    4    0    0 -0.83443822784E-01 -0.21631196543E-01  0.45781050415E-01  0.97606075235E-01  0.51100000000E-03 0. -1.
         11    1    4    4    0    0 -0.31541521987E-01 -0.10466367312E-01  0.59032661897E-02  0.33756808598E-01  0.51100000000E-03 0.  1.
</event>
<event>
 8    1  0.1088088E+005  0.1043930E+01  0.7957747E-01            NaN
         13   -1    0    0    0    0  0.00000000000E+00  0.00000000000E+00  0.74505805969E-08  0.10566000000E+00  0.10566000000E+00 0.  1.
     999900   -1    0    0    0    0 -0.00000000000E+00 -0.00000000000E+00 -0.74505805969E-08  0.93827000000E+00  0.93827000000E+00 0.  1.
     999902    2    1    2    0    0 -0.18912190295E-01  0.71858834055E-02  0.10498351288E-01  0.10211369475E+01  0.10208825311E+01 0.  0.
     999903    2    3    3    0    0 -0.16417360652E-01 -0.73234840128E-01  0.10693100077E+00  0.13222020628E+00  0.20373327794E-01 0.  0.
         14    1    1    2    0    0  0.18912190295E-01 -0.71858834055E-02 -0.10498351288E-01  0.22793052490E-01  0.00000000000E+00 0.  1.
     999901    1    3    3    0    0 -0.24948296431E-02  0.80420723533E-01 -0.96432649477E-01  0.88891674123E+00  0.88000000000E+00 0.  1.
        -11    1    4    4    0    0  0.40496857446E-02 -0.90303221281E-02  0.19068599997E-01  0.21489981368E-01  0.51100000000E-03 0. -1.
         11    1    4    4    0    0 -0.20467046396E-01 -0.64204518000E-01  0.87862400768E-01  0.11073022491E+00  0.51100000000E-03 0.  1.
</event>
<event>
 8    1  0.1088088E+005  0.1043930E+01  0.7957747E-01            NaN
         13   -1    0    0    0    0  0.00000000000E+00  0.00000000000E+00  0.74505805969E-08  0.10566000000E+00  0.10566000000E+00 0. -1.
     999900   -1    0    0    0    0 -0.00000000000E+00 -0.00000000000E+00 -0.74505805969E-08  0.93827000000E+00  0.93827000000E+00 0. -1.
     999902    2    1    2    0    0  0.19741089820E-01 -0.26944907680E-02  0.12911610607E-01  0.10201880414E+01  0.10199117409E+01 0.  0.
     999903    2    3    3    0    0  0.16880894922E-01 -0.93280096728E-01  0.88943114237E-01  0.13227209820E+00  0.24472215517E-01 0.  0.
         14    1    1    2    0    0 -0.19741089820E-01  0.26944907680E-02 -0.12911610607E-01  0.23741958560E-01  0.00000000000E+00 0.  1.
     999901    1    3    3    0    0  0.28601948985E-02  0.90585605960E-01 -0.76031503630E-01  0.88791594324E+00  0.88000000000E+00 0.  1.
        -11    1    4    4    0    0  0.10091461050E-01 -0.49292980558E-01  0.63440879816E-01  0.80973093502E-01  0.51100000000E-03 0.  1.
         11    1    4    4    0    0  0.67894338715E-02 -0.43987116170E-01  0.25502234421E-01  0.51299004695E-01  0.51100000000E-03 0. -1.
</event>
<event>
 8    1  0.1088088E+005  0.1043930E+01  0.7957747E-01            NaN
         13   -1    0    0    0    0  0.00000000000E+00  0.00000000000E+00  0.74505805969E-08  0.10566000000E+00  0.10566000000E+00 0. -1.
     999900   -1    0    0    0    0 -0.00000000000E+00 -0.00000000000E+00 -0.74505805969E-08  0.93827000000E+00  0.93827000000E+00 0. -1.
     999902    2    1    2    0    0 -0.90302455597E-02  0.95577638702E-02  0.19635462398E-01  0.10202985047E+01  0.10200247993E+01 0.  0.
     999903    2    3    3    0    0  0.45628944595E-01  0.20764061397E-01 -0.11353202069E+00  0.12853239934E+00  0.33435177992E-01 0.  0.
         14    1    1    2    0    0  0.90302455597E-02 -0.95577638702E-02 -0.19635462398E-01  0.23631495269E-01  0.00000000000E+00 0.  1.
     999901    1    3    3    0    0 -0.54659190155E-01 -0.11206297526E-01  0.13316748309E+00  0.89176610539E+00  0.88000000000E+00 0.  1.
        -11    1    4    4    0    0  0.25159409531E-01  0.26960787759E-01 -0.55064680506E-01  0.66274128623E-01  0.51100000000E-03 0.  1.
         11    1    4    4    0    0  0.20469535064E-01 -0.61967263620E-02 -0.58467340185E-01  0.62258270717E-01  0.51100000000E-03 0. -1.
</event>
<event>
 8    1  0.1088088E+005  0.1043930E+01  0.7957747E-01            NaN
         13   -1    0    0    0    0  0.00000000000E+00  0.00000000000E+00  0.74505805969E-08  0.10566000000E+00  0.10566000000E+00 0. -1.
     999900   -1    0    0    0    0 -0.00000000000E+00 -0.00000000000E+00 -0.74505805969E-08  0.93827000000E+00  0.93827000000E+00 0. -1.
     999902    2    1    2    0    0 -0.25689708902E-01  0.30981159366E-03  0.72239834830E-02  0.10172421177E+01  0.10168919721E+01 0.  0.
     999903    2    3    3    0    0 -0.90255001353E-01  0.81778188209E-01  0.42111260205E-01  0.13043723751E+00  0.20171201162E-01 0.  0.
         14    1    1    2    0    0  0.25689708902E-01 -0.30981159366E-03 -0.72239834830E-02  0.26687882345E-01  0.00000000000E+00 0.  1.
     999901    1    3    3    0    0  0.64565292451E-01 -0.81468376615E-01 -0.34887276722E-01  0.88680488015E+00  0.88000000000E+00 0. -1.
        -11    1    4    4    0    0 -0.76203339117E-01  0.61352167393E-01  0.39485674062E-01  0.10550079106E+00  0.51100000000E-03 0.  1.
         11    1    4    4    0    0 -0.14051662236E-01  0.20426020816E-01  0.26255861430E-02  0.24936446451E-01  0.51100000000E-03 0. -1.
</event>
<event>
 8    1  0.1088088E+005  0.1043930E+01  0.7957747E-01            NaN
         13   -1    0    0    0    0  0.00000000000E+00  0.00000000000E+00  0.74505805969E-08  0.10566000000E+00  0.10566000000E+00 0.  1.
     999900   -1    0    0    0    0 -0.00000000000E+00 -0.00000000000E+00 -0.74505805969E-08  0.93827000000E+00  0.93827000000E+00 0. -1.
     999902    2    1    2    0    0 -0.78952015466E-02  0.22409149634E-01  0.77630995975E-03  0.10201580238E+01  0.10198810159E+01 0.  0.
     999903    2    3    3    0    0  0.10570763766E+00  0.65709608450E-01  0.35359618889E-01  0.13112678698E+00  0.21262039223E-01 0.  0.
         14    1    1    2    0    0  0.78952015466E-02 -0.22409149634E-01 -0.77630995975E-03  0.23771976189E-01  0.00000000000E+00 0.  1.
     999901    1    3    3    0    0 -0.11360283921E+00 -0.43300458816E-01 -0.34583308930E-01  0.88903123683E+00  0.88000000000E+00 0. -1.
        -11    1    4    4    0    0  0.86317473833E-01  0.62474512661E-01  0.28513942748E-01  0.11030447440E+00  0.51100000000E-03 0.  1.
         11    1    4    4    0    0  0.19390163831E-01  0.32350957891E-02  0.68456761411E-02  0.20822312575E-01  0.51100000000E-03 0. -1.
</event>
<event>
 8    1  0.1101708E+005  0.1043930E+01  0.7957747E-01            NaN
         13   -1    0    0    0    0  0.00000000000E+00  0.00000000000E+00  0.74505805969E-08  0.10566000000E+00  0.10566000000E+00 0. -1.
     999900   -1    0    0    0    0 -0.00000000000E+00 -0.00000000000E+00 -0.74505805969E-08  0.93827000000E+00  0.93827000000E+00 0. -1.
     999902    2    1    2    0    0  0.73546630796E-02 -0.21391127924E-01  0.57945577715E-02  0.10205794471E+01  0.10203122853E+01 0.  0.
     999903    2    3    3    0    0  0.12603742911E+00  0.22013630297E-01 -0.26030990900E-01  0.13098266338E+00  0.10431306907E-01 0.  0.
         14    1    1    2    0    0 -0.73546630796E-02  0.21391127924E-01 -0.57945577715E-02  0.23350552941E-01  0.00000000000E+00 0. -1.
     999901    1    3    3    0    0 -0.11868276603E+00 -0.43404758221E-01  0.31825548671E-01  0.88959678368E+00  0.88000000000E+00 0.  1.
        -11    1    4    4    0    0  0.24728615293E-01  0.40607939540E-02 -0.95863878355E-03  0.25083352471E-01  0.51100000000E-03 0.  1.
         11    1    4    4    0    0  0.10130881381E+00  0.17952836343E-01 -0.25072352116E-01  0.10589931091E+00  0.51100000000E-03 0. -1.
</event>
<event>
 8    1  0.1088088E+005  0.1043930E+01  0.7957747E-01            NaN
         13   -1    0    0    0    0  0.00000000000E+00  0.00000000000E+00  0.74505805969E-08  0.10566000000E+00  0.10566000000E+00 0.  1.
     999900   -1    0    0    0    0 -0.00000000000E+00 -0.00000000000E+00 -0.74505805969E-08  0.93827000000E+00  0.93827000000E+00 0. -1.
     999902    2    1    2    0    0 -0.94202299743E-02  0.10989715120E-01  0.16638612970E-01  0.10218764739E+01  0.10216384732E+01 0.  0.
     999903    2    3    3    0    0  0.48399096797E-01 -0.10250606236E+00  0.63589348805E-01  0.13146716486E+00  0.19749550984E-01 0.  0.
         14    1    1    2    0    0  0.94202299743E-02 -0.10989715120E-01 -0.16638612970E-01  0.22053526084E-01  0.00000000000E+00 0. -1.
     999901    1    3    3    0    0 -0.57819326771E-01  0.11349577748E+00 -0.46950735835E-01  0.89040930905E+00  0.88000000000E+00 0. -1.
        -11    1    4    4    0    0  0.15367862534E-01 -0.33799465907E-01  0.31726118991E-01  0.48840381260E-01  0.51100000000E-03 0.  1.
         11    1    4    4    0    0  0.33031234263E-01 -0.68706596454E-01  0.31863229814E-01  0.82626783602E-01  0.51100000000E-03 0. -1.
</event>
<event>
 8    1  0.1088088E+005  0.1043930E+01  0.7957747E-01            NaN
         13   -1    0    0    0    0  0.00000000000E+00  0.00000000000E+00  0.74505805969E-08  0.10566000000E+00  0.10566000000E+00 0.  1.
     999900   -1    0    0    0    0 -0.00000000000E+00 -0.00000000000E+00 -0.74505805969E-08  0.93827000000E+00  0.93827000000E+00 0. -1.
     999902    2    1    2    0    0  0.19994860707E-01  0.10586766597E-01  0.55731228377E-02  0.10206290605E+01  0.10203630459E+01 0.  0.
     999903    2    3    3    0    0 -0.98138416684E-01 -0.48748116735E-01  0.64813807316E-01  0.12878515138E+00  0.19423127507E-01 0.  0.
         14    1    1    2    0    0 -0.19994860707E-01 -0.10586766597E-01 -0.55731228377E-02  0.23300939463E-01  0.00000000000E+00 0.  1.
     999901    1    3    3    0    0  0.11813327739E+00  0.59334883332E-01 -0.59240684478E-01  0.89184390916E+00  0.88000000000E+00 0.  1.
        -11    1    4    4    0    0 -0.90960351414E-01 -0.44793046089E-01  0.53031732011E-01  0.11442389710E+00  0.51100000000E-03 0. -1.
         11    1    4    4    0    0 -0.71780652701E-02 -0.39550706460E-02  0.11782075305E-01  0.14361254274E-01  0.51100000000E-03 0.  1.
</event>
<event>
 8    1  0.1088088E+005  0.1043930E+01  0.7957747E-01            NaN
         13   -1    0    0    0    0  0.00000000000E+00  0.00000000000E+00  0.74505805969E-08  0.10566000000E+00  0.10566000000E+00 0.  1.
     999900   -1    0    0    0    0 -0.00000000000E+00 -0.00000000000E+00 -0.74505805969E-08  0.93827000000E+00  0.93827000000E+00 0. -1.
     999902    2    1    2    0    0  0.83620498600E-02 -0.15316875535E-01  0.17564086342E-01  0.10191706041E+01  0.10188698114E+01 0.  0.
     999903    2    3    3    0    0  0.11757617996E+00 -0.23359386159E-01  0.50756442923E-01  0.13176193801E+00  0.20375789442E-01 0.  0.
         14    1    1    2    0    0 -0.83620498600E-02  0.15316875535E-01 -0.17564086342E-01  0.24759395853E-01  0.00000000000E+00 0. -1.
     999901    1    3    3    0    0 -0.10921413010E+00  0.80425106245E-02 -0.33192356581E-01  0.88740866613E+00  0.88000000000E+00 0.  1.
        -11    1    4    4    0    0  0.83009289626E-01 -0.68786692510E-02  0.34835261615E-01  0.90286293686E-01  0.51100000000E-03 0. -1.
         11    1    4    4    0    0  0.34566890335E-01 -0.16480716908E-01  0.15921181308E-01  0.41475644329E-01  0.51100000000E-03 0.  1.
</event>
<event>
 8    1  0.1088088E+005  0.1043930E+01  0.7957747E-01            NaN
         13   -1    0    0    0    0  0.00000000000E+00  0.00000000000E+00  0.74505805969E-08  0.10566000000E+00  0.10566000000E+00 0.  1.
     999900   -1    0    0    0    0 -0.00000000000E+00 -0.00000000000E+00 -0.74505805969E-08  0.93827000000E+00  0.93827000000E+00 0.  1.
     999902    2    1    2    0    0 -0.19111754289E-02 -0.78995020896E-02  0.21583206046E-01  0.10208672702E+01  0.10206067283E+01 0.  0.
     999903    2    3    3    0    0 -0.12799699376E+00  0.19368179627E-01  0.10823909668E-01  0.13139724676E+00  0.19741394159E-01 0.  0.
         14    1    1    2    0    0  0.19111754289E-02  0.78995020896E-02 -0.21583206046E-01  0.23062729847E-01  0.00000000000E+00 0. -1.
     999901    1    3    3    0    0  0.12608581833E+00 -0.27267681716E-01  0.10759296378E-01  0.88947002339E+00  0.88000000000E+00 0. -1.
        -11    1    4    4    0    0 -0.72940518109E-01  0.18901946538E-02  0.97983995837E-02  0.73621747963E-01  0.51100000000E-03 0. -1.
         11    1    4    4    0    0 -0.55056475649E-01  0.17477984973E-01  0.10255100838E-02  0.57775498800E-01  0.51100000000E-03 0.  1.
</event>
<event>
 8    1  0.1088088E+005  0.1043930E+01  0.7957747E-01            NaN
         13   -1    0    0    0    0  0.00000000000E+00  0.00000000000E+00  0.74505805969E-08  0.10566000000E+00  0.10566000000E+00 0.  1.
     999900   -1    0    0    0    0 -0.00000000000E+00 -0.00000000000E+00 -0.74505805969E-08  0.93827000000E+00  0.93827000000E+00 0.  1.
     999902    2    1    2    0    0 -0.41163646421E-02 -0.24885560623E-01  0.56623781146E-02  0.10180785375E+01  0.10177502692E+01 0.  0.
     999903    2    3    3    0    0 -0.19922804305E-01  0.12226140249E+00  0.95710425207E-02  0.12571238514E+00  0.19163252684E-01 0.  0.
         14    1    1    2    0    0  0.41163646421E-02  0.24885560623E-01 -0.56623781146E-02  0.25851462459E-01  0.00000000000E+00 0. -1.
     999901    1    3    3    0    0  0.15806439663E-01 -0.14714696311E+00 -0.39086644061E-02  0.89236615240E+00  0.88000000000E+00 0.  1.
        -11    1    4    4    0    0 -0.17230167877E-01  0.92682198834E-01 -0.72025753775E-03  0.94274326079E-01  0.51100000000E-03 0.  1.
         11    1    4    4    0    0 -0.26926364278E-02  0.29579203656E-01  0.10291300058E-01  0.31438059064E-01  0.51100000000E-03 0. -1.
</event>
<event>
 8    1  0.1088088E+005  0.1043930E+01  0.7957747E-01            NaN
         13   -1    0    0    0    0  0.00000000000E+00  0.00000000000E+00  0.74505805969E-08  0.10566000000E+00  0.10566000000E+00 0. -1.
     999900   -1    0    0    0    0 -0.00000000000E+00 -0.00000000000E+00 -0.74505805969E-08  0.93827000000E+00  0.93827000000E+00 0. -1.
     999902    2    1    2    0    0 -0.15478148697E-01  0.18739190139E-01 -0.28062097682E-02  0.10194635914E+01  0.10191699609E+01 0.  0.
     999903    2    3    3    0    0 -0.28108457175E-01  0.12228001235E+00  0.37805536516E-01  0.13237309973E+00  0.18732115659E-01 0.  0.
         14    1    1    2    0    0  0.15478148697E-01 -0.18739190139E-01  0.28062097682E-02  0.24466408552E-01  0.00000000000E+00 0. -1.
     999901    1    3    3    0    0  0.12630308478E-01 -0.10354082221E+00 -0.40611746284E-01  0.88709049172E+00  0.88000000000E+00 0. -1.
        -11    1    4    4    0    0 -0.16528870730E-01  0.41780605782E-01  0.19643300240E-01  0.49040217704E-01  0.51100000000E-03 0. -1.
         11    1    4    4    0    0 -0.11579586445E-01  0.80499406566E-01  0.18162236276E-01  0.83332882029E-01  0.51100000000E-03 0.  1.
</event>
<event>
 8    1  0.1088088E+005  0.1043930E+01  0.7957747E-01            NaN
         13   -1    0    0    0    0  0.00000000000E+00  0.00000000000E+00  0.74505805969E-08  0.10566000000E+00  0.10566000000E+00 0. -1.
     999900   -1    0    0    0    0 -0.00000000000E+00 -0.00000000000E+00 -0.74505805969E-08  0.93827000000E+00  0.93827000000E+00 0.  1.
     999902    2    1    2    0    0 -0.19192236391E-01 -0.90858402508E-02 -0.87990814224E-02  0.10209448251E+01  0.10206860524E+01 0.  0.
     999903    2    3    3    0    0  0.12257670735E+00  0.28324054410E-01 -0.18655869512E-01  0.12875925591E+00  0.20089879834E-01 0.  0.
         14    1    1    2    0    0  0.19192236391E-01  0.90858402508E-02  0.87990814224E-02  0.22985174888E-01  0.00000000000E+00 0. -1.
     999901    1    3    3    0    0 -0.14176894374E+00 -0.37409894661E-01  0.98567880895E-02  0.89218556921E+00  0.88000000000E+00 0. -1.
        -11    1    4    4    0    0  0.11019972564E+00  0.18849949855E-01 -0.16039080035E-01  0.11294606390E+00  0.51100000000E-03 0. -1.
         11    1    4    4    0    0  0.12376981709E-01  0.94741045555E-02 -0.26167894767E-02  0.15813192009E-01  0.51100000000E-03 0.  1.
</event>
<event>
 8    1  0.1088088E+005  0.1043930E+01  0.7957747E-01            NaN
         13   -1    0    0    0    0  0.00000000000E+00  0.00000000000E+00  0.74505805969E-08  0.10566000000E+00  0.10566000000E+00 0. -1.
     999900   -1    0    0    0    0 -0.00000000000E+00 -0.00000000000E+00 -0.74505805969E-08  0.93827000000E+00  0.93827000000E+00 0.  1.
     999902    2    1    2    0    0  0.13741085285E-01  0.38278447192E-02  0.17940585077E-01  0.10210098252E+01  0.10207525306E+01 0.  0.
     999903    2    3    3    0    0 -0.83857092905E-01 -0.68036064285E-01  0.71725374488E-01  0.13107576619E+00  0.19375475849E-01 0.  0.
         14    1    1    2    0    0 -0.13741085285E-01 -0.38278447192E-02 -0.17940585077E-01  0.22920174801E-01  0.00000000000E+00 0.  1.
     999901    1    3    3    0    0  0.97598178190E-01  0.71863909004E-01 -0.53784789410E-01  0.88993405900E+00  0.88000000000E+00 0.  1.
        -11    1    4    4    0    0 -0.15566587543E-01 -0.40838510413E-02  0.91904153724E-02  0.18539723373E-01  0.51100000000E-03 0.  1.
         11    1    4    4    0    0 -0.68290505362E-01 -0.63952213243E-01  0.62534959115E-01  0.11253604282E+00  0.51100000000E-03 0. -1.
</event>
<event>
 8    1  0.1088088E+005  0.1043930E+01  0.7957747E-01            NaN
         13   -1    0    0    0    0  0.00000000000E+00  0.00000000000E+00  0.74505805969E-08  0.10566000000E+00  0.10566000000E+00 0. -1.
     999900   -1    0    0    0    0 -0.00000000000E+00 -0.00000000000E+00 -0.74505805969E-08  0.93827000000E+00  0.93827000000E+00 0.  1.
     999902    2    1    2    0    0  0.10843708223E-01  0.13219055634E-01  0.51396243600E-02  0.10260765640E+01  0.10259212299E+01 0.  0.
     999903    2    3    3    0    0 -0.50396721036E-01 -0.35376103594E-01  0.11884229539E+00  0.13532397369E+00  0.19944635473E-01 0.  0.
         14    1    1    2    0    0 -0.10843708223E-01 -0.13219055634E-01 -0.51396243600E-02  0.17853436040E-01  0.00000000000E+00 0. -1.
     999901    1    3    3    0    0  0.61240429259E-01  0.48595159228E-01 -0.11370267103E+00  0.89075259027E+00  0.88000000000E+00 0.  1.
        -11    1    4    4    0    0 -0.42991893183E-01 -0.35397397246E-01  0.92645212025E-01  0.10809567541E+00  0.51100000000E-03 0. -1.
         11    1    4    4    0    0 -0.74048278535E-02  0.21293652015E-04  0.26197083366E-01  0.27228298273E-01  0.51100000000E-03 0.  1.
</event>
<event>
 7    1  0.1349426E+005  0.1043930E+01  0.7957747E-01            NaN
         13   -1    0    0    0    0  0.00000000000E+00  0.00000000000E+00  0.74505805969E-08  0.10566000000E+00  0.10566000000E+00 0. -1.
     999900   -1    0    0    0    0 -0.00000000000E+00 -0.00000000000E+00 -0.74505805969E-08  0.93827000000E+00  0.93827000000E+00 0.  1.
     999903    2    1    2    0    0  0.71446340631E-01  0.36467800900E-01 -0.75048384752E-01  0.11046500586E+00  0.11652354858E-01 0.  0.
         14    1    1    2    0    0 -0.16085297363E-01 -0.10116647320E-01 -0.39589748773E-01  0.43913910691E-01  0.00000000000E+00 0.  1.
     999901    1    1    2    0    0 -0.55361043268E-01 -0.26351153580E-01  0.11463813353E+00  0.88955108345E+00  0.88000000000E+00 0. -1.
        -11    1    3    3    0    0  0.15598587852E-01  0.91859953770E-02 -0.23790048511E-01  0.29898595004E-01  0.51100000000E-03 0.  1.
         11    1    3    3    0    0  0.55847752779E-01  0.27281805523E-01 -0.51258336241E-01  0.80566410856E-01  0.51100000000E-03 0. -1.
</event>
<event>
 8    1  0.1088088E+005  0.1043930E+01  0.7957747E-01            NaN
         13   -1    0    0    0    0  0.00000000000E+00  0.00000000000E+00  0.74505805969E-08  0.10566000000E+00  0.10566000000E+00 0.  1.
     999900   -1    0    0    0    0 -0.00000000000E+00 -0.00000000000E+00 -0.74505805969E-08  0.93827000000E+00  0.93827000000E+00 0.  1.
     999902    2    1    2    0    0  0.13864155691E-01  0.12395250249E-01 -0.11837051008E-01  0.10218852088E+01  0.10216473987E+01 0.  0.
     999903    2    3    3    0    0 -0.38826758501E-01  0.95616052006E-01 -0.82407499584E-01  0.13358220730E+00  0.20081422847E-01 0.  0.
         14    1    1    2    0    0 -0.13864155691E-01 -0.12395250249E-01  0.11837051008E-01  0.22044791184E-01  0.00000000000E+00 0.  1.
     999901    1    3    3    0    0  0.52690914192E-01 -0.83220801757E-01  0.70570448575E-01  0.88830300151E+00  0.88000000000E+00 0. -1.
        -11    1    4    4    0    0 -0.18403212920E-01  0.60346603985E-01 -0.39686014736E-01  0.74536110342E-01  0.51100000000E-03 0. -1.
         11    1    4    4    0    0 -0.20423545581E-01  0.35269448022E-01 -0.42721484848E-01  0.59046096962E-01  0.51100000000E-03 0.  1.
</event>
<event>
 8    1  0.1088088E+005  0.1043930E+01  0.7957747E-01            NaN
         13   -1    0    0    0    0  0.00000000000E+00  0.00000000000E+00  0.74505805969E-08  0.10566000000E+00  0.10566000000E+00 0. -1.
     999900   -1    0    0    0    0 -0.00000000000E+00 -0.00000000000E+00 -0.74505805969E-08  0.93827000000E+00  0.93827000000E+00 0. -1.
     999902    2    1    2    0    0  0.18274745861E-01  0.97049634001E-02  0.11065004334E-01  0.10204654103E+01  0.10201956021E+01 0.  0.
     999903    2    3    3    0    0 -0.11158868848E+00  0.34552528871E-01  0.52733085222E-01  0.12961292973E+00  0.19308563611E-01 0.  0.
         14    1    1    2    0    0 -0.18274745861E-01 -0.97049634001E-02 -0.11065004334E-01  0.23464589742E-01  0.00000000000E+00 0.  1.
     999901    1    3    3    0    0  0.12986343434E+00 -0.24847565471E-01 -0.41668080888E-01  0.89085248052E+00  0.88000000000E+00 0.  1.
        -11    1    4    4    0    0 -0.44043769501E-01  0.55916985024E-02  0.14108814363E-01  0.46587986517E-01  0.51100000000E-03 0.  1.
         11    1    4    4    0    0 -0.67544918981E-01  0.28960830369E-01  0.38624270859E-01  0.83024943217E-01  0.51100000000E-03 0. -1.
</event>
<event>
 8    1  0.1088088E+005  0.1043930E+01  0.7957747E-01            NaN
         13   -1    0    0    0    0  0.00000000000E+00  0.00000000000E+00  0.74505805969E-08  0.10566000000E+00  0.10566000000E+00 0.  1.
     999900   -1    0    0    0    0 -0.00000000000E+00 -0.00000000000E+00 -0.74505805969E-08  0.93827000000E+00  0.93827000000E+00 0.  1.
     999902    2    1    2    0    0 -0.17077376489E-01 -0.50875481229E-02  0.15365227142E-01  0.10204010787E+01  0.10201297718E+01 0.  0.
     999903    2    3    3    0    0 -0.69256733756E-01  0.10564619163E+00 -0.27835920662E-01  0.13087818093E+00  0.19915993234E-01 0.  0.
         14    1    1    2    0    0  0.17077376489E-01  0.50875481229E-02 -0.15365227142E-01  0.23528921326E-01  0.00000000000E+00 0. -1.
     999901    1    3    3    0    0  0.52179357267E-01 -0.11073373976E+00  0.43201147804E-01  0.88952289775E+00  0.88000000000E+00 0. -1.
        -11    1    4    4    0    0 -0.15709925167E-01  0.41179034642E-01 -0.94583938434E-02  0.45080339150E-01  0.51100000000E-03 0.  1.
         11    1    4    4    0    0 -0.53546808589E-01  0.64467156991E-01 -0.18377526818E-01  0.85797841776E-01  0.51100000000E-03 0. -1.
</event>
<event>
 8    1  0.1088088E+005  0.1043930E+01  0.7957747E-01            NaN
         13   -1    0    0    0    0  0.00000000000E+00  0.00000000000E+00  0.74505805969E-08  0.10566000000E+00  0.10566000000E+00 0.  1.
     999900   -1    0    0    0    0 -0.00000000000E+00 -0.00000000000E+00 -0.74505805969E-08  0.93827000000E+00  0.93827000000E+00 0.  1.
     999902    2    1    2    0    0 -0.29749582270E-02 -0.22273005852E-01  0.92895202614E-02  0.10196147300E+01  0.10193247595E+01 0.  0.
     999903    2    3    3    0    0 -0.59940011325E-01 -0.11518885058E+00  0.19341155864E-01  0.13283437006E+00  0.20238905726E-01 0.  0.
         14    1    1    2    0    0  0.29749582270E-02  0.22273005852E-01 -0.92895202614E-02  0.24315269952E-01  0.00000000000E+00 0. -1.
     999901    1    3    3    0    0  0.56965053098E-01  0.92915844725E-01 -0.10051635603E-01  0.88678035998E+00  0.88000000000E+00 0.  1.
        -11    1    4    4    0    0 -0.43532226465E-01 -0.84647156347E-01  0.50176798664E-02  0.95318592368E-01  0.51100000000E-03 0.  1.
         11    1    4    4    0    0 -0.16407784860E-01 -0.30541694230E-01  0.14323475998E-01  0.37515777696E-01  0.51100000000E-03 0. -1.
</event>
<event>
 8    1  0.1088088E+005  0.1043930E+01  0.7957747E-01            NaN
         13   -1    0    0    0    0  0.00000000000E+00  0.00000000000E+00  0.74505805969E-08  0.10566000000E+00  0.10566000000E+00 0.  1.
     999900   -1    0    0    0    0 -0.00000000000E+00 -0.00000000000E+00 -0.74505805969E-08  0.93827000000E+00  0.93827000000E+00 0. -1.
     999902    2    1    2    0    0 -0.15394802784E-01  0.43320121094E-02  0.17210391026E-01  0.10204360893E+01  0.10201655985E+01 0.  0.
     999903    2    3    3    0    0 -0.22566432792E-01 -0.22006300762E-01 -0.12340341911E+00  0.12885469501E+00  0.19534774539E-01 0.  0.
         14    1    1    2    0    0  0.15394802784E-01 -0.43320121094E-02 -0.17210391026E-01  0.23493910720E-01  0.00000000000E+00 0. -1.
     999901    1    3    3    0    0  0.71716300083E-02  0.26338312871E-01  0.14061381014E+00  0.89158139427E+00  0.88000000000E+00 0.  1.
        -11    1    4    4    0    0 -0.51589170759E-03 -0.13227506571E-01 -0.48733052541E-01  0.50501530723E-01  0.51100000000E-03 0. -1.
         11    1    4    4    0    0 -0.22050541085E-01 -0.87787941908E-02 -0.74670366570E-01  0.78353164290E-01  0.51100000000E-03 0.  1.
</event>
<event>
 8    1  0.1088088E+005  0.1043930E+01  0.7957747E-01            NaN
         13   -1    0    0    0    0  0.00000000000E+00  0.00000000000E+00  0.74505805969E-08  0.10566000000E+00  0.10566000000E+00 0. -1.
     999900   -1    0    0    0    0 -0.00000000000E+00 -0.00000000000E+00 -0.74505805969E-08  0.93827000000E+00  0.93827000000E+00 0. -1.
     999902    2    1    2    0    0  0.42742169054E-02  0.13726295651E-02  0.25828259016E-01  0.10177145083E+01  0.10173768075E+01 0.  0.
     999903    2    3    3    0    0  0.63672346179E-02 -0.12629685599E+00 -0.25474412770E-02  0.12804655976E+00  0.19949799483E-01 0.  0.
         14    1    1    2    0    0 -0.42742169054E-02 -0.13726295651E-02 -0.25828259016E-01  0.26215491715E-01  0.00000000000E+00 0.  1.
     999901    1    3    3    0    0 -0.20930177125E-02  0.12766948556E+00  0.28375700293E-01  0.88966794852E+00  0.88000000000E+00 0. -1.
        -11    1    4    4    0    0  0.11420942975E-01 -0.73677688273E-01  0.46033368277E-02  0.74701348840E-01  0.51100000000E-03 0. -1.
         11    1    4    4    0    0 -0.50537083573E-02 -0.52619167718E-01 -0.71507781047E-02  0.53345210919E-01  0.51100000000E-03 0.  1.
</event>
<event>
 8    1  0.1088088E+005  0.1043930E+01  0.7957747E-01            NaN
         13   -1    0    0    0    0  0.00000000000E+00  0.00000000000E+00  0.74505805969E-08  0.10566000000E+00  0.10566000000E+00 0. -1.
     999900   -1    0    0    0    0 -0.00000000000E+00 -0.00000000000E+00 -0.74505805969E-08  0.93827000000E+00  0.93827000000E+00 0. -1.
     999902    2    1    2    0    0  0.47595464196E-02  0.15302573347E-01 -0.16371357500E-01  0.10210205395E+01  0.10207634881E+01 0.  0.
     999903    2    3    3    0    0  0.55470266756E-01 -0.10549585861E+00  0.45442700219E-01  0.12917704649E+00  0.20379981821E-01 0.  0.
         14    1    1    2    0    0 -0.47595464196E-02 -0.15302573347E-01  0.16371357500E-01  0.22909460481E-01  0.00000000000E+00 0. -1.
     999901    1    3    3    0    0 -0.50710720336E-01  0.12079843196E+00 -0.61814057719E-01  0.89184349303E+00  0.88000000000E+00 0. -1.
        -11    1    4    4    0    0  0.18543378449E-01 -0.57090166716E-01  0.21872403063E-01  0.63889022192E-01  0.51100000000E-03 0.  1.
         11    1    4    4    0    0  0.36926888307E-01 -0.48405691897E-01  0.23570297156E-01  0.65288024300E-01  0.51100000000E-03 0. -1.
</event>
<event>
 8    1  0.1088088E+005  0.1043930E+01  0.7957747E-01            NaN
         13   -1    0    0    0    0  0.00000000000E+00  0.00000000000E+00  0.74505805969E-08  0.10566000000E+00  0.10566000000E+00 0. -1.
     999900   -1    0    0    0    0 -0.00000000000E+00 -0.00000000000E+00 -0.74505805969E-08  0.93827000000E+00  0.93827000000E+00 0. -1.
     999902    2    1    2    0    0  0.41349197719E-02  0.23499688240E-01 -0.13297357187E-02  0.10200322782E+01  0.10197522971E+01 0.  0.
     999903    2    3    3    0    0 -0.12459685184E+00 -0.44487930041E-02 -0.29932272276E-01  0.12976765929E+00  0.19988427350E-01 0.  0.
         14    1    1    2    0    0 -0.41349197719E-02 -0.23499688240E-01  0.13297357187E-02  0.23897721774E-01  0.00000000000E+00 0. -1.
     999901    1    3    3    0    0  0.12873177161E+00  0.27948481244E-01  0.28602536557E-01  0.89026461893E+00  0.88000000000E+00 0. -1.
        -11    1    4    4    0    0 -0.39499859043E-01  0.74447787607E-02 -0.12441769679E-01  0.42079951865E-01  0.51100000000E-03 0.  1.
         11    1    4    4    0    0 -0.85096992795E-01 -0.11893571765E-01 -0.17490502596E-01  0.87687707429E-01  0.51100000000E-03 0. -1.
</event>
<event>
 8    1  0.1088088E+005  0.1043930E+01  0.7957747E-01            NaN
         13   -1    0    0    0    0  0.00000000000E+00  0.00000000000E+00  0.74505805969E-08  0.10566000000E+00  0.10566000000E+00 0.  1.
     999900   -1    0    0    0    0 -0.00000000000E+00 -0.00000000000E+00 -0.74505805969E-08  0.93827000000E+00  0.93827000000E+00 0.  1.
     999902    2    1    2    0    0 -0.12111259107E-01 -0.22034121722E-01  0.13951158908E-02  0.10187480329E+01  0.10184367546E+01 0.  0.
     999903    2    3    3    0    0 -0.76376232824E-01  0.10052614550E+00  0.26856451720E-02  0.12793229922E+00  0.20509159536E-01 0.  0.
         14    1    1    2    0    0  0.12111259107E-01  0.22034121722E-01 -0.13951158908E-02  0.25181967071E-01  0.00000000000E+00 0. -1.
     999901    1    3    3    0    0  0.64264973717E-01 -0.12256026722E+00 -0.12905292813E-02  0.89081573370E+00  0.88000000000E+00 0. -1.
        -11    1    4    4    0    0 -0.59766740879E-01  0.90527912457E-01  0.33059253988E-02  0.10852905838E+00  0.51100000000E-03 0.  1.
         11    1    4    4    0    0 -0.16609491945E-01  0.99982330460E-02 -0.62028022678E-03  0.19403240845E-01  0.51100000000E-03 0. -1.
</event>
<event>
 8    1  0.1088088E+005  0.1043930E+01  0.7957747E-01            NaN
         13   -1    0    0    0    0  0.00000000000E+00  0.00000000000E+00  0.74505805969E-08  0.10566000000E+00  0.10566000000E+00 0. -1.
     999900   -1    0    0    0    0 -0.00000000000E+00 -0.00000000000E+00 -0.74505805969E-08  0.93827000000E+00  0.93827000000E+00 0.  1.
     999902    2    1    2    0    0  0.22817494524E-01 -0.17135828192E-02 -0.86948741778E-03  0.10210317374E+01  0.10207749401E+01 0.  0.
     999903    2    3    3    0    0  0.67614011701E-01 -0.11226657774E+00 -0.10736147652E-01  0.13292924126E+00  0.19480227409E-01 0.  0.
         14    1    1    2    0    0 -0.22817494524E-01  0.17135828192E-02  0.86948741778E-03  0.22898262615E-01  0.00000000000E+00 0. -1.
     999901    1    3    3    0    0 -0.44796517177E-01  0.11055299492E+00  0.98666602346E-02  0.88810249612E+00  0.88000000000E+00 0. -1.
        -11    1    4    4    0    0  0.40608712290E-01 -0.68171315524E-01  0.30595975790E-02  0.79410440324E-01  0.51100000000E-03 0.  1.
         11    1    4    4    0    0  0.27005299411E-01 -0.44095262217E-01 -0.13795745231E-01  0.53518800937E-01  0.51100000000E-03 0. -1.
</event>
<event>
 8    1  0.1088088E+005  0.1043930E+01  0.7957747E-01            NaN
         13   -1    0    0    0    0  0.00000000000E+00  0.00000000000E+00  0.74505805969E-08  0.10566000000E+00  0.10566000000E+00 0. -1.
     999900   -1    0    0    0    0 -0.00000000000E+00 -0.00000000000E+00 -0.74505805969E-08  0.93827000000E+00  0.93827000000E+00 0. -1.
     999902    2    1    2    0    0  0.90686414451E-02  0.20119668528E-01 -0.87089697704E-02  0.10202047503E+01  0.10199288431E+01 0.  0.
     999903    2    3    3    0    0 -0.10599005004E+00  0.74317751622E-01 -0.41652950055E-02  0.13104976960E+00  0.19991836238E-01 0.  0.
         14    1    1    2    0    0 -0.90686414451E-02 -0.20119668528E-01  0.87089697704E-02  0.23725249710E-01  0.00000000000E+00 0. -1.
     999901    1    3    3    0    0  0.11505869149E+00 -0.54198083095E-01 -0.45436747649E-02  0.88915498069E+00  0.88000000000E+00 0. -1.
        -11    1    4    4    0    0 -0.74171229185E-01  0.55375602706E-01  0.56533826017E-02  0.92736457069E-01  0.51100000000E-03 0. -1.
         11    1    4    4    0    0 -0.31818820860E-01  0.18942148916E-01 -0.98186776072E-02  0.38313312535E-01  0.51100000000E-03 0.  1.
</event>
<event>
 8    1  0.1088088E+005  0.1043930E+01  0.7957747E-01            NaN
         13   -1    0    0    0    0  0.00000000000E+00  0.00000000000E+00  0.74505805969E-08  0.10566000000E+00  0.10566000000E+00 0.  1.
     999900   -1    0    0    0    0 -0.00000000000E+00 -0.00000000000E+00 -0.74505805969E-08  0.93827000000E+00  0.93827000000E+00 0. -1.
     999902    2    1    2    0    0  0.16160981286E-01 -0.14895227276E-01 -0.10395033333E-01  0.10196174142E+01  0.10193275084E+01 0.  0.
     999903    2    3    3    0    0  0.38364703828E-01  0.11131936311E+00  0.47313863802E-01  0.12846454012E+00  0.20017124114E-01 0.  0.
         14    1    1    2    0    0 -0.16160981286E-01  0.14895227276E-01  0.10395033333E-01  0.24312585830E-01  0.00000000000E+00 0.  1.
     999901    1    3    3    0    0 -0.22203722542E-01 -0.12621459038E+00 -0.57708897135E-01  0.89115287405E+00  0.88000000000E+00 0. -1.
        -11    1    4    4    0    0  0.94301283106E-02  0.53562019509E-01  0.27156404854E-01  0.60791024826E-01  0.51100000000E-03 0.  1.
         11    1    4    4    0    0  0.28934575517E-01  0.57757343599E-01  0.20157458948E-01  0.67673515294E-01  0.51100000000E-03 0. -1.
</event>
<event>
 8    1  0.1088088E+005  0.1043930E+01  0.7957747E-01            NaN
         13   -1    0    0    0    0  0.00000000000E+00  0.00000000000E+00  0.74505805969E-08  0.10566000000E+00  0.10566000000E+00 0. -1.
     999900   -1    0    0    0    0 -0.00000000000E+00 -0.00000000000E+00 -0.74505805969E-08  0.93827000000E+00  0.93827000000E+00 0. -1.
     999902    2    1    2    0    0  0.39962189059E-02 -0.12575799289E-01  0.18198086021E-01  0.10214513250E+01  0.10212039554E+01 0.  0.
     999903    2    3    3    0    0  0.76139358157E-01  0.10249893481E+00 -0.16091284737E-01  0.13037187408E+00  0.20848563693E-01 0.  0.
         14    1    1    2    0    0 -0.39962189059E-02  0.12575799289E-01 -0.18198086021E-01  0.22478674964E-01  0.00000000000E+00 0.  1.
     999901    1    3    3    0    0 -0.72143139251E-01 -0.11507473410E+00  0.34289370758E-01  0.89107945096E+00  0.88000000000E+00 0. -1.
        -11    1    4    4    0    0  0.35540913829E-01  0.65109372281E-01 -0.93676111500E-02  0.74768978690E-01  0.51100000000E-03 0.  1.
         11    1    4    4    0    0  0.40598444328E-01  0.37389562532E-01 -0.67236735872E-02  0.55602895389E-01  0.51100000000E-03 0. -1.
</event>
<event>
 8    1  0.1088088E+005  0.1043930E+01  0.7957747E-01            NaN
         13   -1    0    0    0    0  0.00000000000E+00  0.00000000000E+00  0.74505805969E-08  0.10566000000E+00  0.10566000000E+00 0. -1.
     999900   -1    0    0    0    0 -0.00000000000E+00 -0.00000000000E+00 -0.74505805969E-08  0.93827000000E+00  0.93827000000E+00 0.  1.
     999902    2    1    2    0    0 -0.19120640641E-01 -0.16519147827E-01 -0.86294262266E-02  0.10172289113E+01  0.10168784144E+01 0.  0.
     999903    2    3    3    0    0 -0.51877736181E-01  0.41612054064E-01  0.10662558943E+00  0.12720869655E+00  0.19752812512E-01 0.  0.
         14    1    1    2    0    0  0.19120640641E-01  0.16519147827E-01  0.86294262266E-02  0.26701088750E-01  0.00000000000E+00 0.  1.
     999901    1    3    3    0    0  0.32757095541E-01 -0.58131201891E-01 -0.11525501566E+00  0.89002021470E+00  0.88000000000E+00 0.  1.
        -11    1    4    4    0    0 -0.41262745583E-01  0.28624679681E-01  0.92581664845E-01  0.10532621823E+00  0.51100000000E-03 0. -1.
         11    1    4    4    0    0 -0.10614990598E-01  0.12987374382E-01  0.14043924584E-01  0.21882478321E-01  0.51100000000E-03 0.  1.
</event>
<event>
 8    1  0.1088088E+005  0.1043930E+01  0.7957747E-01            NaN
         13   -1    0    0    0    0  0.00000000000E+00  0.00000000000E+00  0.74505805969E-08  0.10566000000E+00  0.10566000000E+00 0.  1.
     999900   -1    0    0    0    0 -0.00000000000E+00 -0.00000000000E+00 -0.74505805969E-08  0.93827000000E+00  0.93827000000E+00 0.  1.
     999902    2    1    2    0    0  0.20687975710E-01 -0.11306994243E-01 -0.10081600847E-01  0.10182886441E+01  0.10179657575E+01 0.  0.
     999903    2    3    3    0    0 -0.51668128978E-01 -0.11172346516E+00 -0.33878145270E-01  0.12930880795E+00  0.20525858486E-01 0.  0.
         14    1    1    2    0    0 -0.20687975710E-01  0.11306994243E-01  0.10081600847E-01  0.25641355920E-01  0.00000000000E+00 0.  1.
     999901    1    3    3    0    0  0.72356104688E-01  0.10041647092E+00  0.23796544422E-01  0.88897983613E+00  0.88000000000E+00 0. -1.
        -11    1    4    4    0    0 -0.25368700792E-01 -0.42478904976E-01 -0.22545187305E-01  0.54374395992E-01  0.51100000000E-03 0.  1.
         11    1    4    4    0    0 -0.26299428186E-01 -0.69244560187E-01 -0.11332957964E-01  0.74934411959E-01  0.51100000000E-03 0. -1.
</event>
<event>
 8    1  0.1088088E+005  0.1043930E+01  0.7957747E-01            NaN
         13   -1    0    0    0    0  0.00000000000E+00  0.00000000000E+00  0.74505805969E-08  0.10566000000E+00  0.10566000000E+00 0. -1.
     999900   -1    0    0    0    0 -0.00000000000E+00 -0.00000000000E+00 -0.74505805969E-08  0.93827000000E+00  0.93827000000E+00 0. -1.
     999902    2    1    2    0    0  0.13440454141E-01  0.47589928812E-02  0.11248318742E-01  0.10257690943E+01  0.10256083153E+01 0.  0.
     999903    2    3    3    0    0 -0.10477574652E+00 -0.11685184354E-01  0.82022385881E-01  0.13489623602E+00  0.18836722502E-01 0.  0.
         14    1    1    2    0    0 -0.13440454141E-01 -0.47589928812E-02 -0.11248318742E-01  0.18160905684E-01  0.00000000000E+00 0.  1.
     999901    1    3    3    0    0  0.11821620066E+00  0.16444177235E-01 -0.70774067138E-01  0.89087285829E+00  0.88000000000E+00 0. -1.
        -11    1    4    4    0    0 -0.76857447806E-01 -0.13892744013E-01  0.51971903503E-01  0.93815859503E-01  0.51100000000E-03 0.  1.
         11    1    4    4    0    0 -0.27918298717E-01  0.22075596590E-02  0.30050482377E-01  0.41080376520E-01  0.51100000000E-03 0. -1.
</event>
<event>
 8    1  0.1088088E+005  0.1043930E+01  0.7957747E-01            NaN
         13   -1    0    0    0    0  0.00000000000E+00  0.00000000000E+00  0.74505805969E-08  0.10566000000E+00  0.10566000000E+00 0.  1.
     999900   -1    0    0    0    0 -0.00000000000E+00 -0.00000000000E+00 -0.74505805969E-08  0.93827000000E+00  0.93827000000E+00 0. -1.
     999902    2    1    2    0    0 -0.23321994794E-01 -0.28972057963E-02  0.47986545414E-02  0.10199438305E+01  0.10196617483E+01 0.  0.
     999903    2    3    3    0    0  0.10523633363E+00 -0.69702824246E-01  0.97364119691E-02  0.12808363073E+00  0.19428049792E-01 0.  0.
         14    1    1    2    0    0  0.23321994794E-01  0.28972057963E-02 -0.47986545414E-02  0.23986169515E-01  0.00000000000E+00 0.  1.
     999901    1    3    3    0    0 -0.12855832842E+00  0.66805618450E-01 -0.49377574277E-02  0.89186019976E+00  0.88000000000E+00 0.  1.
        -11    1    4    4    0    0  0.10023000053E+00 -0.64273273230E-01  0.13405948955E-01  0.11982106345E+00  0.51100000000E-03 0.  1.
         11    1    4    4    0    0  0.50063331032E-02 -0.54295510164E-02 -0.36695369859E-02  0.82625672809E-02  0.51100000000E-03 0. -1.
</event>
<event>
 8    1  0.1088088E+005  0.1043930E+01  0.7957747E-01            NaN
         13   -1    0    0    0    0  0.00000000000E+00  0.00000000000E+00  0.74505805969E-08  0.10566000000E+00  0.10566000000E+00 0.  1.
     999900   -1    0    0    0    0 -0.00000000000E+00 -0.00000000000E+00 -0.74505805969E-08  0.93827000000E+00  0.93827000000E+00 0.  1.
     999902    2    1    2    0    0  0.16651282885E-02  0.33889962710E-03  0.24037847506E-01  0.10198321657E+01  0.10195474195E+01 0.  0.
     999903    2    3    3    0    0  0.82419550123E-01  0.72783665069E-01 -0.64130053236E-01  0.12879731823E+00  0.19637752206E-01 0.  0.
         14    1    1    2    0    0 -0.16651282885E-02 -0.33889962710E-03 -0.24037847506E-01  0.24097834299E-01  0.00000000000E+00 0. -1.
     999901    1    3    3    0    0 -0.80754421835E-01 -0.72444765442E-01  0.88167900743E-01  0.89103484747E+00  0.88000000000E+00 0. -1.
        -11    1    4    4    0    0  0.35933398906E-01  0.32463121613E-01 -0.17149164085E-01  0.51375270040E-01  0.51100000000E-03 0.  1.
         11    1    4    4    0    0  0.46486151218E-01  0.40320543456E-01 -0.46980889151E-01  0.77422048190E-01  0.51100000000E-03 0. -1.
</event>
<event>
 8    1  0.1088088E+005  0.1043930E+01  0.7957747E-01            NaN
         13   -1    0    0    0    0  0.00000000000E+00  0.00000000000E+00  0.74505805969E-08  0.10566000000E+00  0.10566000000E+00 0.  1.
     999900   -1    0    0    0    0 -0.00000000000E+00 -0.00000000000E+00 -0.74505805969E-08  0.93827000000E+00  0.93827000000E+00 0.  1.
     999902    2    1    2    0    0 -0.15701806858E-01 -0.18876258097E-02  0.17502181262E-01  0.10203410997E+01  0.10200683916E+01 0.  0.
     999903    2    3    3    0    0 -0.90905743204E-01 -0.80498405008E-01  0.50440371180E-01  0.13303043761E+00  0.20224216432E-01 0.  0.
         14    1    1    2    0    0  0.15701806858E-01  0.18876258097E-02 -0.17502181262E-01  0.23588900329E-01  0.00000000000E+00 0. -1.
     999901    1    3    3    0    0  0.75203936346E-01  0.78610779198E-01 -0.32938189918E-01  0.88731066206E+00  0.88000000000E+00 0.  1.
        -11    1    4    4    0    0 -0.62632873765E-01 -0.57613879086E-01  0.25204862259E-01  0.88756870956E-01  0.51100000000E-03 0. -1.
         11    1    4    4    0    0 -0.28272869440E-01 -0.22884525921E-01  0.25235508921E-01  0.44273566656E-01  0.51100000000E-03 0.  1.
</event>
<event>
 8    1  0.1088088E+005  0.1043930E+01  0.7957747E-01            NaN
         13   -1    0    0    0    0  0.00000000000E+00  0.00000000000E+00  0.74505805969E-08  0.10566000000E+00  0.10566000000E+00 0. -1.
     999900   -1    0    0    0    0 -0.00000000000E+00 -0.00000000000E+00 -0.74505805969E-08  0.93827000000E+00  0.93827000000E+00 0.  1.
     999902    2    1    2    0    0 -0.21043962345E-01 -0.88657609420E-02  0.60104244462E-02  0.10203169682E+01  0.10200436953E+01 0.  0.
     999903    2    3    3    0    0 -0.10851277924E-01  0.63357887199E-01  0.11223496191E+00  0.13093302495E+00  0.20366596303E-01 0.  0.
         14    1    1    2    0    0  0.21043962345E-01  0.88657609420E-02 -0.60104244462E-02  0.23613031789E-01  0.00000000000E+00 0. -1.
     999901    1    3    3    0    0 -0.10192684421E-01 -0.72223648141E-01 -0.10622453746E+00  0.88938394326E+00  0.88000000000E+00 0.  1.
        -11    1    4    4    0    0 -0.16258493978E-01  0.45528568700E-01  0.87415050491E-01  0.99894150817E-01  0.51100000000E-03 0.  1.
         11    1    4    4    0    0  0.54072160542E-02  0.17829318500E-01  0.24819911420E-01  0.31038874135E-01  0.51100000000E-03 0. -1.
</event>
<event>
 8    1  0.1088088E+005  0.1043930E+01  0.7957747E-01            NaN
         13   -1    0    0    0    0  0.00000000000E+00  0.00000000000E+00  0.74505805969E-08  0.10566000000E+00  0.10566000000E+00 0.  1.
     999900   -1    0    0    0    0 -0.00000000000E+00 -0.00000000000E+00 -0.74505805969E-08  0.93827000000E+00  0.93827000000E+00 0.  1.
     999902    2    1    2    0    0 -0.10207586574E-02 -0.51958852838E-02 -0.23151932116E-01  0.10201802393E+01  0.10199037550E+01 0.  0.
     999903    2    3    3    0    0 -0.20670091953E-01  0.11415669722E+00 -0.58100567214E-01  0.13121874276E+00  0.19587708363E-01 0.  0.
         14    1    1    2    0    0  0.10207586574E-02  0.51958852838E-02  0.23151932116E-01  0.23749760690E-01  0.00000000000E+00 0.  1.
     999901    1    3    3    0    0  0.19649333295E-01 -0.11935258251E+00  0.34948635098E-01  0.88896149655E+00  0.88000000000E+00 0. -1.
        -11    1    4    4    0    0 -0.67773344483E-02  0.82852670388E-01 -0.37037039759E-01  0.91008245163E-01  0.51100000000E-03 0.  1.
         11    1    4    4    0    0 -0.13892757505E-01  0.31304026836E-01 -0.21063527455E-01  0.40210497598E-01  0.51100000000E-03 0. -1.
</event>
<event>
 8    1  0.1088088E+005  0.1043930E+01  0.7957747E-01            NaN
         13   -1    0    0    0    0  0.00000000000E+00  0.00000000000E+00  0.74505805969E-08  0.10566000000E+00  0.10566000000E+00 0.  1.
     999900   -1    0    0    0    0 -0.00000000000E+00 -0.00000000000E+00 -0.74505805969E-08  0.93827000000E+00  0.93827000000E+00 0.  1.
     999902    2    1    2    0    0  0.20559986499E-01  0.67108224532E-02 -0.64551354903E-02  0.10213597329E+01  0.10211103207E+01 0.  0.
     999903    2    3    3    0    0 -0.10467588996E+00 -0.68968315572E-01 -0.23984887779E-01  0.12910492125E+00  0.19471398468E-01 0.  0.
         14    1    1    2    0    0 -0.20559986499E-01 -0.67108224532E-02  0.64551354903E-02  0.22570267102E-01  0.00000000000E+00 0.  1.
     999901    1    3    3    0    0  0.12523587646E+00  0.75679138025E-01  0.17529752289E-01  0.89225481164E+00  0.88000000000E+00 0.  1.
        -11    1    4    4    0    0 -0.13902240849E-01 -0.22984355112E-02 -0.85056106849E-03  0.14125851534E-01  0.51100000000E-03 0. -1.
         11    1    4    4    0    0 -0.90773649113E-01 -0.66669880061E-01 -0.23134326711E-01  0.11497906972E+00  0.51100000000E-03 0.  1.
</event>
<event>
 8    1  0.1088088E+005  0.1043930E+01  0.7957747E-01            NaN
         13   -1    0    0    0    0  0.00000000000E+00  0.00000000000E+00  0.74505805969E-08  0.10566000000E+00  0.10566000000E+00 0.  1.
     999900   -1    0    0    0    0 -0.00000000000E+00 -0.00000000000E+00 -0.74505805969E-08  0.93827000000E+00  0.93827000000E+00 0.  1.
     999902    2    1    2    0    0 -0.28223267093E-02 -0.20182939467E-01 -0.93872412857E-02  0.10214926010E+01  0.10212461491E+01 0.  0.
     999903    2    3    3    0    0 -0.55569312527E-01 -0.76258176864E-01  0.90823461913E-01  0.13246568254E+00  0.19874551165E-01 0.  0.
         14    1    1    2    0    0  0.28223267093E-02  0.20182939467E-01  0.93872412857E-02  0.22437398970E-01  0.00000000000E+00 0.  1.
     999901    1    3    3    0    0  0.52746985817E-01  0.56075237397E-01 -0.10021070320E+00  0.88902691849E+00  0.88000000000E+00 0.  1.
        -11    1    4    4    0    0 -0.29106660670E-01 -0.55655179875E-01  0.61710415624E-01  0.88051878229E-01  0.51100000000E-03 0. -1.
         11    1    4    4    0    0 -0.26462651857E-01 -0.20602996989E-01  0.29113046289E-01  0.44413804312E-01  0.51100000000E-03 0.  1.
</event>
<event>
 8    1  0.1088088E+005  0.1043930E+01  0.7957747E-01            NaN
         13   -1    0    0    0    0  0.00000000000E+00  0.00000000000E+00  0.74505805969E-08  0.10566000000E+00  0.10566000000E+00 0. -1.
     999900   -1    0    0    0    0 -0.00000000000E+00 -0.00000000000E+00 -0.74505805969E-08  0.93827000000E+00  0.93827000000E+00 0. -1.
     999902    2    1    2    0    0  0.15794732567E-01  0.90329549400E-02 -0.42142320691E-02  0.10252530730E+01  0.10250829410E+01 0.  0.
     999903    2    3    3    0    0  0.45547352589E-01 -0.12154588118E+00 -0.29909834123E-01  0.13474966768E+00  0.20369393771E-01 0.  0.
         14    1    1    2    0    0 -0.15794732567E-01 -0.90329549400E-02  0.42142320691E-02  0.18676927042E-01  0.00000000000E+00 0.  1.
     999901    1    3    3    0    0 -0.29752620023E-01  0.13057883612E+00  0.25695602054E-01  0.89050340528E+00  0.88000000000E+00 0. -1.
        -11    1    4    4    0    0  0.18300928070E-01 -0.76671145779E-01 -0.15948641128E-01  0.80423931998E-01  0.51100000000E-03 0.  1.
         11    1    4    4    0    0  0.27246424520E-01 -0.44874735405E-01 -0.13961192995E-01  0.54325735684E-01  0.51100000000E-03 0. -1.
</event>
<event>
 8    1  0.1088088E+005  0.1043930E+01  0.7957747E-01            NaN
         13   -1    0    0    0    0  0.00000000000E+00  0.00000000000E+00  0.74505805969E-08  0.10566000000E+00  0.10566000000E+00 0.  1.
     999900   -1    0    0    0    0 -0.00000000000E+00 -0.00000000000E+00 -0.74505805969E-08  0.93827000000E+00  0.93827000000E+00 0.  1.
     999902    2    1    2    0    0 -0.20335389387E-01 -0.46399500432E-02 -0.10683792998E-01  0.10204949700E+01  0.10202258491E+01 0.  0.
     999903    2    3    3    0    0 -0.10423025936E+00  0.15169964758E-01  0.76042220409E-01  0.13204002836E+00  0.23623611270E-01 0.  0.
         14    1    1    2    0    0  0.20335389387E-01  0.46399500432E-02  0.10683792998E-01  0.23435029992E-01  0.00000000000E+00 0. -1.
     999901    1    3    3    0    0  0.83894869968E-01 -0.19809914801E-01 -0.86726013407E-01  0.88845494164E+00  0.88000000000E+00 0.  1.
        -11    1    4    4    0    0 -0.94575268280E-02 -0.40752296820E-02  0.26779172093E-02  0.10652918485E-01  0.51100000000E-03 0. -1.
         11    1    4    4    0    0 -0.94772732527E-01  0.19245194440E-01  0.73364303199E-01  0.12138710988E+00  0.51100000000E-03 0.  1.
</event>
<event>
 8    1  0.1088088E+005  0.1043930E+01  0.7957747E-01            NaN
         13   -1    0    0    0    0  0.00000000000E+00  0.00000000000E+00  0.74505805969E-08  0.10566000000E+00  0.10566000000E+00 0.  1.
     999900   -1    0    0    0    0 -0.00000000000E+00 -0.00000000000E+00 -0.74505805969E-08  0.93827000000E+00  0.93827000000E+00 0. -1.
     999902    2    1    2    0    0  0.20334155056E-01  0.72174590014E-02  0.90925467622E-02  0.10205153895E+01  0.10202467429E+01 0.  0.
     999903    2    3    3    0    0  0.12305543567E+00  0.43616471840E-01  0.22068312978E-01  0.13369809148E+00  0.18523832380E-01 0.  0.
         14    1    1    2    0    0 -0.20334155056E-01 -0.72174590014E-02 -0.90925467622E-02  0.23414610458E-01  0.00000000000E+00 0.  1.
     999901    1    3    3    0    0 -0.10272128061E+00 -0.36399012839E-01 -0.12975766216E-01  0.88681729806E+00  0.88000000000E+00 0.  1.
        -11    1    4    4    0    0  0.10852827056E+00  0.44278956918E-01  0.21238258107E-01  0.11912319785E+00  0.51100000000E-03 0.  1.
         11    1    4    4    0    0  0.14527165103E-01 -0.66248507777E-03  0.83005487116E-03  0.14574893636E-01  0.51100000000E-03 0. -1.
</event>
<event>
 8    1  0.1088088E+005  0.1043930E+01  0.7957747E-01            NaN
         13   -1    0    0    0    0  0.00000000000E+00  0.00000000000E+00  0.74505805969E-08  0.10566000000E+00  0.10566000000E+00 0. -1.
     999900   -1    0    0    0    0 -0.00000000000E+00 -0.00000000000E+00 -0.74505805969E-08  0.93827000000E+00  0.93827000000E+00 0. -1.
     999902    2    1    2    0    0 -0.79352445332E-02  0.93480543981E-02  0.20674813783E-01  0.10198924845E+01  0.10196091789E+01 0.  0.
     999903    2    3    3    0    0  0.76763305787E-01 -0.61514973630E-01 -0.79367274205E-01  0.12736582801E+00  0.15690533233E-01 0.  0.
         14    1    1    2    0    0  0.79352445332E-02 -0.93480543981E-02 -0.20674813783E-01  0.24037515508E-01  0.00000000000E+00 0.  1.
     999901    1    3    3    0    0 -0.84698550320E-01  0.70863028028E-01  0.10004208799E+00  0.89252665649E+00  0.88000000000E+00 0.  1.
        -11    1    4    4    0    0  0.35227072447E-01 -0.18995703196E-01 -0.28582927762E-01  0.49183617735E-01  0.51100000000E-03 0.  1.
         11    1    4    4    0    0  0.41536233340E-01 -0.42519270434E-01 -0.50784346443E-01  0.78182210272E-01  0.51100000000E-03 0. -1.
</event>
<event>
 8    1  0.1088088E+005  0.1043930E+01  0.7957747E-01            NaN
         13   -1    0    0    0    0  0.00000000000E+00  0.00000000000E+00  0.74505805969E-08  0.10566000000E+00  0.10566000000E+00 0.  1.
     999900   -1    0    0    0    0 -0.00000000000E+00 -0.00000000000E+00 -0.74505805969E-08  0.93827000000E+00  0.93827000000E+00 0. -1.
     999902    2    1    2    0    0  0.13663673934E-01  0.12036652398E-01 -0.15087701936E-01  0.10202822573E+01  0.10200081709E+01 0.  0.
     999903    2    3    3    0    0 -0.12489469567E+00 -0.17181827813E-01 -0.19428006727E-01  0.12895124153E+00  0.18896429138E-01 0.  0.
         14    1    1    2    0    0 -0.13663673934E-01 -0.12036652398E-01  0.15087701936E-01  0.23647742726E-01  0.00000000000E+00 0.  1.
     999901    1    3    3    0    0  0.13855836960E+00  0.29218480211E-01  0.43403047914E-02  0.89133101574E+00  0.88000000000E+00 0.  1.
        -11    1    4    4    0    0 -0.21415605203E-01 -0.93607923526E-02 -0.71804729565E-02  0.24455528875E-01  0.51100000000E-03 0.  1.
         11    1    4    4    0    0 -0.10347909047E+00 -0.78210354604E-02 -0.12247533771E-01  0.10449571266E+00  0.51100000000E-03 0. -1.
</event>
<event>
 8    1  0.1088088E+005  0.1043930E+01  0.7957747E-01            NaN
         13   -1    0    0    0    0  0.00000000000E+00  0.00000000000E+00  0.74505805969E-08  0.10566000000E+00  0.10566000000E+00 0.  1.
     999900   -1    0    0    0    0 -0.00000000000E+00 -0.00000000000E+00 -0.74505805969E-08  0.93827000000E+00  0.93827000000E+00 0. -1.
     999902    2    1    2    0    0  0.74850172449E-02 -0.26423538119E-02  0.22238813361E-01  0.10203170303E+01  0.10200437589E+01 0.  0.
     999903    2    3    3    0    0 -0.39202189526E-01  0.11782853664E+00  0.36730909571E-01  0.13076492305E+00  0.18163966274E-01 0.  0.
         14    1    1    2    0    0 -0.74850172449E-02  0.26423538119E-02 -0.22238813361E-01  0.23612969667E-01  0.00000000000E+00 0. -1.
     999901    1    3    3    0    0  0.46687206771E-01 -0.12047089045E+00 -0.14492096210E-01  0.88955210729E+00  0.88000000000E+00 0.  1.
        -11    1    4    4    0    0 -0.21719702498E-01  0.62309974565E-01  0.10113306139E-01  0.66759407494E-01  0.51100000000E-03 0. -1.
         11    1    4    4    0    0 -0.17482487028E-01  0.55518562078E-01  0.26617603431E-01  0.64005515553E-01  0.51100000000E-03 0.  1.
</event>
<event>
 8    1  0.1088088E+005  0.1043930E+01  0.7957747E-01            NaN
         13   -1    0    0    0    0  0.00000000000E+00  0.00000000000E+00  0.74505805969E-08  0.10566000000E+00  0.10566000000E+00 0.  1.
     999900   -1    0    0    0    0 -0.00000000000E+00 -0.00000000000E+00 -0.74505805969E-08  0.93827000000E+00  0.93827000000E+00 0.  1.
     999902    2    1    2    0    0  0.51788656838E-02  0.16642235759E-01 -0.17221967655E-01  0.10194273301E+01  0.10191328179E+01 0.  0.
     999903    2    3    3    0    0  0.11874647306E+00  0.99121711206E-02  0.47666420247E-01  0.12973446284E+00  0.18972802333E-01 0.  0.
         14    1    1    2    0    0 -0.51788656838E-02 -0.16642235759E-01  0.17221967655E-01  0.24502669870E-01  0.00000000000E+00 0.  1.
     999901    1    3    3    0    0 -0.11356760738E+00  0.67300646387E-02 -0.64888387903E-01  0.88969286729E+00  0.88000000000E+00 0.  1.
        -11    1    4    4    0    0  0.25830978326E-01  0.44518033621E-02  0.18879863885E-01  0.32307404349E-01  0.51100000000E-03 0.  1.
         11    1    4    4    0    0  0.92915494739E-01  0.54603677584E-02  0.28786556362E-01  0.97427058494E-01  0.51100000000E-03 0. -1.
</event>
<event>
 8    1  0.1088088E+005  0.1043930E+01  0.7957747E-01            NaN
         13   -1    0    0    0    0  0.00000000000E+00  0.00000000000E+00  0.74505805969E-08  0.10566000000E+00  0.10566000000E+00 0.  1.
     999900   -1    0    0    0    0 -0.00000000000E+00 -0.00000000000E+00 -0.74505805969E-08  0.93827000000E+00  0.93827000000E+00 0.  1.
     999902    2    1    2    0    0  0.13274327608E-01 -0.15558964737E-01 -0.11517622551E-01  0.10204577869E+01  0.10201878014E+01 0.  0.
     999903    2    3    3    0    0  0.10489636333E+00 -0.32221187506E-01  0.70255159735E-01  0.13177392018E+00  0.19675533215E-01 0.  0.
         14    1    1    2    0    0 -0.13274327608E-01  0.15558964737E-01  0.11517622551E-01  0.23472213069E-01  0.00000000000E+00 0.  1.
     999901    1    3    3    0    0 -0.91622035719E-01  0.16662222769E-01 -0.81772782287E-01  0.88868386675E+00  0.88000000000E+00 0.  1.
        -11    1    4    4    0    0  0.46116681107E-01 -0.22695470799E-01  0.38993545939E-01  0.64518140216E-01  0.51100000000E-03 0.  1.
         11    1    4    4    0    0  0.58779682220E-01 -0.95257167070E-02  0.31261613796E-01  0.67255779966E-01  0.51100000000E-03 0. -1.
</event>
<event>
 8    1  0.1088088E+005  0.1043930E+01  0.7957747E-01            NaN
         13   -1    0    0    0    0  0.00000000000E+00  0.00000000000E+00  0.74505805969E-08  0.10566000000E+00  0.10566000000E+00 0. -1.
     999900   -1    0    0    0    0 -0.00000000000E+00 -0.00000000000E+00 -0.74505805969E-08  0.93827000000E+00  0.93827000000E+00 0.  1.
     999902    2    1    2    0    0 -0.14095386630E-01 -0.11815195364E-01 -0.12350162011E-01  0.10217758747E+01  0.10215356738E+01 0.  0.
     999903    2    3    3    0    0  0.11940328465E+00  0.24988045772E-01 -0.43876819786E-01  0.13038914386E+00  0.13950150701E-01 0.  0.
         14    1    1    2    0    0  0.14095386630E-01  0.11815195364E-01  0.12350162011E-01  0.22154125291E-01  0.00000000000E+00 0. -1.
     999901    1    3    3    0    0 -0.13349867128E+00 -0.36803241136E-01  0.31526657774E-01  0.89138673085E+00  0.88000000000E+00 0. -1.
        -11    1    4    4    0    0  0.21545914312E-01  0.16833989771E-02 -0.12705591979E-01  0.25074956515E-01  0.51100000000E-03 0. -1.
         11    1    4    4    0    0  0.97857370336E-01  0.23304646795E-01 -0.31171227806E-01  0.10531418734E+00  0.51100000000E-03 0.  1.
</event>
<event>
 8    1  0.1088088E+005  0.1043930E+01  0.7957747E-01            NaN
         13   -1    0    0    0    0  0.00000000000E+00  0.00000000000E+00  0.74505805969E-08  0.10566000000E+00  0.10566000000E+00 0. -1.
     999900   -1    0    0    0    0 -0.00000000000E+00 -0.00000000000E+00 -0.74505805969E-08  0.93827000000E+00  0.93827000000E+00 0.  1.
     999902    2    1    2    0    0 -0.14748812804E-01 -0.11039271677E-01 -0.14459199857E-01  0.10205107460E+01  0.10202419915E+01 0.  0.
     999903    2    3    3    0    0  0.55057122541E-01 -0.41362991926E-01 -0.11083253398E+00  0.13198375362E+00  0.19841289975E-01 0.  0.
         14    1    1    2    0    0  0.14748812804E-01  0.11039271677E-01  0.14459199857E-01  0.23419254019E-01  0.00000000000E+00 0. -1.
     999901    1    3    3    0    0 -0.69805935345E-01  0.30323720249E-01  0.96373334125E-01  0.88852699236E+00  0.88000000000E+00 0. -1.
        -11    1    4    4    0    0  0.48921335680E-01 -0.31254045466E-01 -0.79120176328E-01  0.98134478477E-01  0.51100000000E-03 0. -1.
         11    1    4    4    0    0  0.61357868608E-02 -0.10108946460E-01 -0.31712357654E-01  0.33849275146E-01  0.51100000000E-03 0.  1.
</event>
<event>
 8    1  0.1088088E+005  0.1043930E+01  0.7957747E-01            NaN
         13   -1    0    0    0    0  0.00000000000E+00  0.00000000000E+00  0.74505805969E-08  0.10566000000E+00  0.10566000000E+00 0. -1.
     999900   -1    0    0    0    0 -0.00000000000E+00 -0.00000000000E+00 -0.74505805969E-08  0.93827000000E+00  0.93827000000E+00 0. -1.
     999902    2    1    2    0    0  0.12000821778E-01  0.13411271588E-01  0.15003588424E-01  0.10204994730E+01  0.10202304567E+01 0.  0.
     999903    2    3    3    0    0 -0.13790867204E-01  0.98950183912E-01 -0.81770405176E-01  0.13069762846E+00  0.20350528460E-01 0.  0.
         14    1    1    2    0    0 -0.12000821778E-01 -0.13411271588E-01 -0.15003588424E-01  0.23430526980E-01  0.00000000000E+00 0.  1.
     999901    1    3    3    0    0  0.25791688982E-01 -0.85538912323E-01  0.96773993600E-01  0.88980184456E+00  0.88000000000E+00 0.  1.
        -11    1    4    4    0    0 -0.15858325543E-01  0.86452296015E-01 -0.77882275159E-01  0.11743677397E+00  0.51100000000E-03 0.  1.
         11    1    4    4    0    0  0.20674583396E-02  0.12497887896E-01 -0.38881300171E-02  0.13260854493E-01  0.51100000000E-03 0. -1.
</event>
<event>
 7    1  0.1088088E+005  0.1043930E+01  0.7957747E-01            NaN
         13   -1    0    0    0    0  0.00000000000E+00  0.00000000000E+00  0.74505805969E-08  0.10566000000E+00  0.10566000000E+00 0. -1.
     999900   -1    0    0    0    0 -0.00000000000E+00 -0.00000000000E+00 -0.74505805969E-08  0.93827000000E+00  0.93827000000E+00 0. -1.
     999902    2    1    2    0    0  0.10574706381E-01  0.15504018960E-01  0.15685203979E-01  0.10194713687E+01  0.10191779271E+01 0.  0.
         14    1    1    2    0    0 -0.10574706381E-01 -0.15504018960E-01 -0.15685203979E-01  0.24458631254E-01  0.00000000000E+00 0.  1.
     999901    1    3    3    0    0  0.16363927535E-01  0.84134734737E-01 -0.87770831409E-01  0.88851007341E+00  0.88000000000E+00 0. -1.
        -11    1    3    3    0    0  0.17857793969E-01 -0.31718980030E-01  0.44553143670E-01  0.57534669821E-01  0.51100000000E-03 0. -1.
         11    1    3    3    0    0 -0.23647015123E-01 -0.36911735747E-01  0.58902891718E-01  0.73426625510E-01  0.51100000000E-03 0.  1.
</event>
<event>
 8    1  0.1088088E+005  0.1043930E+01  0.7957747E-01            NaN
         13   -1    0    0    0    0  0.00000000000E+00  0.00000000000E+00  0.74505805969E-08  0.10566000000E+00  0.10566000000E+00 0. -1.
     999900   -1    0    0    0    0 -0.00000000000E+00 -0.00000000000E+00 -0.74505805969E-08  0.93827000000E+00  0.93827000000E+00 0.  1.
     999902    2    1    2    0    0 -0.94257313769E-02 -0.15278935916E-01 -0.15486993452E-01  0.10202205660E+01  0.10199450309E+01 0.  0.
     999903    2    3    3    0    0 -0.72193158425E-01  0.60443913494E-01  0.85933871592E-01  0.12895186819E+00  0.19458551348E-01 0.  0.
         14    1    1    2    0    0  0.94257313769E-02  0.15278935916E-01  0.15486993452E-01  0.23709434006E-01  0.00000000000E+00 0. -1.
     999901    1    3    3    0    0  0.62767427048E-01 -0.75722849411E-01 -0.10142086504E+00  0.89126869781E+00  0.88000000000E+00 0. -1.
        -11    1    4    4    0    0 -0.22780300550E-01  0.27517269506E-01  0.41669005026E-01  0.54888152775E-01  0.51100000000E-03 0.  1.
         11    1    4    4    0    0 -0.49412857875E-01  0.32926643989E-01  0.44264866566E-01  0.74063715413E-01  0.51100000000E-03 0. -1.
</event>
<event>
 8    1  0.1088088E+005  0.1043930E+01  0.7957747E-01            NaN
         13   -1    0    0    0    0  0.00000000000E+00  0.00000000000E+00  0.74505805969E-08  0.10566000000E+00  0.10566000000E+00 0. -1.
     999900   -1    0    0    0    0 -0.00000000000E+00 -0.00000000000E+00 -0.74505805969E-08  0.93827000000E+00  0.93827000000E+00 0. -1.
     999902    2    1    2    0    0  0.11709055290E-01  0.12072522237E-01  0.16006282324E-01  0.10207125746E+01  0.10204484853E+01 0.  0.
     999903    2    3    3    0    0  0.40330440790E-01  0.13492633380E-01 -0.12091161819E+00  0.12966391604E+00  0.19609082019E-01 0.  0.
         14    1    1    2    0    0 -0.11709055290E-01 -0.12072522237E-01 -0.16006282324E-01  0.23217425413E-01  0.00000000000E+00 0. -1.
     999901    1    3    3    0    0 -0.28621385500E-01 -0.14201111421E-02  0.13691790052E+00  0.89104865855E+00  0.88000000000E+00 0.  1.
        -11    1    4    4    0    0  0.35155989037E-01  0.42601290151E-02 -0.81709106847E-01  0.89054654719E-01  0.51100000000E-03 0. -1.
         11    1    4    4    0    0  0.51744517532E-02  0.92325043644E-02 -0.39202511347E-01  0.40609261317E-01  0.51100000000E-03 0.  1.
</event>
<event>
 8    1  0.1088088E+005  0.1043930E+01  0.7957747E-01            NaN
         13   -1    0    0    0    0  0.00000000000E+00  0.00000000000E+00  0.74505805969E-08  0.10566000000E+00  0.10566000000E+00 0.  1.
     999900   -1    0    0    0    0 -0.00000000000E+00 -0.00000000000E+00 -0.74505805969E-08  0.93827000000E+00  0.93827000000E+00 0.  1.
     999902    2    1    2    0    0  0.47108279962E-02  0.16591265768E-01 -0.14399681141E-01  0.10214619601E+01  0.10212148271E+01 0.  0.
     999903    2    3    3    0    0  0.63781212365E-01  0.11590179234E+00 -0.33335808800E-02  0.13383909560E+00  0.20013051508E-01 0.  0.
         14    1    1    2    0    0 -0.47108279962E-02 -0.16591265768E-01  0.14399681141E-01  0.22468039905E-01  0.00000000000E+00 0.  1.
     999901    1    3    3    0    0 -0.59070384369E-01 -0.99310526575E-01 -0.11066100261E-01  0.88762286449E+00  0.88000000000E+00 0. -1.
        -11    1    4    4    0    0  0.63034887020E-01  0.11171305608E+00  0.22131055825E-03  0.12827125157E+00  0.51100000000E-03 0.  1.
         11    1    4    4    0    0  0.74632534523E-03  0.41887362667E-02 -0.35548914383E-02  0.55678440325E-02  0.51100000000E-03 0. -1.
</event>
<event>
 8    1  0.1088088E+005  0.1043930E+01  0.7957747E-01            NaN
         13   -1    0    0    0    0  0.00000000000E+00  0.00000000000E+00  0.74505805969E-08  0.10566000000E+00  0.10566000000E+00 0.  1.
     999900   -1    0    0    0    0 -0.00000000000E+00 -0.00000000000E+00 -0.74505805969E-08  0.93827000000E+00  0.93827000000E+00 0. -1.
     999902    2    1    2    0    0  0.85714339279E-02  0.67673417290E-02 -0.20970433519E-01  0.10202862804E+01  0.10200122884E+01 0.  0.
     999903    2    3    3    0    0 -0.99121121268E-01 -0.32811823650E-01  0.70900903470E-01  0.12809541556E+00  0.21906275862E-01 0.  0.
         14    1    1    2    0    0 -0.85714339279E-02 -0.67673417290E-02  0.20970433519E-01  0.23643719581E-01  0.00000000000E+00 0.  1.
     999901    1    3    3    0    0  0.10769255520E+00  0.39579165379E-01 -0.91871336989E-01  0.89219086486E+00  0.88000000000E+00 0.  1.
        -11    1    4    4    0    0 -0.77021158985E-01 -0.18271153601E-01  0.60634546047E-01  0.99714107731E-01  0.51100000000E-03 0.  1.
         11    1    4    4    0    0 -0.22099962283E-01 -0.14540670049E-01  0.10266357423E-01  0.28381307829E-01  0.51100000000E-03 0. -1.
</event>
<event>
 8    1  0.1088088E+005  0.1043930E+01  0.7957747E-01            NaN
         13   -1    0    0    0    0  0.00000000000E+00  0.00000000000E+00  0.74505805969E-08  0.10566000000E+00  0.10566000000E+00 0.  1.
     999900   -1    0    0    0    0 -0.00000000000E+00 -0.00000000000E+00 -0.74505805969E-08  0.93827000000E+00  0.93827000000E+00 0.  1.
     999902    2    1    2    0    0 -0.21385557287E-01 -0.11538139870E-01  0.61326135360E-02  0.10188684821E+01  0.10185602113E+01 0.  0.
     999903    2    3    3    0    0  0.12390849444E+00  0.15141831524E-01  0.19550878682E-02  0.12654587558E+00  0.20674772065E-01 0.  0.
         14    1    1    2    0    0  0.21385557287E-01  0.11538139870E-01 -0.61326135360E-02  0.25061517929E-01  0.00000000000E+00 0. -1.
     999901    1    3    3    0    0 -0.14529405173E+00 -0.26679971394E-01  0.41775256678E-02  0.89232260650E+00  0.88000000000E+00 0.  1.
        -11    1    4    4    0    0  0.36512205319E-01  0.98174620743E-02 -0.72577262781E-02  0.38502719522E-01  0.51100000000E-03 0.  1.
         11    1    4    4    0    0  0.87396289122E-01  0.53243694494E-02  0.92128141463E-02  0.88043156054E-01  0.51100000000E-03 0. -1.
</event>
<event>
 8    1  0.1088088E+005  0.1043930E+01  0.7957747E-01            NaN
         13   -1    0    0    0    0  0.00000000000E+00  0.00000000000E+00  0.74505805969E-08  0.10566000000E+00  0.10566000000E+00 0. -1.
     999900   -1    0    0    0    0 -0.00000000000E+00 -0.00000000000E+00 -0.74505805969E-08  0.93827000000E+00  0.93827000000E+00 0. -1.
     999902    2    1    2    0    0 -0.88855626464E-02 -0.11255252455E-01 -0.17938071102E-01  0.10209646277E+01  0.10207063058E+01 0.  0.
     999903    2    3    3    0    0  0.63411665332E-01 -0.11293642454E+00 -0.16695127603E-01  0.13216347171E+00  0.20317004733E-01 0.  0.
         14    1    1    2    0    0  0.88855626464E-02  0.11255252455E-01  0.17938071102E-01  0.22965372329E-01  0.00000000000E+00 0. -1.
     999901    1    3    3    0    0 -0.72297227979E-01  0.10168117208E+00 -0.12429434988E-02  0.88880115596E+00  0.88000000000E+00 0. -1.
        -11    1    4    4    0    0  0.10703666171E-01 -0.32697782134E-01 -0.10434412551E-01  0.35956244413E-01  0.51100000000E-03 0.  1.
         11    1    4    4    0    0  0.52707999161E-01 -0.80238642403E-01 -0.62607150522E-02  0.96207227297E-01  0.51100000000E-03 0. -1.
</event>
<event>
 8    1  0.1088088E+005  0.1043930E+01  0.7957747E-01            NaN
         13   -1    0    0    0    0  0.00000000000E+00  0.00000000000E+00  0.74505805969E-08  0.10566000000E+00  0.10566000000E+00 0.  1.
     999900   -1    0    0    0    0 -0.00000000000E+00 -0.00000000000E+00 -0.74505805969E-08  0.93827000000E+00  0.93827000000E+00 0.  1.
     999902    2    1    2    0    0  0.62809169930E-02  0.51402416946E-05  0.22353607265E-01  0.10207107472E+01  0.10204466158E+01 0.  0.
     999903    2    3    3    0    0 -0.24830612569E-01  0.10235383756E+00  0.77572414666E-01  0.13251465406E+00  0.21208173869E-01 0.  0.
         14    1    1    2    0    0 -0.62809169930E-02 -0.51402416946E-05 -0.22353607265E-01  0.23219252840E-01  0.00000000000E+00 0. -1.
     999901    1    3    3    0    0  0.31111529562E-01 -0.10234869732E+00 -0.55218807400E-01  0.88819609310E+00  0.88000000000E+00 0.  1.
        -11    1    4    4    0    0  0.18375405639E-03  0.11281597044E-01  0.16665746312E-01  0.20132471745E-01  0.51100000000E-03 0. -1.
         11    1    4    4    0    0 -0.25014366626E-01  0.91072240515E-01  0.60906668354E-01  0.11238218231E+00  0.51100000000E-03 0.  1.
</event>
<event>
 8    1  0.1088088E+005  0.1043930E+01  0.7957747E-01            NaN
         13   -1    0    0    0    0  0.00000000000E+00  0.00000000000E+00  0.74505805969E-08  0.10566000000E+00  0.10566000000E+00 0.  1.
     999900   -1    0    0    0    0 -0.00000000000E+00 -0.00000000000E+00 -0.74505805969E-08  0.93827000000E+00  0.93827000000E+00 0. -1.
     999902    2    1    2    0    0  0.13137058362E-01 -0.19364128169E-01  0.17673979488E-02  0.10204635248E+01  0.10201936728E+01 0.  0.
     999903    2    3    3    0    0  0.11440318026E+00  0.59875956732E-01  0.10002346225E-01  0.13108079906E+00  0.20221550450E-01 0.  0.
         14    1    1    2    0    0 -0.13137058362E-01  0.19364128169E-01 -0.17673979488E-02  0.23466475186E-01  0.00000000000E+00 0.  1.
     999901    1    3    3    0    0 -0.10126612190E+00 -0.79240084901E-01 -0.82349482758E-02  0.88938272576E+00  0.88000000000E+00 0.  1.
        -11    1    4    4    0    0  0.11444929098E+00  0.59618941044E-01  0.83340564845E-02  0.12931657262E+00  0.51100000000E-03 0.  1.
         11    1    4    4    0    0 -0.46110712305E-04  0.25701568869E-03  0.16682897402E-02  0.17642264365E-02  0.51100000000E-03 0. -1.
</event>
<event>
 8    1  0.1088088E+005  0.1043930E+01  0.7957747E-01            NaN
         13   -1    0    0    0    0  0.00000000000E+00  0.00000000000E+00  0.74505805969E-08  0.10566000000E+00  0.10566000000E+00 0. -1.
     999900   -1    0    0    0    0 -0.00000000000E+00 -0.00000000000E+00 -0.74505805969E-08  0.93827000000E+00  0.93827000000E+00 0. -1.
     999902    2    1    2    0    0  0.20648834617E-01 -0.82597805893E-02  0.82936177947E-02  0.10201943213E+01  0.10199181687E+01 0.  0.
     999903    2    3    3    0    0 -0.34532161553E-01  0.12402267934E-02  0.12444753174E+00  0.13079737720E+00  0.20658106923E-01 0.  0.
         14    1    1    2    0    0 -0.20648834617E-01  0.82597805893E-02 -0.82936177947E-02  0.23735678683E-01  0.00000000000E+00 0.  1.
     999901    1    3    3    0    0  0.55180996170E-01 -0.95000073827E-02 -0.11615391395E+00  0.88939694412E+00  0.88000000000E+00 0. -1.
        -11    1    4    4    0    0 -0.12689423533E-01  0.95139693163E-02  0.65361994827E-01  0.67260601919E-01  0.51100000000E-03 0. -1.
         11    1    4    4    0    0 -0.21842738020E-01 -0.82737425229E-02  0.59085536916E-01  0.63536775281E-01  0.51100000000E-03 0.  1.
</event>
<event>
 8    1  0.1088088E+005  0.1043930E+01  0.7957747E-01            NaN
         13   -1    0    0    0    0  0.00000000000E+00  0.00000000000E+00  0.74505805969E-08  0.10566000000E+00  0.10566000000E+00 0. -1.
     999900   -1    0    0    0    0 -0.00000000000E+00 -0.00000000000E+00 -0.74505805969E-08  0.93827000000E+00  0.93827000000E+00 0. -1.
     999902    2    1    2    0    0  0.13644622500E-01  0.17967207780E-01  0.73687866242E-02  0.10201961572E+01  0.10199200478E+01 0.  0.
     999903    2    3    3    0    0 -0.16910747769E-01  0.10126010604E+00 -0.78937439045E-01  0.13153418425E+00  0.23033451240E-01 0.  0.
         14    1    1    2    0    0 -0.13644622500E-01 -0.17967207780E-01 -0.73687866242E-02  0.23733842818E-01  0.00000000000E+00 0. -1.
     999901    1    3    3    0    0  0.30555370269E-01 -0.83292898264E-01  0.86306225670E-01  0.88866197294E+00  0.88000000000E+00 0.  1.
        -11    1    4    4    0    0 -0.13288823927E-01  0.57730809129E-01 -0.58673024495E-01  0.83379998132E-01  0.51100000000E-03 0.  1.
         11    1    4    4    0    0 -0.36219238417E-02  0.43529296915E-01 -0.20264414550E-01  0.48154186114E-01  0.51100000000E-03 0. -1.
</event>
<event>
 8    1  0.1088088E+005  0.1043930E+01  0.7957747E-01            NaN
         13   -1    0    0    0    0  0.00000000000E+00  0.00000000000E+00  0.74505805969E-08  0.10566000000E+00  0.10566000000E+00 0.  1.
     999900   -1    0    0    0    0 -0.00000000000E+00 -0.00000000000E+00 -0.74505805969E-08  0.93827000000E+00  0.93827000000E+00 0. -1.
     999902    2    1    2    0    0 -0.10135077916E-01  0.99096298564E-02 -0.19057138830E-01  0.10201793135E+01  0.10199028074E+01 0.  0.
     999903    2    3    3    0    0  0.54006735227E-01 -0.11398277112E+00  0.15509813250E-01  0.12851885494E+00  0.19176605665E-01 0.  0.
         14    1    1    2    0    0  0.10135077916E-01 -0.99096298564E-02  0.19057138830E-01  0.23750686487E-01  0.00000000000E+00 0.  1.
     999901    1    3    3    0    0 -0.64141813143E-01  0.12389240098E+00 -0.34566952079E-01  0.89166045858E+00  0.88000000000E+00 0. -1.
        -11    1    4    4    0    0  0.26685268896E-02 -0.22278124747E-01  0.15339188209E-02  0.22495553026E-01  0.51100000000E-03 0. -1.
         11    1    4    4    0    0  0.51338208337E-01 -0.91704646374E-01  0.13975894429E-01  0.10602330191E+00  0.51100000000E-03 0.  1.
</event>
<event>
 8    1  0.1088088E+005  0.1043930E+01  0.7957747E-01            NaN
         13   -1    0    0    0    0  0.00000000000E+00  0.00000000000E+00  0.74505805969E-08  0.10566000000E+00  0.10566000000E+00 0.  1.
     999900   -1    0    0    0    0 -0.00000000000E+00 -0.00000000000E+00 -0.74505805969E-08  0.93827000000E+00  0.93827000000E+00 0.  1.
     999902    2    1    2    0    0 -0.13603895549E-01  0.17837642445E-01 -0.82921623851E-02  0.10200133234E+01  0.10197328927E+01 0.  0.
     999903    2    3    3    0    0 -0.35990254679E-01 -0.12012308878E+00 -0.21880471973E-01  0.12887980109E+00  0.20159196057E-01 0.  0.
         14    1    1    2    0    0  0.13603895549E-01 -0.17837642445E-01  0.82921623851E-02  0.23916676590E-01  0.00000000000E+00 0.  1.
     999901    1    3    3    0    0  0.22386359130E-01  0.13796073123E+00  0.13588309588E-01  0.89113352232E+00  0.88000000000E+00 0. -1.
        -11    1    4    4    0    0 -0.19014876791E-01 -0.89092951050E-01 -0.21026008164E-01  0.93495848071E-01  0.51100000000E-03 0. -1.
         11    1    4    4    0    0 -0.16975377887E-01 -0.31030137734E-01 -0.85446380957E-03  0.35383953024E-01  0.51100000000E-03 0.  1.
</event>
<event>
 8    1  0.1184139E+005  0.1043930E+01  0.7957747E-01            NaN
         13   -1    0    0    0    0  0.00000000000E+00  0.00000000000E+00  0.74505805969E-08  0.10566000000E+00  0.10566000000E+00 0. -1.
     999900   -1    0    0    0    0 -0.00000000000E+00 -0.00000000000E+00 -0.74505805969E-08  0.93827000000E+00  0.93827000000E+00 0.  1.
     999902    2    1    2    0    0 -0.28595254757E-02  0.22847677340E-01 -0.11249065229E-02  0.10208766128E+01  0.10206162844E+01 0.  0.
     999903    2    3    3    0    0 -0.20902844770E-01 -0.34431066144E-01 -0.12252377360E+00  0.13051483200E+00  0.19990473707E-01 0.  0.
         14    1    1    2    0    0  0.28595254757E-02 -0.22847677340E-01  0.11249065229E-02  0.23053387180E-01  0.00000000000E+00 0. -1.
     999901    1    3    3    0    0  0.18043319294E-01  0.57278743484E-01  0.12139886707E+00  0.89036178082E+00  0.88000000000E+00 0. -1.
        -11    1    4    4    0    0 -0.20795529254E-01 -0.20325729598E-01 -0.63763903116E-01  0.70083420167E-01  0.51100000000E-03 0. -1.
         11    1    4    4    0    0 -0.10731551628E-03 -0.14105336546E-01 -0.58759870481E-01  0.60431411829E-01  0.51100000000E-03 0.  1.
</event>
<event>
 8    1  0.1088088E+005  0.1043930E+01  0.7957747E-01            NaN
         13   -1    0    0    0    0  0.00000000000E+00  0.00000000000E+00  0.74505805969E-08  0.10566000000E+00  0.10566000000E+00 0.  1.
     999900   -1    0    0    0    0 -0.00000000000E+00 -0.00000000000E+00 -0.74505805969E-08  0.93827000000E+00  0.93827000000E+00 0. -1.
     999902    2    1    2    0    0  0.99645733928E-02 -0.21364351392E-01  0.43791002279E-02  0.10199528285E+01  0.10196709605E+01 0.  0.
     999903    2    3    3    0    0  0.84392373963E-01  0.15122856714E-01 -0.96093094513E-01  0.13036557829E+00  0.20261480996E-01 0.  0.
         14    1    1    2    0    0 -0.99645733928E-02  0.21364351392E-01 -0.43791002279E-02  0.23977171479E-01  0.00000000000E+00 0.  1.
     999901    1    3    3    0    0 -0.74427800570E-01 -0.36487208106E-01  0.10047219474E+00  0.88958725023E+00  0.88000000000E+00 0.  1.
        -11    1    4    4    0    0  0.37591838986E-01  0.92972012694E-02 -0.29132077817E-01  0.48461566099E-01  0.51100000000E-03 0.  1.
         11    1    4    4    0    0  0.46800534977E-01  0.58256554445E-02 -0.66961016696E-01  0.81904012194E-01  0.51100000000E-03 0. -1.
</event>
<event>
 8    1  0.1088088E+005  0.1043930E+01  0.7957747E-01            NaN
         13   -1    0    0    0    0  0.00000000000E+00  0.00000000000E+00  0.74505805969E-08  0.10566000000E+00  0.10566000000E+00 0. -1.
     999900   -1    0    0    0    0 -0.00000000000E+00 -0.00000000000E+00 -0.74505805969E-08  0.93827000000E+00  0.93827000000E+00 0. -1.
     999902    2    1    2    0    0  0.13589639790E-02  0.30265391036E-01 -0.85728917866E-02  0.10124445248E+01  0.10119548313E+01 0.  0.
     999903    2    3    3    0    0 -0.32936496894E-01 -0.86105079319E-01 -0.76663884687E-01  0.12151543200E+00  0.19742124681E-01 0.  0.
         14    1    1    2    0    0 -0.13589639790E-02 -0.30265391036E-01  0.85728917866E-02  0.31485475242E-01  0.00000000000E+00 0.  1.
     999901    1    3    3    0    0  0.34295460873E-01  0.11637047035E+00  0.68090992900E-01  0.89092909276E+00  0.88000000000E+00 0.  1.
        -11    1    4    4    0    0 -0.25762132344E-01 -0.39962452005E-01 -0.40219689862E-01  0.62278163162E-01  0.51100000000E-03 0. -1.
         11    1    4    4    0    0 -0.71743645497E-02 -0.46142627313E-01 -0.36444194825E-01  0.59237268839E-01  0.51100000000E-03 0.  1.
</event>
<event>
 8    1  0.1088088E+005  0.1043930E+01  0.7957747E-01            NaN
         13   -1    0    0    0    0  0.00000000000E+00  0.00000000000E+00  0.74505805969E-08  0.10566000000E+00  0.10566000000E+00 0.  1.
     999900   -1    0    0    0    0 -0.00000000000E+00 -0.00000000000E+00 -0.74505805969E-08  0.93827000000E+00  0.93827000000E+00 0.  1.
     999902    2    1    2    0    0  0.11440048025E-01  0.69599533467E-02  0.19364706819E-01  0.10203862637E+01  0.10201146110E+01 0.  0.
     999903    2    3    3    0    0  0.70458905185E-02 -0.77774001139E-01 -0.10014557248E+00  0.12826415404E+00  0.18003269062E-01 0.  0.
         14    1    1    2    0    0 -0.11440048025E-01 -0.69599533467E-02 -0.19364706819E-01  0.23543736313E-01  0.00000000000E+00 0. -1.
     999901    1    3    3    0    0  0.43941575066E-02  0.84733954485E-01  0.11951027930E+00  0.89212210965E+00  0.88000000000E+00 0. -1.
        -11    1    4    4    0    0  0.52425621946E-02 -0.24635313980E-01 -0.45563631973E-01  0.52064275976E-01  0.51100000000E-03 0.  1.
         11    1    4    4    0    0  0.18033283239E-02 -0.53138687159E-01 -0.54581940511E-01  0.76199878064E-01  0.51100000000E-03 0. -1.
</event>
<event>
 8    1  0.1088088E+005  0.1043930E+01  0.7957747E-01            NaN
         13   -1    0    0    0    0  0.00000000000E+00  0.00000000000E+00  0.74505805969E-08  0.10566000000E+00  0.10566000000E+00 0.  1.
     999900   -1    0    0    0    0 -0.00000000000E+00 -0.00000000000E+00 -0.74505805969E-08  0.93827000000E+00  0.93827000000E+00 0. -1.
     999902    2    1    2    0    0 -0.22845899656E-01 -0.10625352161E-02 -0.77553739478E-02  0.10197802601E+01  0.10194942712E+01 0.  0.
     999903    2    3    3    0    0  0.65649644831E-01 -0.28434243306E-02 -0.10981163357E+00  0.12947126144E+00  0.19653288382E-01 0.  0.
         14    1    1    2    0    0  0.22845899656E-01  0.10625352161E-02  0.77553739478E-02  0.24149739900E-01  0.00000000000E+00 0.  1.
     999901    1    3    3    0    0 -0.88495544487E-01  0.17808891145E-02  0.10205625962E+00  0.89030899866E+00  0.88000000000E+00 0.  1.
        -11    1    4    4    0    0  0.11256906882E-01 -0.42682327656E-02 -0.34613178375E-01  0.36650634397E-01  0.51100000000E-03 0.  1.
         11    1    4    4    0    0  0.54392737949E-01  0.14248084351E-02 -0.75198455195E-01  0.92820627047E-01  0.51100000000E-03 0. -1.
</event>
<event>
 8    1  0.1088088E+005  0.1043930E+01  0.7957747E-01            NaN
         13   -1    0    0    0    0  0.00000000000E+00  0.00000000000E+00  0.74505805969E-08  0.10566000000E+00  0.10566000000E+00 0.  1.
     999900   -1    0    0    0    0 -0.00000000000E+00 -0.00000000000E+00 -0.74505805969E-08  0.93827000000E+00  0.93827000000E+00 0. -1.
     999902    2    1    2    0    0 -0.22598219427E-01  0.41149768360E-02  0.76120228428E-02  0.10197317470E+01  0.10194445941E+01 0.  0.
     999903    2    3    3    0    0 -0.67429171963E-01  0.82467036934E-01 -0.74132227845E-01  0.13134501696E+00  0.20209425079E-01 0.  0.
         14    1    1    2    0    0  0.22598219427E-01 -0.41149768360E-02 -0.76120228428E-02  0.24198252982E-01  0.00000000000E+00 0. -1.
     999901    1    3    3    0    0  0.44830952536E-01 -0.78352060098E-01  0.81744250688E-01  0.88838673006E+00  0.88000000000E+00 0. -1.
        -11    1    4    4    0    0 -0.21991248740E-01  0.17461626212E-01 -0.27664137132E-01  0.39421935713E-01  0.51100000000E-03 0. -1.
         11    1    4    4    0    0 -0.45437923223E-01  0.65005410722E-01 -0.46468090713E-01  0.91923081244E-01  0.51100000000E-03 0.  1.
</event>
<event>
 8    1  0.1088088E+005  0.1043930E+01  0.7957747E-01            NaN
         13   -1    0    0    0    0  0.00000000000E+00  0.00000000000E+00  0.74505805969E-08  0.10566000000E+00  0.10566000000E+00 0.  1.
     999900   -1    0    0    0    0 -0.00000000000E+00 -0.00000000000E+00 -0.74505805969E-08  0.93827000000E+00  0.93827000000E+00 0. -1.
     999902    2    1    2    0    0 -0.60608654804E-02  0.17321657676E-02  0.23103902270E-01  0.10199816224E+01  0.10197004390E+01 0.  0.
     999903    2    3    3    0    0  0.41111421756E-01  0.11496073616E+00  0.45685825301E-01  0.13118700211E+00  0.14721244300E-01 0.  0.
         14    1    1    2    0    0  0.60608654804E-02 -0.17321657676E-02 -0.23103902270E-01  0.23948377580E-01  0.00000000000E+00 0. -1.
     999901    1    3    3    0    0 -0.47172287236E-01 -0.11322857039E+00 -0.22581923030E-01  0.88879462031E+00  0.88000000000E+00 0.  1.
        -11    1    4    4    0    0  0.19324287081E-01  0.34292866451E-01  0.12909224731E-01  0.41428709427E-01  0.51100000000E-03 0.  1.
         11    1    4    4    0    0  0.21787134675E-01  0.80667869706E-01  0.32776600570E-01  0.89758292687E-01  0.51100000000E-03 0. -1.
</event>
<event>
 8    1  0.1088088E+005  0.1043930E+01  0.7957747E-01            NaN
         13   -1    0    0    0    0  0.00000000000E+00  0.00000000000E+00  0.74505805969E-08  0.10566000000E+00  0.10566000000E+00 0. -1.
     999900   -1    0    0    0    0 -0.00000000000E+00 -0.00000000000E+00 -0.74505805969E-08  0.93827000000E+00  0.93827000000E+00 0. -1.
     999902    2    1    2    0    0 -0.21003162928E-02  0.29452961119E-03  0.22243775539E-01  0.10215853446E+01  0.10213409483E+01 0.  0.
     999903    2    3    3    0    0 -0.57707706117E-01 -0.65332002962E-01  0.99583617621E-01  0.13401536155E+00  0.21089577431E-01 0.  0.
         14    1    1    2    0    0  0.21003162928E-02 -0.29452961119E-03 -0.22243775539E-01  0.22344655434E-01  0.00000000000E+00 0.  1.
     999901    1    3    3    0    0  0.55607389824E-01  0.65626532573E-01 -0.77339842082E-01  0.88756998302E+00  0.88000000000E+00 0. -1.
        -11    1    4    4    0    0 -0.18194113694E-01 -0.14480906412E-01  0.40045679327E-01  0.46310257798E-01  0.51100000000E-03 0.  1.
         11    1    4    4    0    0 -0.39513592423E-01 -0.50851096550E-01  0.59537938294E-01  0.87705103750E-01  0.51100000000E-03 0. -1.
</event>
<event>
 8    1  0.1088088E+005  0.1043930E+01  0.7957747E-01            NaN
         13   -1    0    0    0    0  0.00000000000E+00  0.00000000000E+00  0.74505805969E-08  0.10566000000E+00  0.10566000000E+00 0.  1.
     999900   -1    0    0    0    0 -0.00000000000E+00 -0.00000000000E+00 -0.74505805969E-08  0.93827000000E+00  0.93827000000E+00 0. -1.
     999902    2    1    2    0    0  0.11441593724E-01 -0.20167358787E-01 -0.33077098670E-02  0.10205083568E+01  0.10202395468E+01 0.  0.
     999903    2    3    3    0    0  0.10394825051E+00  0.92401809532E-02  0.77526304796E-01  0.13148843411E+00  0.19704330515E-01 0.  0.
         14    1    1    2    0    0 -0.11441593724E-01  0.20167358787E-01  0.33077098670E-02  0.23421643237E-01  0.00000000000E+00 0. -1.
     999901    1    3    3    0    0 -0.92506656789E-01 -0.29407539740E-01 -0.80834014663E-01  0.88901992265E+00  0.88000000000E+00 0. -1.
        -11    1    4    4    0    0  0.50873481231E-01  0.69901331708E-02  0.26333840094E-01  0.57712263077E-01  0.51100000000E-03 0.  1.
         11    1    4    4    0    0  0.53074769282E-01  0.22500477824E-02  0.51192464702E-01  0.73776171035E-01  0.51100000000E-03 0. -1.
</event>
<event>
 8    1  0.1088088E+005  0.1043930E+01  0.7957747E-01            NaN
         13   -1    0    0    0    0  0.00000000000E+00  0.00000000000E+00  0.74505805969E-08  0.10566000000E+00  0.10566000000E+00 0. -1.
     999900   -1    0    0    0    0 -0.00000000000E+00 -0.00000000000E+00 -0.74505805969E-08  0.93827000000E+00  0.93827000000E+00 0.  1.
     999902    2    1    2    0    0  0.41324123391E-02  0.21302592984E-01 -0.89026698658E-02  0.10204750468E+01  0.10202054628E+01 0.  0.
     999903    2    3    3    0    0 -0.11057579611E+00 -0.57666352593E-01 -0.27428726189E-01  0.12933124121E+00  0.20538257624E-01 0.  0.
         14    1    1    2    0    0 -0.41324123391E-02 -0.21302592984E-01  0.89026698658E-02  0.23454953215E-01  0.00000000000E+00 0. -1.
     999901    1    3    3    0    0  0.11470820845E+00  0.78968945577E-01  0.18526056323E-01  0.89114380557E+00  0.88000000000E+00 0. -1.
        -11    1    4    4    0    0 -0.58258034014E-01 -0.20021562025E-01 -0.18066968656E-01  0.64199205217E-01  0.51100000000E-03 0.  1.
         11    1    4    4    0    0 -0.52317762094E-01 -0.37644790568E-01 -0.93617575328E-02  0.65132035993E-01  0.51100000000E-03 0. -1.
</event>
<event>
 8    1  0.1088088E+005  0.1043930E+01  0.7957747E-01            NaN
         13   -1    0    0    0    0  0.00000000000E+00  0.00000000000E+00  0.74505805969E-08  0.10566000000E+00  0.10566000000E+00 0. -1.
     999900   -1    0    0    0    0 -0.00000000000E+00 -0.00000000000E+00 -0.74505805969E-08  0.93827000000E+00  0.93827000000E+00 0. -1.
     999902    2    1    2    0    0  0.89970390566E-02  0.21394869608E-01 -0.28297215611E-02  0.10205485013E+01  0.10202806227E+01 0.  0.
     999903    2    3    3    0    0  0.52080387897E-01 -0.29454170261E-01  0.11418014869E+00  0.13030521459E+00  0.19037532547E-01 0.  0.
         14    1    1    2    0    0 -0.89970390566E-02 -0.21394869608E-01  0.28297215611E-02  0.23381498699E-01  0.00000000000E+00 0.  1.
     999901    1    3    3    0    0 -0.43083348840E-01  0.50849039868E-01 -0.11700987025E+00  0.89024328671E+00  0.88000000000E+00 0. -1.
        -11    1    4    4    0    0  0.29323198015E-01 -0.25644142605E-01  0.61638746623E-01  0.72918229531E-01  0.51100000000E-03 0.  1.
         11    1    4    4    0    0  0.22757189882E-01 -0.38100276563E-02  0.52541402063E-01  0.57386985056E-01  0.51100000000E-03 0. -1.
</event>
<event>
 8    1  0.1088088E+005  0.1043930E+01  0.7957747E-01            NaN
         13   -1    0    0    0    0  0.00000000000E+00  0.00000000000E+00  0.74505805969E-08  0.10566000000E+00  0.10566000000E+00 0. -1.
     999900   -1    0    0    0    0 -0.00000000000E+00 -0.00000000000E+00 -0.74505805969E-08  0.93827000000E+00  0.93827000000E+00 0. -1.
     999902    2    1    2    0    0  0.13778662920E-01 -0.16531662684E-01  0.10162210837E-01  0.10201304632E+01  0.10198528051E+01 0.  0.
     999903    2    3    3    0    0  0.66863326985E-01  0.43179367019E-02 -0.10982975801E+00  0.13015812658E+00  0.19728484433E-01 0.  0.
         14    1    1    2    0    0 -0.13778662920E-01  0.16531662684E-01 -0.10162210837E-01  0.23799536803E-01  0.00000000000E+00 0. -1.
     999901    1    3    3    0    0 -0.53084664065E-01 -0.20849599386E-01  0.11999196885E+00  0.88997233662E+00  0.88000000000E+00 0.  1.
        -11    1    4    4    0    0  0.24762183958E-01  0.72414041770E-02 -0.27947246681E-01  0.38038314984E-01  0.51100000000E-03 0.  1.
         11    1    4    4    0    0  0.42101143028E-01 -0.29234674751E-02 -0.81882511328E-01  0.92119811597E-01  0.51100000000E-03 0. -1.
</event>
<event>
 8    1  0.1088088E+005  0.1043930E+01  0.7957747E-01            NaN
         13   -1    0    0    0    0  0.00000000000E+00  0.00000000000E+00  0.74505805969E-08  0.10566000000E+00  0.10566000000E+00 0. -1.
     999900   -1    0    0    0    0 -0.00000000000E+00 -0.00000000000E+00 -0.74505805969E-08  0.93827000000E+00  0.93827000000E+00 0.  1.
     999902    2    1    2    0    0 -0.15954587805E-01  0.16353211292E-01  0.61560168312E-02  0.10202683658E+01  0.10199939535E+01 0.  0.
     999903    2    3    3    0    0 -0.89998486016E-01 -0.90917087841E-01 -0.11085828846E-01  0.13050058865E+00  0.23277965786E-01 0.  0.
         14    1    1    2    0    0  0.15954587805E-01 -0.16353211292E-01 -0.61560168312E-02  0.23661634238E-01  0.00000000000E+00 0. -1.
     999901    1    3    3    0    0  0.74043898211E-01  0.10727029913E+00  0.17241845677E-01  0.88976777711E+00  0.88000000000E+00 0.  1.
        -11    1    4    4    0    0 -0.72300281277E-01 -0.61720489473E-01 -0.16596074670E-02  0.95077678303E-01  0.51100000000E-03 0.  1.
         11    1    4    4    0    0 -0.17698204739E-01 -0.29196598368E-01 -0.94262213788E-02  0.35422910351E-01  0.51100000000E-03 0. -1.
</event>
<event>
 8    1  0.1088088E+005  0.1043930E+01  0.7957747E-01            NaN
         13   -1    0    0    0    0  0.00000000000E+00  0.00000000000E+00  0.74505805969E-08  0.10566000000E+00  0.10566000000E+00 0. -1.
     999900   -1    0    0    0    0 -0.00000000000E+00 -0.00000000000E+00 -0.74505805969E-08  0.93827000000E+00  0.93827000000E+00 0.  1.
     999902    2    1    2    0    0  0.15509579211E-01 -0.18426498083E-02 -0.18166930255E-01  0.10199721253E+01  0.10196907162E+01 0.  0.
     999903    2    3    3    0    0 -0.62464240163E-01 -0.52562877227E-01  0.96201952159E-01  0.12770944018E+00  0.19754699455E-01 0.  0.
         14    1    1    2    0    0 -0.15509579211E-01  0.18426498083E-02  0.18166930255E-01  0.23957874708E-01  0.00000000000E+00 0. -1.
     999901    1    3    3    0    0  0.77973819374E-01  0.50720227419E-01 -0.11436888241E+00  0.89226268511E+00  0.88000000000E+00 0.  1.
        -11    1    4    4    0    0 -0.37236750420E-01 -0.18456815567E-01  0.48298073581E-01  0.63719656742E-01  0.51100000000E-03 0.  1.
         11    1    4    4    0    0 -0.25227489744E-01 -0.34106061661E-01  0.47903878578E-01  0.63989783439E-01  0.51100000000E-03 0. -1.
</event>
<event>
 8    1  0.1088088E+005  0.1043930E+01  0.7957747E-01            NaN
         13   -1    0    0    0    0  0.00000000000E+00  0.00000000000E+00  0.74505805969E-08  0.10566000000E+00  0.10566000000E+00 0.  1.
     999900   -1    0    0    0    0 -0.00000000000E+00 -0.00000000000E+00 -0.74505805969E-08  0.93827000000E+00  0.93827000000E+00 0.  1.
     999902    2    1    2    0    0  0.13085352926E-01 -0.18130215710E-01  0.74984534332E-02  0.10203469979E+01  0.10200744278E+01 0.  0.
     999903    2    3    3    0    0  0.77199364864E-01  0.22824960784E-01  0.10240763114E+00  0.13198013394E+00  0.21229980462E-01 0.  0.
         14    1    1    2    0    0 -0.13085352926E-01  0.18130215710E-01 -0.74984534332E-02  0.23583002073E-01  0.00000000000E+00 0. -1.
     999901    1    3    3    0    0 -0.64114011937E-01 -0.40955176494E-01 -0.94909177706E-01  0.88836686398E+00  0.88000000000E+00 0. -1.
        -11    1    4    4    0    0  0.14868511965E-01  0.25423529662E-02  0.34191443880E-01  0.37374485444E-01  0.51100000000E-03 0.  1.
         11    1    4    4    0    0  0.62330852898E-01  0.20282607818E-01  0.68216187260E-01  0.94605648500E-01  0.51100000000E-03 0. -1.
</event>
<event>
 8    1  0.1088088E+005  0.1043930E+01  0.7957747E-01            NaN
         13   -1    0    0    0    0  0.00000000000E+00  0.00000000000E+00  0.74505805969E-08  0.10566000000E+00  0.10566000000E+00 0.  1.
     999900   -1    0    0    0    0 -0.00000000000E+00 -0.00000000000E+00 -0.74505805969E-08  0.93827000000E+00  0.93827000000E+00 0.  1.
     999902    2    1    2    0    0  0.13581386735E-01 -0.46060030223E-02  0.18371361937E-01  0.10206238577E+01  0.10203577229E+01 0.  0.
     999903    2    3    3    0    0 -0.11823495833E+00  0.47384360111E-01  0.91968245269E-02  0.12924138153E+00  0.19848681700E-01 0.  0.
         14    1    1    2    0    0 -0.13581386735E-01  0.46060030223E-02 -0.18371361937E-01  0.23306142300E-01  0.00000000000E+00 0.  1.
     999901    1    3    3    0    0  0.13181634506E+00 -0.51990363134E-01  0.91745374096E-02  0.89138247617E+00  0.88000000000E+00 0. -1.
        -11    1    4    4    0    0 -0.62068979852E-01  0.21273922198E-01 -0.46217674761E-02  0.65778110958E-01  0.51100000000E-03 0.  1.
         11    1    4    4    0    0 -0.56165978474E-01  0.26110437913E-01  0.13818592003E-01  0.63463270574E-01  0.51100000000E-03 0. -1.
</event>
<event>
 8    1  0.1088088E+005  0.1043930E+01  0.7957747E-01            NaN
         13   -1    0    0    0    0  0.00000000000E+00  0.00000000000E+00  0.74505805969E-08  0.10566000000E+00  0.10566000000E+00 0.  1.
     999900   -1    0    0    0    0 -0.00000000000E+00 -0.00000000000E+00 -0.74505805969E-08  0.93827000000E+00  0.93827000000E+00 0.  1.
     999902    2    1    2    0    0  0.14092963299E-01 -0.12341339583E-01  0.13211086220E-01  0.10210072367E+01  0.10207498834E+01 0.  0.
     999903    2    3    3    0    0 -0.11328684732E+00  0.36112829514E-01 -0.45852866112E-01  0.12856005446E+00  0.16945679154E-01 0.  0.
         14    1    1    2    0    0 -0.14092963299E-01  0.12341339583E-01 -0.13211086220E-01  0.22922763279E-01  0.00000000000E+00 0. -1.
     999901    1    3    3    0    0  0.12737981062E+00 -0.48454169096E-01  0.59063952332E-01  0.89244718226E+00  0.88000000000E+00 0.  1.
        -11    1    4    4    0    0 -0.10644700761E+00  0.36455694104E-01 -0.39630769291E-01  0.11929309308E+00  0.51100000000E-03 0.  1.
         11    1    4    4    0    0 -0.68398397090E-02 -0.34286459013E-03 -0.62220968216E-02  0.92669613806E-02  0.51100000000E-03 0. -1.
</event>
<event>
 8    1  0.1088088E+005  0.1043930E+01  0.7957747E-01            NaN
         13   -1    0    0    0    0  0.00000000000E+00  0.00000000000E+00  0.74505805969E-08  0.10566000000E+00  0.10566000000E+00 0. -1.
     999900   -1    0    0    0    0 -0.00000000000E+00 -0.00000000000E+00 -0.74505805969E-08  0.93827000000E+00  0.93827000000E+00 0.  1.
     999902    2    1    2    0    0  0.51497844985E-02  0.22600362400E-01  0.12472922322E-02  0.10207168055E+01  0.10204528135E+01 0.  0.
     999903    2    3    3    0    0 -0.99755636268E-01  0.42394086461E-01  0.71585868056E-01  0.13147867425E+00  0.20338626880E-01 0.  0.
         14    1    1    2    0    0 -0.51497844985E-02 -0.22600362400E-01 -0.12472922322E-02  0.23213194500E-01  0.00000000000E+00 0.  1.
     999901    1    3    3    0    0  0.10490542077E+00 -0.19793724061E-01 -0.70338575824E-01  0.88923813125E+00  0.88000000000E+00 0.  1.
        -11    1    4    4    0    0 -0.34213564491E-01  0.11616658407E-01  0.13233147059E-01  0.38482360242E-01  0.51100000000E-03 0. -1.
         11    1    4    4    0    0 -0.65542071777E-01  0.30777428054E-01  0.58352720997E-01  0.92996314009E-01  0.51100000000E-03 0.  1.
</event>
<event>
 8    1  0.1088088E+005  0.1043930E+01  0.7957747E-01            NaN
         13   -1    0    0    0    0  0.00000000000E+00  0.00000000000E+00  0.74505805969E-08  0.10566000000E+00  0.10566000000E+00 0.  1.
     999900   -1    0    0    0    0 -0.00000000000E+00 -0.00000000000E+00 -0.74505805969E-08  0.93827000000E+00  0.93827000000E+00 0.  1.
     999902    2    1    2    0    0  0.15876557345E-01 -0.14485896268E-01  0.60088286201E-02  0.10216138111E+01  0.10213700440E+01 0.  0.
     999903    2    3    3    0    0 -0.10382827376E+00 -0.52054419576E-01  0.56148135367E-01  0.13130229790E+00  0.24448053052E-01 0.  0.
         14    1    1    2    0    0 -0.15876557345E-01  0.14485896268E-01 -0.60088286201E-02  0.22316188859E-01  0.00000000000E+00 0.  1.
     999901    1    3    3    0    0  0.11970483111E+00  0.37568523309E-01 -0.50139306747E-01  0.89031151324E+00  0.88000000000E+00 0. -1.
        -11    1    4    4    0    0 -0.53583998256E-01 -0.27997599733E-01  0.15720341619E-01  0.62469998572E-01  0.51100000000E-03 0. -1.
         11    1    4    4    0    0 -0.50244275506E-01 -0.24056819843E-01  0.40427793748E-01  0.68832299325E-01  0.51100000000E-03 0.  1.
</event>
<event>
 8    1  0.1088088E+005  0.1043930E+01  0.7957747E-01            NaN
         13   -1    0    0    0    0  0.00000000000E+00  0.00000000000E+00  0.74505805969E-08  0.10566000000E+00  0.10566000000E+00 0. -1.
     999900   -1    0    0    0    0 -0.00000000000E+00 -0.00000000000E+00 -0.74505805969E-08  0.93827000000E+00  0.93827000000E+00 0. -1.
     999902    2    1    2    0    0 -0.61799657251E-02  0.19789834665E-01  0.92888541751E-02  0.10212118939E+01  0.10209591666E+01 0.  0.
     999903    2    3    3    0    0 -0.42354971140E-01  0.32592109189E-01 -0.11814582791E+00  0.13120508076E+00  0.20003684751E-01 0.  0.
         14    1    1    2    0    0  0.61799657251E-02 -0.19789834665E-01 -0.92888541751E-02  0.22718106090E-01  0.00000000000E+00 0.  1.
     999901    1    3    3    0    0  0.36175005415E-01 -0.12802274524E-01  0.12743468209E+00  0.89000681315E+00  0.88000000000E+00 0.  1.
        -11    1    4    4    0    0 -0.36263320123E-01  0.26917398410E-01 -0.77394011002E-01  0.89608419155E-01  0.51100000000E-03 0. -1.
         11    1    4    4    0    0 -0.60916510164E-02  0.56747107791E-02 -0.40751816909E-01  0.41596661607E-01  0.51100000000E-03 0.  1.
</event>
<event>
 8    1  0.1088088E+005  0.1043930E+01  0.7957747E-01            NaN
         13   -1    0    0    0    0  0.00000000000E+00  0.00000000000E+00  0.74505805969E-08  0.10566000000E+00  0.10566000000E+00 0. -1.
     999900   -1    0    0    0    0 -0.00000000000E+00 -0.00000000000E+00 -0.74505805969E-08  0.93827000000E+00  0.93827000000E+00 0. -1.
     999902    2    1    2    0    0 -0.18502103819E-03 -0.23627081047E-01  0.10474339364E-02  0.10202789893E+01  0.10200048263E+01 0.  0.
     999903    2    3    3    0    0 -0.61219090837E-01  0.66698891516E-01 -0.89381918688E-01  0.12895334348E+00  0.21055122739E-01 0.  0.
         14    1    1    2    0    0  0.18502103819E-03  0.23627081047E-01 -0.10474339364E-02  0.23651010749E-01  0.00000000000E+00 0.  1.
     999901    1    3    3    0    0  0.61034069799E-01 -0.90325972563E-01  0.90429352624E-01  0.89132564577E+00  0.88000000000E+00 0.  1.
        -11    1    4    4    0    0  0.11526826833E-02  0.29214304435E-02 -0.62574897880E-02  0.70200236931E-02  0.51100000000E-03 0.  1.
         11    1    4    4    0    0 -0.62371773521E-01  0.63777461073E-01 -0.83124428900E-01  0.12193331979E+00  0.51100000000E-03 0. -1.
</event>
<event>
 8    1  0.1088088E+005  0.1043930E+01  0.7957747E-01            NaN
         13   -1    0    0    0    0  0.00000000000E+00  0.00000000000E+00  0.74505805969E-08  0.10566000000E+00  0.10566000000E+00 0. -1.
     999900   -1    0    0    0    0 -0.00000000000E+00 -0.00000000000E+00 -0.74505805969E-08  0.93827000000E+00  0.93827000000E+00 0.  1.
     999902    2    1    2    0    0 -0.59842230882E-02 -0.28318236550E-02 -0.22741078404E-01  0.10202448401E+01  0.10199698755E+01 0.  0.
     999903    2    3    3    0    0 -0.12005613737E-01  0.19419197279E-01  0.12411769580E+00  0.12777698937E+00  0.20012911279E-01 0.  0.
         14    1    1    2    0    0  0.59842230882E-02  0.28318236550E-02  0.22741078404E-01  0.23685159872E-01  0.00000000000E+00 0. -1.
     999901    1    3    3    0    0  0.60213906491E-02 -0.22251020934E-01 -0.14685877420E+00  0.89246785076E+00  0.88000000000E+00 0.  1.
        -11    1    4    4    0    0 -0.15785180417E-01  0.12554579458E-01  0.62870613088E-01  0.66028512760E-01  0.51100000000E-03 0. -1.
         11    1    4    4    0    0  0.37795666799E-02  0.68646178208E-02  0.61247082710E-01  0.61748476610E-01  0.51100000000E-03 0.  1.
</event>
<event>
 8    1  0.1088088E+005  0.1043930E+01  0.7957747E-01            NaN
         13   -1    0    0    0    0  0.00000000000E+00  0.00000000000E+00  0.74505805969E-08  0.10566000000E+00  0.10566000000E+00 0.  1.
     999900   -1    0    0    0    0 -0.00000000000E+00 -0.00000000000E+00 -0.74505805969E-08  0.93827000000E+00  0.93827000000E+00 0. -1.
     999902    2    1    2    0    0 -0.15919971972E-01  0.20843406053E-02  0.13847920291E-02  0.10278145530E+01  0.10276882055E+01 0.  0.
     999903    2    3    3    0    0 -0.75438697243E-01 -0.11154614909E+00  0.23843211952E-01  0.13823108447E+00  0.20144317780E-01 0.  0.
         14    1    1    2    0    0  0.15919971972E-01 -0.20843406053E-02 -0.13847920291E-02  0.16115447009E-01  0.00000000000E+00 0. -1.
     999901    1    3    3    0    0  0.59518725271E-01  0.11363048969E+00 -0.22458419923E-01  0.88958346852E+00  0.88000000000E+00 0. -1.
        -11    1    4    4    0    0 -0.63023709168E-01 -0.85527305620E-01  0.11482665452E-01  0.10685981776E+00  0.51100000000E-03 0.  1.
         11    1    4    4    0    0 -0.12414988074E-01 -0.26018843467E-01  0.12360546500E-01  0.31371266711E-01  0.51100000000E-03 0. -1.
</event>
<event>
 8    1  0.1088088E+005  0.1043930E+01  0.7957747E-01            NaN
         13   -1    0    0    0    0  0.00000000000E+00  0.00000000000E+00  0.74505805969E-08  0.10566000000E+00  0.10566000000E+00 0. -1.
     999900   -1    0    0    0    0 -0.00000000000E+00 -0.00000000000E+00 -0.74505805969E-08  0.93827000000E+00  0.93827000000E+00 0. -1.
     999902    2    1    2    0    0 -0.20454404169E-01  0.85574748043E-02 -0.98666525797E-02  0.10196614224E+01  0.10193725779E+01 0.  0.
     999903    2    3    3    0    0  0.12178206325E+00  0.19325894342E-02  0.31079273603E-01  0.12727604006E+00  0.19966554368E-01 0.  0.
         14    1    1    2    0    0  0.20454404169E-01 -0.85574748043E-02  0.98666525797E-02  0.24268577586E-01  0.00000000000E+00 0. -1.
     999901    1    3    3    0    0 -0.14223646742E+00  0.66248853701E-02 -0.40945926183E-01  0.89238538236E+00  0.88000000000E+00 0. -1.
        -11    1    4    4    0    0  0.33804624451E-01  0.81377787687E-02  0.39351413878E-02  0.34996036009E-01  0.51100000000E-03 0.  1.
         11    1    4    4    0    0  0.87977438801E-01 -0.62051893345E-02  0.27144132216E-01  0.92280004049E-01  0.51100000000E-03 0. -1.
</event>
<event>
 8    1  0.1088088E+005  0.1043930E+01  0.7957747E-01            NaN
         13   -1    0    0    0    0  0.00000000000E+00  0.00000000000E+00  0.74505805969E-08  0.10566000000E+00  0.10566000000E+00 0.  1.
     999900   -1    0    0    0    0 -0.00000000000E+00 -0.00000000000E+00 -0.74505805969E-08  0.93827000000E+00  0.93827000000E+00 0.  1.
     999902    2    1    2    0    0 -0.21115925994E-01 -0.10351448185E-01 -0.53053334332E-02  0.10198222964E+01  0.10195373141E+01 0.  0.
     999903    2    3    3    0    0 -0.21919349504E-01 -0.12488343384E+00  0.27367851752E-01  0.13179878418E+00  0.23357873869E-01 0.  0.
         14    1    1    2    0    0  0.21115925994E-01  0.10351448185E-01  0.53053334332E-02  0.24107703602E-01  0.00000000000E+00 0. -1.
     999901    1    3    3    0    0  0.80342350987E-03  0.11453198565E+00 -0.32673185185E-01  0.88802351222E+00  0.88000000000E+00 0.  1.
        -11    1    4    4    0    0  0.31824569343E-02 -0.27764177060E-01  0.51775252242E-03  0.27955442200E-01  0.51100000000E-03 0.  1.
         11    1    4    4    0    0 -0.25101806438E-01 -0.97119256777E-01  0.26850099230E-01  0.10384334198E+00  0.51100000000E-03 0. -1.
</event>
<event>
 8    1  0.1088088E+005  0.1043930E+01  0.7957747E-01            NaN
         13   -1    0    0    0    0  0.00000000000E+00  0.00000000000E+00  0.74505805969E-08  0.10566000000E+00  0.10566000000E+00 0. -1.
     999900   -1    0    0    0    0 -0.00000000000E+00 -0.00000000000E+00 -0.74505805969E-08  0.93827000000E+00  0.93827000000E+00 0.  1.
     999902    2    1    2    0    0  0.22733596996E-01 -0.80597361956E-02  0.37186822090E-02  0.10195249928E+01  0.10192328520E+01 0.  0.
     999903    2    3    3    0    0  0.30304690005E-01  0.97701113471E-01 -0.76702419796E-01  0.12951924425E+00  0.20690375036E-01 0.  0.
         14    1    1    2    0    0 -0.22733596996E-01  0.80597361956E-02 -0.37186822090E-02  0.24405007217E-01  0.00000000000E+00 0.  1.
     999901    1    3    3    0    0 -0.75710930091E-02 -0.10576084967E+00  0.80421102005E-01  0.89000574853E+00  0.88000000000E+00 0. -1.
        -11    1    4    4    0    0  0.21693997444E-01  0.89261036327E-01 -0.63740877824E-01  0.11180931427E+00  0.51100000000E-03 0.  1.
         11    1    4    4    0    0  0.86106925604E-02  0.84400771437E-02 -0.12961541972E-01  0.17709929979E-01  0.51100000000E-03 0. -1.
</event>
<event>
 8    1  0.1088088E+005  0.1043930E+01  0.7957747E-01            NaN
         13   -1    0    0    0    0  0.00000000000E+00  0.00000000000E+00  0.74505805969E-08  0.10566000000E+00  0.10566000000E+00 0.  1.
     999900   -1    0    0    0    0 -0.00000000000E+00 -0.00000000000E+00 -0.74505805969E-08  0.93827000000E+00  0.93827000000E+00 0. -1.
     999902    2    1    2    0    0  0.17260862022E-01  0.15106588159E-01 -0.70811858580E-02  0.10199239683E+01  0.10196414132E+01 0.  0.
     999903    2    3    3    0    0  0.98813897711E-01 -0.80231871903E-01 -0.24062060550E-01  0.13086341375E+00  0.18571770262E-01 0.  0.
         14    1    1    2    0    0 -0.17260862022E-01 -0.15106588159E-01  0.70811858580E-02  0.24006031674E-01  0.00000000000E+00 0. -1.
     999901    1    3    3    0    0 -0.81553035689E-01  0.95338460062E-01  0.16980874692E-01  0.88906055458E+00  0.88000000000E+00 0.  1.
        -11    1    4    4    0    0  0.89278461608E-01 -0.66839650794E-01 -0.16431895162E-01  0.11273176538E+00  0.51100000000E-03 0.  1.
         11    1    4    4    0    0  0.95354361038E-02 -0.13392221108E-01 -0.76301653886E-02  0.18131648374E-01  0.51100000000E-03 0. -1.
</event>
<event>
 8    1  0.1088088E+005  0.1043930E+01  0.7957747E-01            NaN
         13   -1    0    0    0    0  0.00000000000E+00  0.00000000000E+00  0.74505805969E-08  0.10566000000E+00  0.10566000000E+00 0. -1.
     999900   -1    0    0    0    0 -0.00000000000E+00 -0.00000000000E+00 -0.74505805969E-08  0.93827000000E+00  0.93827000000E+00 0.  1.
     999902    2    1    2    0    0 -0.11853274992E-01 -0.13566264733E-02 -0.20013506322E-01  0.10206301932E+01  0.10203642047E+01 0.  0.
     999903    2    3    3    0    0  0.47800121178E-01 -0.88911517001E-01 -0.82990763362E-01  0.13204113098E+00  0.18901958261E-01 0.  0.
         14    1    1    2    0    0  0.11853274992E-01  0.13566264733E-02  0.20013506322E-01  0.23299806839E-01  0.00000000000E+00 0. -1.
     999901    1    3    3    0    0 -0.59653396170E-01  0.87554890528E-01  0.62977257040E-01  0.88858906218E+00  0.88000000000E+00 0.  1.
        -11    1    4    4    0    0  0.62686565710E-02 -0.26067600247E-01 -0.15954499513E-01  0.31202932772E-01  0.51100000000E-03 0.  1.
         11    1    4    4    0    0  0.41531464607E-01 -0.62843916754E-01 -0.67036263849E-01  0.10083819821E+00  0.51100000000E-03 0. -1.
</event>
<event>
 8    1  0.1088088E+005  0.1043930E+01  0.7957747E-01            NaN
         13   -1    0    0    0    0  0.00000000000E+00  0.00000000000E+00  0.74505805969E-08  0.10566000000E+00  0.10566000000E+00 0.  1.
     999900   -1    0    0    0    0 -0.00000000000E+00 -0.00000000000E+00 -0.74505805969E-08  0.93827000000E+00  0.93827000000E+00 0. -1.
     999902    2    1    2    0    0 -0.23242875622E-01  0.29854116393E-03  0.36671438802E-02  0.10203977171E+01  0.10201263318E+01 0.  0.
     999903    2    3    3    0    0 -0.40811890795E-01 -0.60799012374E-01 -0.10750333551E+00  0.13112809723E+00  0.16597602287E-01 0.  0.
         14    1    1    2    0    0  0.23242875622E-01 -0.29854116393E-03 -0.36671438802E-02  0.23532282895E-01  0.00000000000E+00 0. -1.
     999901    1    3    3    0    0  0.17569015173E-01  0.61097553538E-01  0.11117047939E+00  0.88926961987E+00  0.88000000000E+00 0. -1.
        -11    1    4    4    0    0 -0.14015711854E-01 -0.28184656789E-01 -0.33786760613E-01  0.46180313672E-01  0.51100000000E-03 0.  1.
         11    1    4    4    0    0 -0.26796178941E-01 -0.32614355585E-01 -0.73716574897E-01  0.84947783559E-01  0.51100000000E-03 0. -1.
</event>
<event>
 8    1  0.1088088E+005  0.1043930E+01  0.7957747E-01            NaN
         13   -1    0    0    0    0  0.00000000000E+00  0.00000000000E+00  0.74505805969E-08  0.10566000000E+00  0.10566000000E+00 0. -1.
     999900   -1    0    0    0    0 -0.00000000000E+00 -0.00000000000E+00 -0.74505805969E-08  0.93827000000E+00  0.93827000000E+00 0. -1.
     999902    2    1    2    0    0 -0.21512764148E-01  0.12220138239E-01  0.59316120311E-02  0.10184876176E+01  0.10181697857E+01 0.  0.
     999903    2    3    3    0    0  0.10602042442E-02  0.47703750457E-02  0.12809220160E+00  0.12973104379E+00  0.19966249073E-01 0.  0.
         14    1    1    2    0    0  0.21512764148E-01 -0.12220138239E-01 -0.59316120311E-02  0.25442382380E-01  0.00000000000E+00 0. -1.
     999901    1    3    3    0    0 -0.22572968392E-01  0.74497631938E-02 -0.12216058957E+00  0.88875657383E+00  0.88000000000E+00 0. -1.
        -11    1    4    4    0    0  0.17399887979E-02 -0.43038448801E-02  0.77801203134E-02  0.90742512011E-02  0.51100000000E-03 0.  1.
         11    1    4    4    0    0 -0.67978455376E-03  0.90742199258E-02  0.12031208129E+00  0.12065679259E+00  0.51100000000E-03 0. -1.
</event>
<event>
 8    1  0.1088088E+005  0.1043930E+01  0.7957747E-01            NaN
         13   -1    0    0    0    0  0.00000000000E+00  0.00000000000E+00  0.74505805969E-08  0.10566000000E+00  0.10566000000E+00 0.  1.
     999900   -1    0    0    0    0 -0.00000000000E+00 -0.00000000000E+00 -0.74505805969E-08  0.93827000000E+00  0.93827000000E+00 0. -1.
     999902    2    1    2    0    0  0.19760846857E-01 -0.10011453863E-01  0.65018007482E-02  0.10208433439E+01  0.10205822549E+01 0.  0.
     999903    2    3    3    0    0 -0.12115597750E+00  0.35598140811E-01  0.13582342142E-01  0.12843765108E+00  0.19124635522E-01 0.  0.
         14    1    1    2    0    0 -0.19760846857E-01  0.10011453863E-01 -0.65018007482E-02  0.23086656101E-01  0.00000000000E+00 0. -1.
     999901    1    3    3    0    0  0.14091682435E+00 -0.45609594674E-01 -0.70805413938E-02  0.89240569282E+00  0.88000000000E+00 0.  1.
        -11    1    4    4    0    0 -0.80132249228E-01  0.15762653778E-01  0.14026284456E-01  0.82865169988E-01  0.51100000000E-03 0.  1.
         11    1    4    4    0    0 -0.41023728269E-01  0.19835487032E-01 -0.44394231450E-03  0.45572481090E-01  0.51100000000E-03 0. -1.
</event>
<event>
 8    1  0.1088088E+005  0.1043930E+01  0.7957747E-01            NaN
         13   -1    0    0    0    0  0.00000000000E+00  0.00000000000E+00  0.74505805969E-08  0.10566000000E+00  0.10566000000E+00 0.  1.
     999900   -1    0    0    0    0 -0.00000000000E+00 -0.00000000000E+00 -0.74505805969E-08  0.93827000000E+00  0.93827000000E+00 0. -1.
     999902    2    1    2    0    0 -0.17733309717E-01  0.11347914630E-01 -0.65836428193E-02  0.10218712196E+01  0.10216331042E+01 0.  0.
     999903    2    3    3    0    0  0.59781925838E-01  0.79541562375E-01 -0.84948718085E-01  0.13237694173E+00  0.20165098477E-01 0.  0.
         14    1    1    2    0    0  0.17733309717E-01 -0.11347914630E-01  0.65836428193E-02  0.22058780400E-01  0.00000000000E+00 0. -1.
     999901    1    3    3    0    0 -0.77515235554E-01 -0.68193647745E-01  0.78365075266E-01  0.88949427787E+00  0.88000000000E+00 0. -1.
        -11    1    4    4    0    0  0.25498424845E-02  0.12098237310E-01 -0.15982695239E-01  0.20213280556E-01  0.51100000000E-03 0.  1.
         11    1    4    4    0    0  0.57232083353E-01  0.67443325065E-01 -0.68966022846E-01  0.11216366118E+00  0.51100000000E-03 0. -1.
</event>
<event>
 8    1  0.1088088E+005  0.1043930E+01  0.7957747E-01            NaN
         13   -1    0    0    0    0  0.00000000000E+00  0.00000000000E+00  0.74505805969E-08  0.10566000000E+00  0.10566000000E+00 0. -1.
     999900   -1    0    0    0    0 -0.00000000000E+00 -0.00000000000E+00 -0.74505805969E-08  0.93827000000E+00  0.93827000000E+00 0.  1.
     999902    2    1    2    0    0  0.19168639247E-01 -0.96062402445E-02 -0.11589634612E-01  0.10195571419E+01  0.10192657795E+01 0.  0.
     999903    2    3    3    0    0  0.11249767700E+00 -0.61123146600E-01 -0.30147000875E-01  0.13292944281E+00  0.19225730744E-01 0.  0.
         14    1    1    2    0    0 -0.19168639247E-01  0.96062402445E-02  0.11589634612E-01  0.24372858114E-01  0.00000000000E+00 0. -1.
     999901    1    3    3    0    0 -0.93329037754E-01  0.51516906356E-01  0.18557366264E-01  0.88662769908E+00  0.88000000000E+00 0.  1.
        -11    1    4    4    0    0  0.96267841770E-01 -0.45658273547E-01 -0.29240211780E-01  0.11048722283E+00  0.51100000000E-03 0. -1.
         11    1    4    4    0    0  0.16229835231E-01 -0.15464873053E-01 -0.90678909520E-03  0.22442219980E-01  0.51100000000E-03 0.  1.
</event>
<event>
 8    1  0.1088088E+005  0.1043930E+01  0.7957747E-01            NaN
         13   -1    0    0    0    0  0.00000000000E+00  0.00000000000E+00  0.74505805969E-08  0.10566000000E+00  0.10566000000E+00 0.  1.
     999900   -1    0    0    0    0 -0.00000000000E+00 -0.00000000000E+00 -0.74505805969E-08  0.93827000000E+00  0.93827000000E+00 0. -1.
     999902    2    1    2    0    0 -0.20296483729E-01  0.11857809620E-01  0.44860499285E-03  0.10204192334E+01  0.10201483498E+01 0.  0.
     999903    2    3    3    0    0  0.11730078746E+00 -0.39890009742E-01 -0.24066620155E-01  0.12788808988E+00  0.20627014102E-01 0.  0.
         14    1    1    2    0    0  0.20296483729E-01 -0.11857809620E-01 -0.44860499285E-03  0.23510766623E-01  0.00000000000E+00 0. -1.
     999901    1    3    3    0    0 -0.13759727119E+00  0.51747819362E-01  0.24515225147E-01  0.89253114350E+00  0.88000000000E+00 0.  1.
        -11    1    4    4    0    0  0.92352685305E-01 -0.35286005332E-01 -0.11378383122E-01  0.99518085687E-01  0.51100000000E-03 0. -1.
         11    1    4    4    0    0  0.24948102158E-01 -0.46040044100E-02 -0.12688237033E-01  0.28370004193E-01  0.51100000000E-03 0.  1.
</event>
<event>
 8    1  0.1088088E+005  0.1043930E+01  0.7957747E-01            NaN
         13   -1    0    0    0    0  0.00000000000E+00  0.00000000000E+00  0.74505805969E-08  0.10566000000E+00  0.10566000000E+00 0. -1.
     999900   -1    0    0    0    0 -0.00000000000E+00 -0.00000000000E+00 -0.74505805969E-08  0.93827000000E+00  0.93827000000E+00 0.  1.
     999902    2    1    2    0    0  0.22010644116E-01  0.95275512787E-02  0.48220937125E-03  0.10199409355E+01  0.10196587845E+01 0.  0.
     999903    2    3    3    0    0 -0.11717492839E+00 -0.18180585316E-01 -0.42991205329E-01  0.12751149731E+00  0.18720061088E-01 0.  0.
         14    1    1    2    0    0 -0.22010644116E-01 -0.95275512787E-02 -0.48220937125E-03  0.23989064459E-01  0.00000000000E+00 0. -1.
     999901    1    3    3    0    0  0.13918557250E+00  0.27708136595E-01  0.43473414700E-01  0.89242943823E+00  0.88000000000E+00 0. -1.
        -11    1    4    4    0    0 -0.82015514791E-01 -0.16009655943E-01 -0.38461828056E-01  0.91991451170E-01  0.51100000000E-03 0. -1.
         11    1    4    4    0    0 -0.35159413595E-01 -0.21709293729E-02 -0.45293772724E-02  0.35520046145E-01  0.51100000000E-03 0.  1.
</event>
<event>
 8    1  0.1088088E+005  0.1043930E+01  0.7957747E-01            NaN
         13   -1    0    0    0    0  0.00000000000E+00  0.00000000000E+00  0.74505805969E-08  0.10566000000E+00  0.10566000000E+00 0. -1.
     999900   -1    0    0    0    0 -0.00000000000E+00 -0.00000000000E+00 -0.74505805969E-08  0.93827000000E+00  0.93827000000E+00 0.  1.
     999902    2    1    2    0    0  0.13329033487E-01 -0.15643955026E-02  0.14846213558E-01  0.10239169911E+01  0.10237213899E+01 0.  0.
     999903    2    3    3    0    0  0.50330961883E-01 -0.26510639896E-01 -0.11817418598E+00  0.13280202408E+00  0.20861917807E-01 0.  0.
         14    1    1    2    0    0 -0.13329033487E-01  0.15643955026E-02 -0.14846213558E-01  0.20013008869E-01  0.00000000000E+00 0.  1.
     999901    1    3    3    0    0 -0.37001928396E-01  0.24946244393E-01  0.13302039954E+00  0.89111496705E+00  0.88000000000E+00 0. -1.
        -11    1    4    4    0    0  0.14018032480E-01 -0.21397188853E-02 -0.48545805084E-01  0.50577069348E-01  0.51100000000E-03 0.  1.
         11    1    4    4    0    0  0.36312929403E-01 -0.24370921010E-01 -0.69628380898E-01  0.82224954729E-01  0.51100000000E-03 0. -1.
</event>
<event>
 8    1  0.1088088E+005  0.1043930E+01  0.7957747E-01            NaN
         13   -1    0    0    0    0  0.00000000000E+00  0.00000000000E+00  0.74505805969E-08  0.10566000000E+00  0.10566000000E+00 0.  1.
     999900   -1    0    0    0    0 -0.00000000000E+00 -0.00000000000E+00 -0.74505805969E-08  0.93827000000E+00  0.93827000000E+00 0. -1.
     999902    2    1    2    0    0  0.51849354270E-02  0.22447167006E-01  0.47754119213E-02  0.10204020715E+01  0.10201307877E+01 0.  0.
     999903    2    3    3    0    0  0.54734904883E-01 -0.28921357715E-01 -0.11217132211E+00  0.12980089058E+00  0.20820925689E-01 0.  0.
         14    1    1    2    0    0 -0.51849354270E-02 -0.22447167006E-01 -0.47754119213E-02  0.23527928532E-01  0.00000000000E+00 0.  1.
     999901    1    3    3    0    0 -0.49549969456E-01  0.51368524720E-01  0.11694673403E+00  0.89060118089E+00  0.88000000000E+00 0.  1.
        -11    1    4    4    0    0  0.30157950416E-01 -0.64788360138E-02 -0.41772891018E-01  0.51929883828E-01  0.51100000000E-03 0. -1.
         11    1    4    4    0    0  0.24576954467E-01 -0.22442521701E-01 -0.70398431090E-01  0.77871006749E-01  0.51100000000E-03 0.  1.
</event>
<event>
 8    1  0.1088088E+005  0.1043930E+01  0.7957747E-01            NaN
         13   -1    0    0    0    0  0.00000000000E+00  0.00000000000E+00  0.74505805969E-08  0.10566000000E+00  0.10566000000E+00 0.  1.
     999900   -1    0    0    0    0 -0.00000000000E+00 -0.00000000000E+00 -0.74505805969E-08  0.93827000000E+00  0.93827000000E+00 0. -1.
     999902    2    1    2    0    0  0.23380864255E-01 -0.47738575516E-02  0.14429139727E-03  0.10200663174E+01  0.10197871427E+01 0.  0.
     999903    2    3    3    0    0  0.10762166620E-01 -0.12662560199E+00  0.27761825947E-01  0.13115135665E+00  0.16735951162E-01 0.  0.
         14    1    1    2    0    0 -0.23380864255E-01  0.47738575516E-02 -0.14429139727E-03  0.23863682642E-01  0.00000000000E+00 0.  1.
     999901    1    3    3    0    0  0.12618697635E-01  0.12185174444E+00 -0.27617534550E-01  0.88891496071E+00  0.88000000000E+00 0.  1.
        -11    1    4    4    0    0  0.10267207037E-01 -0.36772608791E-01  0.11106419655E-01  0.39764984297E-01  0.51100000000E-03 0.  1.
         11    1    4    4    0    0  0.49495958290E-03 -0.89852993201E-01  0.16655406292E-01  0.91386372354E-01  0.51100000000E-03 0. -1.
</event>
<event>
 8    1  0.1088088E+005  0.1043930E+01  0.7957747E-01            NaN
         13   -1    0    0    0    0  0.00000000000E+00  0.00000000000E+00  0.74505805969E-08  0.10566000000E+00  0.10566000000E+00 0. -1.
     999900   -1    0    0    0    0 -0.00000000000E+00 -0.00000000000E+00 -0.74505805969E-08  0.93827000000E+00  0.93827000000E+00 0. -1.
     999902    2    1    2    0    0  0.81333017461E-02 -0.46543246520E-02  0.21089114556E-01  0.10208526499E+01  0.10205917738E+01 0.  0.
     999903    2    3    3    0    0 -0.74089381873E-01  0.78185096978E-01  0.72967278224E-01  0.13163148317E+00  0.20011940807E-01 0.  0.
         14    1    1    2    0    0 -0.81333017461E-02  0.46543246520E-02 -0.21089114556E-01  0.23077350108E-01  0.00000000000E+00 0.  1.
     999901    1    3    3    0    0  0.82222683619E-01 -0.82839421630E-01 -0.51878163668E-01  0.88922116672E+00  0.88000000000E+00 0. -1.
        -11    1    4    4    0    0 -0.51180672289E-01  0.39816147290E-01  0.41971449897E-01  0.77244097046E-01  0.51100000000E-03 0. -1.
         11    1    4    4    0    0 -0.22908709584E-01  0.38368949688E-01  0.30995828327E-01  0.54387386126E-01  0.51100000000E-03 0.  1.
</event>
<event>
 8    1  0.1098176E+005  0.1043930E+01  0.7957747E-01            NaN
         13   -1    0    0    0    0  0.00000000000E+00  0.00000000000E+00  0.74505805969E-08  0.10566000000E+00  0.10566000000E+00 0. -1.
     999900   -1    0    0    0    0 -0.00000000000E+00 -0.00000000000E+00 -0.74505805969E-08  0.93827000000E+00  0.93827000000E+00 0.  1.
     999902    2    1    2    0    0 -0.26841152895E-01  0.69084513015E-02  0.65814244248E-02  0.10154433481E+01  0.10150436956E+01 0.  0.
     999903    2    3    3    0    0  0.62292301448E-01  0.10823460276E+00 -0.26003074917E-02  0.12510854263E+00  0.70940670006E-02 0.  0.
         14    1    1    2    0    0  0.26841152895E-01 -0.69084513015E-02 -0.65814244248E-02  0.28486651884E-01  0.00000000000E+00 0.  1.
     999901    1    3    3    0    0 -0.89133454343E-01 -0.10132615146E+00  0.91817319165E-02  0.89033480548E+00  0.88000000000E+00 0. -1.
        -11    1    4    4    0    0  0.35025945014E-01  0.60810737472E-01  0.20224397437E-02  0.70207649153E-01  0.51100000000E-03 0.  1.
         11    1    4    4    0    0  0.27266356434E-01  0.47423865288E-01 -0.46227472354E-02  0.54900893481E-01  0.51100000000E-03 0. -1.
</event>
<event>
 8    1  0.1088088E+005  0.1043930E+01  0.7957747E-01            NaN
         13   -1    0    0    0    0  0.00000000000E+00  0.00000000000E+00  0.74505805969E-08  0.10566000000E+00  0.10566000000E+00 0.  1.
     999900   -1    0    0    0    0 -0.00000000000E+00 -0.00000000000E+00 -0.74505805969E-08  0.93827000000E+00  0.93827000000E+00 0.  1.
     999902    2    1    2    0    0  0.68701625582E-02 -0.20197873756E-01  0.10213995540E-01  0.10202766928E+01  0.10200024759E+01 0.  0.
     999903    2    3    3    0    0 -0.23742401964E-01 -0.13248550768E-01 -0.12505900002E+00  0.12938713423E+00  0.19027644896E-01 0.  0.
         14    1    1    2    0    0 -0.68701625582E-02  0.20197873756E-01 -0.10213995540E-01  0.23653307226E-01  0.00000000000E+00 0.  1.
     999901    1    3    3    0    0  0.30612564522E-01 -0.69493229878E-02  0.13527299556E+00  0.89088955854E+00  0.88000000000E+00 0. -1.
        -11    1    4    4    0    0 -0.26389446463E-01 -0.99984717722E-02 -0.97379095767E-01  0.10138698997E+00  0.51100000000E-03 0.  1.
         11    1    4    4    0    0  0.26470444996E-02 -0.32500789962E-02 -0.27679904250E-01  0.28000144256E-01  0.51100000000E-03 0. -1.
</event>
<event>
 8    1  0.1088088E+005  0.1043930E+01  0.7957747E-01            NaN
         13   -1    0    0    0    0  0.00000000000E+00  0.00000000000E+00  0.74505805969E-08  0.10566000000E+00  0.10566000000E+00 0. -1.
     999900   -1    0    0    0    0 -0.00000000000E+00 -0.00000000000E+00 -0.74505805969E-08  0.93827000000E+00  0.93827000000E+00 0.  1.
     999902    2    1    2    0    0 -0.22684120112E-01  0.69199431038E-03 -0.62825489603E-02  0.10203817817E+01  0.10201100244E+01 0.  0.
     999903    2    3    3    0    0 -0.22886293723E-01 -0.83603710203E-01 -0.98372114720E-01  0.13157004983E+00  0.10965503076E-01 0.  0.
         14    1    1    2    0    0  0.22684120112E-01 -0.69199431038E-03  0.62825489603E-02  0.23548218251E-01  0.00000000000E+00 0.  1.
     999901    1    3    3    0    0  0.20217361082E-03  0.84295704514E-01  0.92089565760E-01  0.88881173192E+00  0.88000000000E+00 0. -1.
        -11    1    4    4    0    0 -0.18424039630E-01 -0.48255003905E-01 -0.61006685014E-01  0.79937896993E-01  0.51100000000E-03 0.  1.
         11    1    4    4    0    0 -0.44622540922E-02 -0.35348706298E-01 -0.37365429706E-01  0.51632152837E-01  0.51100000000E-03 0. -1.
</event>
<event>
 8    1  0.1088088E+005  0.1043930E+01  0.7957747E-01            NaN
         13   -1    0    0    0    0  0.00000000000E+00  0.00000000000E+00  0.74505805969E-08  0.10566000000E+00  0.10566000000E+00 0.  1.
     999900   -1    0    0    0    0 -0.00000000000E+00 -0.00000000000E+00 -0.74505805969E-08  0.93827000000E+00  0.93827000000E+00 0.  1.
     999902    2    1    2    0    0 -0.15541548469E-01  0.12173117005E-01 -0.12816648588E-01  0.10203929869E+01  0.10201214911E+01 0.  0.
     999903    2    3    3    0    0 -0.20849323355E-01  0.10979827894E+00 -0.70760686634E-01  0.13308449695E+00  0.14630523348E-01 0.  0.
         14    1    1    2    0    0  0.15541548469E-01 -0.12173117005E-01  0.12816648588E-01  0.23537013138E-01  0.00000000000E+00 0.  1.
     999901    1    3    3    0    0  0.53077748861E-02 -0.97625161938E-01  0.57944038046E-01  0.88730848991E+00  0.88000000000E+00 0. -1.
        -11    1    4    4    0    0 -0.19403670430E-01  0.73383551494E-01 -0.52702227193E-01  0.92409057609E-01  0.51100000000E-03 0.  1.
         11    1    4    4    0    0 -0.14456529254E-02  0.36414727449E-01 -0.18058459441E-01  0.40675439345E-01  0.51100000000E-03 0. -1.
</event>
<event>
 8    1  0.1088088E+005  0.1043930E+01  0.7957747E-01            NaN
         13   -1    0    0    0    0  0.00000000000E+00  0.00000000000E+00  0.74505805969E-08  0.10566000000E+00  0.10566000000E+00 0.  1.
     999900   -1    0    0    0    0 -0.00000000000E+00 -0.00000000000E+00 -0.74505805969E-08  0.93827000000E+00  0.93827000000E+00 0. -1.
     999902    2    1    2    0    0 -0.11181636426E-01 -0.19921793471E-01 -0.42618475026E-02  0.10206905897E+01  0.10204259942E+01 0.  0.
     999903    2    3    3    0    0 -0.37244793874E-01 -0.11881185646E+00 -0.44281686185E-01  0.13386472163E+00  0.21341603952E-01 0.  0.
         14    1    1    2    0    0  0.11181636426E-01  0.19921793471E-01  0.42618475026E-02  0.23239410328E-01  0.00000000000E+00 0.  1.
     999901    1    3    3    0    0  0.26063157448E-01  0.98890062993E-01  0.40019838683E-01  0.88682586804E+00  0.88000000000E+00 0.  1.
        -11    1    4    4    0    0 -0.94950641805E-02 -0.31885321653E-01 -0.21061631323E-02  0.33339571456E-01  0.51100000000E-03 0.  1.
         11    1    4    4    0    0 -0.27749729693E-01 -0.86926534811E-01 -0.42175523053E-01  0.10052515018E+00  0.51100000000E-03 0. -1.
</event>
<event>
 8    1  0.1088088E+005  0.1043930E+01  0.7957747E-01            NaN
         13   -1    0    0    0    0  0.00000000000E+00  0.00000000000E+00  0.74505805969E-08  0.10566000000E+00  0.10566000000E+00 0. -1.
     999900   -1    0    0    0    0 -0.00000000000E+00 -0.00000000000E+00 -0.74505805969E-08  0.93827000000E+00  0.93827000000E+00 0.  1.
     999902    2    1    2    0    0  0.70717245262E-03 -0.21426746375E-01  0.16077516840E-03  0.10224909841E+01  0.10222661988E+01 0.  0.
     999903    2    3    3    0    0 -0.60068523387E-01  0.23796749363E-01  0.11349044103E+00  0.13199535643E+00  0.19188046607E-01 0.  0.
         14    1    1    2    0    0 -0.70717245262E-03  0.21426746375E-01 -0.16077516840E-03  0.21439015876E-01  0.00000000000E+00 0. -1.
     999901    1    3    3    0    0  0.60775695839E-01 -0.45223495738E-01 -0.11332966586E+00  0.89049562769E+00  0.88000000000E+00 0.  1.
        -11    1    4    4    0    0 -0.11948607858E-01  0.70876378966E-02  0.41786392741E-01  0.44038251328E-01  0.51100000000E-03 0.  1.
         11    1    4    4    0    0 -0.48119915529E-01  0.16709111466E-01  0.71704048289E-01  0.87957105105E-01  0.51100000000E-03 0. -1.
</event>
<event>
 8    1  0.1088088E+005  0.1043930E+01  0.7957747E-01            NaN
         13   -1    0    0    0    0  0.00000000000E+00  0.00000000000E+00  0.74505805969E-08  0.10566000000E+00  0.10566000000E+00 0. -1.
     999900   -1    0    0    0    0 -0.00000000000E+00 -0.00000000000E+00 -0.74505805969E-08  0.93827000000E+00  0.93827000000E+00 0.  1.
     999902    2    1    2    0    0 -0.43281439448E-02  0.12280412300E-01 -0.18765530052E-01  0.10210895430E+01  0.10208340553E+01 0.  0.
     999903    2    3    3    0    0 -0.59069362220E-01  0.74010992454E-01 -0.93099118820E-01  0.13410997849E+00  0.18740967101E-01 0.  0.
         14    1    1    2    0    0  0.43281439448E-02 -0.12280412300E-01  0.18765530052E-01  0.22840456965E-01  0.00000000000E+00 0. -1.
     999901    1    3    3    0    0  0.54741218275E-01 -0.61730580154E-01  0.74333588768E-01  0.88697956455E+00  0.88000000000E+00 0.  1.
        -11    1    4    4    0    0 -0.54888830163E-01  0.57589657668E-01 -0.77728250557E-01  0.11122632064E+00  0.51100000000E-03 0. -1.
         11    1    4    4    0    0 -0.41805320567E-02  0.16421334786E-01 -0.15370868262E-01  0.22883657850E-01  0.51100000000E-03 0.  1.
</event>
<event>
 8    1  0.1088088E+005  0.1043930E+01  0.7957747E-01            NaN
         13   -1    0    0    0    0  0.00000000000E+00  0.00000000000E+00  0.74505805969E-08  0.10566000000E+00  0.10566000000E+00 0.  1.
     999900   -1    0    0    0    0 -0.00000000000E+00 -0.00000000000E+00 -0.74505805969E-08  0.93827000000E+00  0.93827000000E+00 0. -1.
     999902    2    1    2    0    0 -0.88990939904E-02 -0.11478272509E-01 -0.19419763529E-01  0.10196798076E+01  0.10193914058E+01 0.  0.
     999903    2    3    3    0    0 -0.12008035625E+00 -0.37877231157E-01  0.30068009990E-01  0.13091256150E+00  0.19494536041E-01 0.  0.
         14    1    1    2    0    0  0.88990939904E-02  0.11478272509E-01  0.19419763529E-01  0.24250192353E-01  0.00000000000E+00 0.  1.
     999901    1    3    3    0    0  0.11118126226E+00  0.26398958648E-01 -0.49487773520E-01  0.88876724615E+00  0.88000000000E+00 0. -1.
        -11    1    4    4    0    0 -0.18529499392E-01 -0.68623318400E-02  0.12225297170E-01  0.23241190974E-01  0.51100000000E-03 0. -1.
         11    1    4    4    0    0 -0.10155085686E+00 -0.31014899317E-01  0.17842712820E-01  0.10767137053E+00  0.51100000000E-03 0.  1.
</event>
<event>
 8    1  0.1088088E+005  0.1043930E+01  0.7957747E-01            NaN
         13   -1    0    0    0    0  0.00000000000E+00  0.00000000000E+00  0.74505805969E-08  0.10566000000E+00  0.10566000000E+00 0. -1.
     999900   -1    0    0    0    0 -0.00000000000E+00 -0.00000000000E+00 -0.74505805969E-08  0.93827000000E+00  0.93827000000E+00 0.  1.
     999902    2    1    2    0    0  0.12784905550E-01  0.80810516406E-02  0.74997930718E-02  0.10270479355E+01  0.10269091770E+01 0.  0.
     999903    2    3    3    0    0  0.50465482745E-01  0.11691480755E+00 -0.48781814207E-01  0.13776045013E+00  0.19556048947E-01 0.  0.
         14    1    1    2    0    0 -0.12784905550E-01 -0.80810516406E-02 -0.74997930718E-02  0.16882064496E-01  0.00000000000E+00 0.  1.
     999901    1    3    3    0    0 -0.37680577195E-01 -0.10883375591E+00  0.56281607278E-01  0.88928748537E+00  0.88000000000E+00 0. -1.
        -11    1    4    4    0    0  0.10454640940E-01  0.23231483637E-01 -0.18485837406E-01  0.31479972281E-01  0.51100000000E-03 0.  1.
         11    1    4    4    0    0  0.40010841805E-01  0.93683323910E-01 -0.30295976800E-01  0.10628047785E+00  0.51100000000E-03 0. -1.
</event>
<event>
 8    1  0.1088088E+005  0.1043930E+01  0.7957747E-01            NaN
         13   -1    0    0    0    0  0.00000000000E+00  0.00000000000E+00  0.74505805969E-08  0.10566000000E+00  0.10566000000E+00 0. -1.
     999900   -1    0    0    0    0 -0.00000000000E+00 -0.00000000000E+00 -0.74505805969E-08  0.93827000000E+00  0.93827000000E+00 0.  1.
     999902    2    1    2    0    0  0.11553266082E-02 -0.86041564457E-02 -0.19099743695E-01  0.10229498547E+01  0.10227346864E+01 0.  0.
     999903    2    3    3    0    0 -0.12402899182E+00 -0.43532649597E-01 -0.10540857494E-01  0.13336322724E+00  0.19908749599E-01 0.  0.
         14    1    1    2    0    0 -0.11553266082E-02  0.86041564457E-02  0.19099743695E-01  0.20980145303E-01  0.00000000000E+00 0. -1.
     999901    1    3    3    0    0  0.12518431843E+00  0.34928493152E-01 -0.85588862013E-02  0.88958662746E+00  0.88000000000E+00 0.  1.
        -11    1    4    4    0    0 -0.83388761079E-01 -0.20643348734E-01 -0.11716921172E-01  0.86702829734E-01  0.51100000000E-03 0. -1.
         11    1    4    4    0    0 -0.40640230742E-01 -0.22889300864E-01  0.11760636776E-02  0.46660397507E-01  0.51100000000E-03 0.  1.
</event>
<event>
 8    1  0.1088088E+005  0.1043930E+01  0.7957747E-01            NaN
         13   -1    0    0    0    0  0.00000000000E+00  0.00000000000E+00  0.74505805969E-08  0.10566000000E+00  0.10566000000E+00 0. -1.
     999900   -1    0    0    0    0 -0.00000000000E+00 -0.00000000000E+00 -0.74505805969E-08  0.93827000000E+00  0.93827000000E+00 0.  1.
     999902    2    1    2    0    0 -0.97143051119E-02  0.22648255118E-02  0.21240936811E-01  0.10204635440E+01  0.10201936925E+01 0.  0.
     999903    2    3    3    0    0 -0.92775358879E-01 -0.67315927132E-01  0.62023094011E-01  0.13288041885E+00  0.25916023260E-01 0.  0.
         14    1    1    2    0    0  0.97143051119E-02 -0.22648255118E-02 -0.21240936811E-01  0.23466455954E-01  0.00000000000E+00 0.  1.
     999901    1    3    3    0    0  0.83061053767E-01  0.69580752644E-01 -0.40782157200E-01  0.88758312520E+00  0.88000000000E+00 0. -1.
        -11    1    4    4    0    0 -0.36410001854E-01 -0.11490130045E-01  0.20008361558E-01  0.43108084818E-01  0.51100000000E-03 0. -1.
         11    1    4    4    0    0 -0.56365357025E-01 -0.55825797087E-01  0.42014732453E-01  0.89772334029E-01  0.51100000000E-03 0.  1.
</event>
<event>
 8    1  0.1088088E+005  0.1043930E+01  0.7957747E-01            NaN
         13   -1    0    0    0    0  0.00000000000E+00  0.00000000000E+00  0.74505805969E-08  0.10566000000E+00  0.10566000000E+00 0.  1.
     999900   -1    0    0    0    0 -0.00000000000E+00 -0.00000000000E+00 -0.74505805969E-08  0.93827000000E+00  0.93827000000E+00 0.  1.
     999902    2    1    2    0    0 -0.22041375853E-01  0.27472247257E-02  0.70130567953E-02  0.10206372445E+01  0.10203714188E+01 0.  0.
     999903    2    3    3    0    0  0.54456267617E-01  0.11588703003E+00  0.10656577471E-01  0.13009483661E+00  0.20391543813E-01 0.  0.
         14    1    1    2    0    0  0.22041375853E-01 -0.27472247257E-02 -0.70130567953E-02  0.23292755500E-01  0.00000000000E+00 0.  1.
     999901    1    3    3    0    0 -0.76497643470E-01 -0.11313980530E+00 -0.36435206758E-02  0.89054240789E+00  0.88000000000E+00 0.  1.
        -11    1    4    4    0    0  0.36567511139E-01  0.56876601062E-01  0.10502630701E-01  0.68430234487E-01  0.51100000000E-03 0. -1.
         11    1    4    4    0    0  0.17888756478E-01  0.59010428965E-01  0.15394677054E-03  0.61664602127E-01  0.51100000000E-03 0.  1.
</event>
<event>
 8    1  0.1088088E+005  0.1043930E+01  0.7957747E-01            NaN
         13   -1    0    0    0    0  0.00000000000E+00  0.00000000000E+00  0.74505805969E-08  0.10566000000E+00  0.10566000000E+00 0. -1.
     999900   -1    0    0    0    0 -0.00000000000E+00 -0.00000000000E+00 -0.74505805969E-08  0.93827000000E+00  0.93827000000E+00 0.  1.
     999902    2    1    2    0    0 -0.13961469690E-01  0.37218336547E-02  0.20602801017E-01  0.10187655391E+01  0.10184546988E+01 0.  0.
     999903    2    3    3    0    0  0.64198823924E-01 -0.10831704321E+00  0.12995927737E-01  0.12819291100E+00  0.20259749537E-01 0.  0.
         14    1    1    2    0    0  0.13961469690E-01 -0.37218336547E-02 -0.20602801017E-01  0.25164460881E-01  0.00000000000E+00 0.  1.
     999901    1    3    3    0    0 -0.78160293614E-01  0.11203887686E+00  0.76068732801E-02  0.89057262812E+00  0.88000000000E+00 0.  1.
        -11    1    4    4    0    0  0.21979146409E-01 -0.47876288609E-01 -0.29299503443E-02  0.52764264591E-01  0.51100000000E-03 0.  1.
         11    1    4    4    0    0  0.42219677514E-01 -0.60440754600E-01  0.15925878081E-01  0.75428646413E-01  0.51100000000E-03 0. -1.
</event>
<event>
 8    1  0.1088088E+005  0.1043930E+01  0.7957747E-01            NaN
         13   -1    0    0    0    0  0.00000000000E+00  0.00000000000E+00  0.74505805969E-08  0.10566000000E+00  0.10566000000E+00 0.  1.
     999900   -1    0    0    0    0 -0.00000000000E+00 -0.00000000000E+00 -0.74505805969E-08  0.93827000000E+00  0.93827000000E+00 0. -1.
     999902    2    1    2    0    0 -0.64711115911E-02  0.10116683469E-01  0.20124880255E-01  0.10204942714E+01  0.10202251343E+01 0.  0.
     999903    2    3    3    0    0 -0.10203174543E+00  0.39853918989E-01 -0.67893274264E-01  0.13045869153E+00  0.20277119362E-01 0.  0.
         14    1    1    2    0    0  0.64711115911E-02 -0.10116683469E-01 -0.20124880255E-01  0.23435728598E-01  0.00000000000E+00 0. -1.
     999901    1    3    3    0    0  0.95560633843E-01 -0.29737235520E-01  0.88018154519E-01  0.89003557987E+00  0.88000000000E+00 0.  1.
        -11    1    4    4    0    0 -0.34888494463E-01  0.23829345048E-01 -0.28687469715E-01  0.51071291064E-01  0.51100000000E-03 0. -1.
         11    1    4    4    0    0 -0.67143250971E-01  0.16024573941E-01 -0.39205804549E-01  0.79387400463E-01  0.51100000000E-03 0.  1.
</event>
<event>
 8    1  0.1088088E+005  0.1043930E+01  0.7957747E-01            NaN
         13   -1    0    0    0    0  0.00000000000E+00  0.00000000000E+00  0.74505805969E-08  0.10566000000E+00  0.10566000000E+00 0. -1.
     999900   -1    0    0    0    0 -0.00000000000E+00 -0.00000000000E+00 -0.74505805969E-08  0.93827000000E+00  0.93827000000E+00 0. -1.
     999902    2    1    2    0    0 -0.46596297405E-02  0.11974279112E-01 -0.19270829441E-01  0.10207683857E+01  0.10205055790E+01 0.  0.
     999903    2    3    3    0    0  0.11142527271E+00  0.41967215794E-01  0.48210789828E-01  0.13007817594E+00  0.20474691658E-01 0.  0.
         14    1    1    2    0    0  0.46596297405E-02 -0.11974279112E-01  0.19270829441E-01  0.23161614299E-01  0.00000000000E+00 0. -1.
     999901    1    3    3    0    0 -0.11608490246E+00 -0.29992936683E-01 -0.67481619269E-01  0.89069020976E+00  0.88000000000E+00 0. -1.
        -11    1    4    4    0    0  0.89021358434E-01  0.41746826779E-01  0.37424458868E-01  0.10520670628E+00  0.51100000000E-03 0.  1.
         11    1    4    4    0    0  0.22403914281E-01  0.22038901502E-03  0.10786330960E-01  0.24871469659E-01  0.51100000000E-03 0. -1.
</event>
<event>
 8    1  0.1088088E+005  0.1043930E+01  0.7957747E-01            NaN
         13   -1    0    0    0    0  0.00000000000E+00  0.00000000000E+00  0.74505805969E-08  0.10566000000E+00  0.10566000000E+00 0. -1.
     999900   -1    0    0    0    0 -0.00000000000E+00 -0.00000000000E+00 -0.74505805969E-08  0.93827000000E+00  0.93827000000E+00 0. -1.
     999902    2    1    2    0    0 -0.69578893170E-02 -0.81329783788E-02  0.21323879527E-01  0.10200707167E+01  0.10197916462E+01 0.  0.
     999903    2    3    3    0    0  0.72610485768E-01 -0.25479355968E-01 -0.10035692109E+00  0.12797305369E+00  0.19598740695E-01 0.  0.
         14    1    1    2    0    0  0.69578893170E-02  0.81329783788E-02 -0.21323879527E-01  0.23859283290E-01  0.00000000000E+00 0.  1.
     999901    1    3    3    0    0 -0.79568375085E-01  0.17346377589E-01  0.12168080061E+00  0.89209766302E+00  0.88000000000E+00 0.  1.
        -11    1    4    4    0    0  0.35991874475E-01 -0.17759149393E-01 -0.65548110828E-01  0.76861032842E-01  0.51100000000E-03 0. -1.
         11    1    4    4    0    0  0.36618611292E-01 -0.77202065752E-02 -0.34808810257E-01  0.51112020847E-01  0.51100000000E-03 0.  1.
</event>
<event>
 8    1  0.1088088E+005  0.1043930E+01  0.7957747E-01            NaN
         13   -1    0    0    0    0  0.00000000000E+00  0.00000000000E+00  0.74505805969E-08  0.10566000000E+00  0.10566000000E+00 0. -1.
     999900   -1    0    0    0    0 -0.00000000000E+00 -0.00000000000E+00 -0.74505805969E-08  0.93827000000E+00  0.93827000000E+00 0. -1.
     999902    2    1    2    0    0 -0.22694132984E-02  0.18832965033E-01 -0.16366327148E-01  0.10188763082E+01  0.10185682323E+01 0.  0.
     999903    2    3    3    0    0  0.60277868420E-01 -0.93674705374E-01 -0.60991676432E-01  0.12839241719E+00  0.18874754267E-01 0.  0.
         14    1    1    2    0    0  0.22694132984E-02 -0.18832965033E-01  0.16366327148E-01  0.25053691803E-01  0.00000000000E+00 0. -1.
     999901    1    3    3    0    0 -0.62547281719E-01  0.11250767041E+00  0.44625349284E-01  0.89048389101E+00  0.88000000000E+00 0.  1.
        -11    1    4    4    0    0  0.27938292619E-01 -0.27003426531E-01 -0.22120162590E-01  0.44713487371E-01  0.51100000000E-03 0.  1.
         11    1    4    4    0    0  0.32339575801E-01 -0.66671278843E-01 -0.38871513843E-01  0.83678929815E-01  0.51100000000E-03 0. -1.
</event>
<event>
 8    1  0.1088088E+005  0.1043930E+01  0.7957747E-01            NaN
         13   -1    0    0    0    0  0.00000000000E+00  0.00000000000E+00  0.74505805969E-08  0.10566000000E+00  0.10566000000E+00 0. -1.
     999900   -1    0    0    0    0 -0.00000000000E+00 -0.00000000000E+00 -0.74505805969E-08  0.93827000000E+00  0.93827000000E+00 0.  1.
     999902    2    1    2    0    0 -0.14470977232E-02  0.15482913027E-01 -0.16290229144E-01  0.10214092040E+01  0.10211608961E+01 0.  0.
     999903    2    3    3    0    0  0.20397455919E-01 -0.29644440245E-01 -0.12649504831E+00  0.13311940628E+00  0.20613831175E-01 0.  0.
         14    1    1    2    0    0  0.14470977232E-02 -0.15482913027E-01  0.16290229144E-01  0.22520796016E-01  0.00000000000E+00 0. -1.
     999901    1    3    3    0    0 -0.21844553642E-01  0.45127353272E-01  0.11020481917E+00  0.88828979770E+00  0.88000000000E+00 0. -1.
        -11    1    4    4    0    0  0.12598359205E-01 -0.29758560366E-01 -0.85904831994E-01  0.91783396378E-01  0.51100000000E-03 0. -1.
         11    1    4    4    0    0  0.77990967135E-02  0.11412012173E-03 -0.40590216317E-01  0.41336009902E-01  0.51100000000E-03 0.  1.
</event>
<event>
 8    1  0.1088088E+005  0.1043930E+01  0.7957747E-01            NaN
         13   -1    0    0    0    0  0.00000000000E+00  0.00000000000E+00  0.74505805969E-08  0.10566000000E+00  0.10566000000E+00 0. -1.
     999900   -1    0    0    0    0 -0.00000000000E+00 -0.00000000000E+00 -0.74505805969E-08  0.93827000000E+00  0.93827000000E+00 0.  1.
     999902    2    1    2    0    0  0.86864774228E-02 -0.17750938239E-01  0.12156361673E-01  0.10207281072E+01  0.10204643752E+01 0.  0.
     999903    2    3    3    0    0  0.46593682275E-01 -0.11806758742E+00  0.37597511247E-01  0.13385289710E+00  0.19801484336E-01 0.  0.
         14    1    1    2    0    0 -0.86864774228E-02  0.17750938239E-01 -0.12156361673E-01  0.23201892757E-01  0.00000000000E+00 0.  1.
     999901    1    3    3    0    0 -0.37907204852E-01  0.10031664918E+00 -0.25441149574E-01  0.88687521015E+00  0.88000000000E+00 0.  1.
        -11    1    4    4    0    0  0.20927235257E-01 -0.51669963044E-01  0.26780680135E-01  0.61848202932E-01  0.51100000000E-03 0.  1.
         11    1    4    4    0    0  0.25666447017E-01 -0.66397624376E-01  0.10816831112E-01  0.72004694163E-01  0.51100000000E-03 0. -1.
</event>
<event>
 8    1  0.1088088E+005  0.1043930E+01  0.7957747E-01            NaN
         13   -1    0    0    0    0  0.00000000000E+00  0.00000000000E+00  0.74505805969E-08  0.10566000000E+00  0.10566000000E+00 0. -1.
     999900   -1    0    0    0    0 -0.00000000000E+00 -0.00000000000E+00 -0.74505805969E-08  0.93827000000E+00  0.93827000000E+00 0. -1.
     999902    2    1    2    0    0 -0.10610757893E-01 -0.80480623374E-02  0.24490058828E-01  0.10160530835E+01  0.10156705894E+01 0.  0.
     999903    2    3    3    0    0  0.67156659679E-01 -0.87651031405E-01  0.62111183644E-01  0.12824693749E+00  0.19918774949E-01 0.  0.
         14    1    1    2    0    0  0.10610757893E-01  0.80480623374E-02 -0.24490058828E-01  0.27876916469E-01  0.00000000000E+00 0.  1.
     999901    1    3    3    0    0 -0.77767417572E-01  0.79602969068E-01 -0.37621124816E-01  0.88780614604E+00  0.88000000000E+00 0. -1.
        -11    1    4    4    0    0  0.21631732386E-01 -0.17316442114E-01  0.21851627056E-01  0.35292290085E-01  0.51100000000E-03 0.  1.
         11    1    4    4    0    0  0.45524927294E-01 -0.70334589292E-01  0.40259556588E-01  0.92954647402E-01  0.51100000000E-03 0. -1.
</event>
<event>
 8    1  0.1088088E+005  0.1043930E+01  0.7957747E-01            NaN
         13   -1    0    0    0    0  0.00000000000E+00  0.00000000000E+00  0.74505805969E-08  0.10566000000E+00  0.10566000000E+00 0. -1.
     999900   -1    0    0    0    0 -0.00000000000E+00 -0.00000000000E+00 -0.74505805969E-08  0.93827000000E+00  0.93827000000E+00 0.  1.
     999902    2    1    2    0    0 -0.15369126210E-01  0.13731124911E-01 -0.98424420737E-02  0.10210908341E+01  0.10208353756E+01 0.  0.
     999903    2    3    3    0    0 -0.37728337352E-01  0.12004550764E+00 -0.41507538333E-01  0.13384489268E+00  0.18900481850E-01 0.  0.
         14    1    1    2    0    0  0.15369126210E-01 -0.13731124911E-01  0.98424420737E-02  0.22839165872E-01  0.00000000000E+00 0. -1.
     999901    1    3    3    0    0  0.22359211143E-01 -0.10631438273E+00  0.31665096260E-01  0.88724594145E+00  0.88000000000E+00 0. -1.
        -11    1    4    4    0    0 -0.69923708233E-02  0.30804562259E-01 -0.18806711883E-01  0.36766395507E-01  0.51100000000E-03 0.  1.
         11    1    4    4    0    0 -0.30735966529E-01  0.89240945378E-01 -0.22700826450E-01  0.97078497171E-01  0.51100000000E-03 0. -1.
</event>
<event>
 8    1  0.1088088E+005  0.1043930E+01  0.7957747E-01            NaN
         13   -1    0    0    0    0  0.00000000000E+00  0.00000000000E+00  0.74505805969E-08  0.10566000000E+00  0.10566000000E+00 0.  1.
     999900   -1    0    0    0    0 -0.00000000000E+00 -0.00000000000E+00 -0.74505805969E-08  0.93827000000E+00  0.93827000000E+00 0. -1.
     999902    2    1    2    0    0 -0.69938354588E-02  0.21355031639E-01  0.92981857750E-02  0.10196111314E+01  0.10193210740E+01 0.  0.
     999903    2    3    3    0    0 -0.60332607932E-01  0.75360181549E-01 -0.86582290259E-01  0.13115480353E+00  0.19644565660E-01 0.  0.
         14    1    1    2    0    0  0.69938354588E-02 -0.21355031639E-01 -0.92981857750E-02  0.24318868589E-01  0.00000000000E+00 0. -1.
     999901    1    3    3    0    0  0.53338772474E-01 -0.54005149909E-01  0.95880476034E-01  0.88845632788E+00  0.88000000000E+00 0.  1.
        -11    1    4    4    0    0 -0.10540721417E-01  0.36063015460E-02 -0.89198560266E-02  0.14280657245E-01  0.51100000000E-03 0. -1.
         11    1    4    4    0    0 -0.49791886516E-01  0.71753880003E-01 -0.77662434232E-01  0.11687414629E+00  0.51100000000E-03 0.  1.
</event>
<event>
 8    1  0.1088088E+005  0.1043930E+01  0.7957747E-01            NaN
         13   -1    0    0    0    0  0.00000000000E+00  0.00000000000E+00  0.74505805969E-08  0.10566000000E+00  0.10566000000E+00 0. -1.
     999900   -1    0    0    0    0 -0.00000000000E+00 -0.00000000000E+00 -0.74505805969E-08  0.93827000000E+00  0.93827000000E+00 0. -1.
     999902    2    1    2    0    0  0.29230266259E-02  0.23745431700E-01 -0.20568935476E-02  0.10199170780E+01  0.10196343588E+01 0.  0.
     999903    2    3    3    0    0  0.12675895267E-01 -0.11833984524E+00  0.40763057398E-01  0.12743912727E+00  0.20349619605E-01 0.  0.
         14    1    1    2    0    0 -0.29230266259E-02 -0.23745431700E-01  0.20568935476E-02  0.24012921987E-01  0.00000000000E+00 0. -1.
     999901    1    3    3    0    0 -0.97528686410E-02  0.14208527694E+00 -0.42819950946E-01  0.89247795075E+00  0.88000000000E+00 0.  1.
        -11    1    4    4    0    0 -0.32594076258E-02 -0.23612564223E-01  0.14297860247E-01  0.27800483015E-01  0.51100000000E-03 0.  1.
         11    1    4    4    0    0  0.15935302893E-01 -0.94727281016E-01  0.26465197151E-01  0.99638644252E-01  0.51100000000E-03 0. -1.
</event>
<event>
 8    1  0.1088088E+005  0.1043930E+01  0.7957747E-01            NaN
         13   -1    0    0    0    0  0.00000000000E+00  0.00000000000E+00  0.74505805969E-08  0.10566000000E+00  0.10566000000E+00 0.  1.
     999900   -1    0    0    0    0 -0.00000000000E+00 -0.00000000000E+00 -0.74505805969E-08  0.93827000000E+00  0.93827000000E+00 0. -1.
     999902    2    1    2    0    0 -0.21618891606E-01  0.26783299676E-02 -0.31308127798E-02  0.10219220034E+01  0.10216849951E+01 0.  0.
     999903    2    3    3    0    0 -0.24848412162E-01 -0.90509244583E-02  0.12781406607E+00  0.13214980418E+00  0.20682660290E-01 0.  0.
         14    1    1    2    0    0  0.21618891606E-01 -0.26783299676E-02  0.31308127798E-02  0.22007996601E-01  0.00000000000E+00 0.  1.
     999901    1    3    3    0    0  0.32295205555E-02  0.11729254426E-01 -0.13094487885E+00  0.88977219922E+00  0.88000000000E+00 0. -1.
        -11    1    4    4    0    0 -0.26659842266E-02  0.32080298275E-03  0.62107817633E-01  0.62167938028E-01  0.51100000000E-03 0.  1.
         11    1    4    4    0    0 -0.22182427935E-01 -0.93717274410E-02  0.65706248442E-01  0.69981866148E-01  0.51100000000E-03 0. -1.
</event>
<event>
 8    1  0.1088088E+005  0.1043930E+01  0.7957747E-01            NaN
         13   -1    0    0    0    0  0.00000000000E+00  0.00000000000E+00  0.74505805969E-08  0.10566000000E+00  0.10566000000E+00 0.  1.
     999900   -1    0    0    0    0 -0.00000000000E+00 -0.00000000000E+00 -0.74505805969E-08  0.93827000000E+00  0.93827000000E+00 0.  1.
     999902    2    1    2    0    0 -0.20766800899E-01  0.17655756239E-01  0.99842198067E-02  0.10149012144E+01  0.10144859805E+01 0.  0.
     999903    2    3    3    0    0  0.11798739268E+00  0.14324245533E-01 -0.26026018942E-01  0.12329560513E+00  0.19956045210E-01 0.  0.
         14    1    1    2    0    0  0.20766800899E-01 -0.17655756239E-01 -0.99842198067E-02  0.29028785595E-01  0.00000000000E+00 0. -1.
     999901    1    3    3    0    0 -0.13875419358E+00  0.33315107057E-02  0.36010238749E-01  0.89160560928E+00  0.88000000000E+00 0.  1.
        -11    1    4    4    0    0  0.27959923247E-01  0.11759796418E-01 -0.42275980115E-02  0.30629786577E-01  0.51100000000E-03 0. -1.
         11    1    4    4    0    0  0.90027469433E-01  0.25644491148E-02 -0.21798420930E-01  0.92665818552E-01  0.51100000000E-03 0.  1.
</event>
<event>
 8    1  0.1088088E+005  0.1043930E+01  0.7957747E-01            NaN
         13   -1    0    0    0    0  0.00000000000E+00  0.00000000000E+00  0.74505805969E-08  0.10566000000E+00  0.10566000000E+00 0. -1.
     999900   -1    0    0    0    0 -0.00000000000E+00 -0.00000000000E+00 -0.74505805969E-08  0.93827000000E+00  0.93827000000E+00 0. -1.
     999902    2    1    2    0    0  0.75321178575E-02  0.18112160169E-01  0.15306077898E-01  0.10190491004E+01  0.10187453116E+01 0.  0.
     999903    2    3    3    0    0 -0.47179464912E-01 -0.85264152249E-01 -0.77968998082E-01  0.12642361393E+00  0.20196235514E-01 0.  0.
         14    1    1    2    0    0 -0.75321178575E-02 -0.18112160169E-01 -0.15306077898E-01  0.24880899622E-01  0.00000000000E+00 0.  1.
     999901    1    3    3    0    0  0.54711582769E-01  0.10337631242E+00  0.93275075980E-01  0.89262548645E+00  0.88000000000E+00 0.  1.
        -11    1    4    4    0    0 -0.13038758745E-01 -0.21871988065E-01 -0.98581354184E-02  0.27310017328E-01  0.51100000000E-03 0. -1.
         11    1    4    4    0    0 -0.34140706167E-01 -0.63392164185E-01 -0.68110862664E-01  0.99113596602E-01  0.51100000000E-03 0.  1.
</event>
<event>
 8    1  0.1088088E+005  0.1043930E+01  0.7957747E-01            NaN
         13   -1    0    0    0    0  0.00000000000E+00  0.00000000000E+00  0.74505805969E-08  0.10566000000E+00  0.10566000000E+00 0. -1.
     999900   -1    0    0    0    0 -0.00000000000E+00 -0.00000000000E+00 -0.74505805969E-08  0.93827000000E+00  0.93827000000E+00 0.  1.
     999902    2    1    2    0    0  0.45224035514E-02 -0.17049558289E-01 -0.13802940366E-01  0.10215322159E+01  0.10212866431E+01 0.  0.
     999903    2    3    3    0    0 -0.23931704072E-01  0.49422242832E-01 -0.11866112034E+00  0.13236216773E+00  0.20591197589E-01 0.  0.
         14    1    1    2    0    0 -0.45224035514E-02  0.17049558289E-01  0.13802940366E-01  0.22397784142E-01  0.00000000000E+00 0. -1.
     999901    1    3    3    0    0  0.28454107623E-01 -0.66471801120E-01  0.10485817998E+00  0.88917004813E+00  0.88000000000E+00 0. -1.
        -11    1    4    4    0    0 -0.13384206574E-01  0.86619720490E-02 -0.24763787700E-01  0.29456290460E-01  0.51100000000E-03 0. -1.
         11    1    4    4    0    0 -0.10547497497E-01  0.40760270783E-01 -0.93897332643E-01  0.10290587727E+00  0.51100000000E-03 0.  1.
</event>
<event>
 8    1  0.1088088E+005  0.1043930E+01  0.7957747E-01            NaN
         13   -1    0    0    0    0  0.00000000000E+00  0.00000000000E+00  0.74505805969E-08  0.10566000000E+00  0.10566000000E+00 0. -1.
     999900   -1    0    0    0    0 -0.00000000000E+00 -0.00000000000E+00 -0.74505805969E-08  0.93827000000E+00  0.93827000000E+00 0.  1.
     999902    2    1    2    0    0  0.18540903154E-01  0.12575109375E-02  0.13977388907E-01  0.10206767459E+01  0.10204118315E+01 0.  0.
     999903    2    3    3    0    0 -0.30621217639E-01 -0.89832130609E-01 -0.85396510204E-01  0.12905496024E+00  0.18845374719E-01 0.  0.
         14    1    1    2    0    0 -0.18540903154E-01 -0.12575109375E-02 -0.13977388907E-01  0.23253254055E-01  0.00000000000E+00 0.  1.
     999901    1    3    3    0    0  0.49162120793E-01  0.91089641546E-01  0.99373899110E-01  0.89162178570E+00  0.88000000000E+00 0. -1.
        -11    1    4    4    0    0 -0.60243306514E-02 -0.45484598530E-01 -0.36850177354E-01  0.58850131310E-01  0.51100000000E-03 0. -1.
         11    1    4    4    0    0 -0.24596886988E-01 -0.44347532079E-01 -0.48546332850E-01  0.70204828930E-01  0.51100000000E-03 0.  1.
</event>
<event>
 8    1  0.1088088E+005  0.1043930E+01  0.7957747E-01            NaN
         13   -1    0    0    0    0  0.00000000000E+00  0.00000000000E+00  0.74505805969E-08  0.10566000000E+00  0.10566000000E+00 0.  1.
     999900   -1    0    0    0    0 -0.00000000000E+00 -0.00000000000E+00 -0.74505805969E-08  0.93827000000E+00  0.93827000000E+00 0. -1.
     999902    2    1    2    0    0  0.10330003068E-01  0.63355963470E-02  0.22064075646E-01  0.10187571539E+01  0.10184461039E+01 0.  0.
     999903    2    3    3    0    0 -0.88110857967E-01  0.68464428938E-01  0.64103054206E-01  0.13009643653E+00  0.19104447578E-01 0.  0.
         14    1    1    2    0    0 -0.10330003068E-01 -0.63355963470E-02 -0.22064075646E-01  0.25172846056E-01  0.00000000000E+00 0. -1.
     999901    1    3    3    0    0  0.98440861035E-01 -0.62128832591E-01 -0.42038978560E-01  0.88866071742E+00  0.88000000000E+00 0. -1.
        -11    1    4    4    0    0 -0.23234086197E-02  0.33361025430E-02  0.71877693595E-02  0.82736302284E-02  0.51100000000E-03 0.  1.
         11    1    4    4    0    0 -0.85787449347E-01  0.65128326395E-01  0.56915284846E-01  0.12182280630E+00  0.51100000000E-03 0. -1.
</event>
<event>
 8    1  0.1088088E+005  0.1043930E+01  0.7957747E-01            NaN
         13   -1    0    0    0    0  0.00000000000E+00  0.00000000000E+00  0.74505805969E-08  0.10566000000E+00  0.10566000000E+00 0. -1.
     999900   -1    0    0    0    0 -0.00000000000E+00 -0.00000000000E+00 -0.74505805969E-08  0.93827000000E+00  0.93827000000E+00 0.  1.
     999902    2    1    2    0    0 -0.14980932897E-01 -0.18893845839E-01 -0.35916471849E-02  0.10195516143E+01  0.10192601182E+01 0.  0.
     999903    2    3    3    0    0  0.20479861161E-01  0.12194064799E+00 -0.24086653887E-01  0.12741268571E+00  0.19101812464E-01 0.  0.
         14    1    1    2    0    0  0.14980932897E-01  0.18893845839E-01  0.35916471849E-02  0.24378385725E-01  0.00000000000E+00 0.  1.
     999901    1    3    3    0    0 -0.35460794057E-01 -0.14083449383E+00  0.20495006702E-01  0.89213892857E+00  0.88000000000E+00 0. -1.
        -11    1    4    4    0    0  0.16295132656E-01  0.42537142969E-01 -0.10429544057E-01  0.46733033183E-01  0.51100000000E-03 0. -1.
         11    1    4    4    0    0  0.41847285050E-02  0.79403505017E-01 -0.13657109830E-01  0.80679652525E-01  0.51100000000E-03 0.  1.
</event>
<event>
 8    1  0.1088088E+005  0.1043930E+01  0.7957747E-01            NaN
         13   -1    0    0    0    0  0.00000000000E+00  0.00000000000E+00  0.74505805969E-08  0.10566000000E+00  0.10566000000E+00 0.  1.
     999900   -1    0    0    0    0 -0.00000000000E+00 -0.00000000000E+00 -0.74505805969E-08  0.93827000000E+00  0.93827000000E+00 0. -1.
     999902    2    1    2    0    0 -0.17492947839E-01  0.41460620128E-02 -0.15940338276E-01  0.10199031933E+01  0.10196201432E+01 0.  0.
     999903    2    3    3    0    0 -0.34578373051E-01  0.90318315345E-01  0.84376723136E-01  0.12985764292E+00  0.19761428284E-01 0.  0.
         14    1    1    2    0    0  0.17492947839E-01 -0.41460620128E-02  0.15940338276E-01  0.24026806668E-01  0.00000000000E+00 0.  1.
     999901    1    3    3    0    0  0.17085425212E-01 -0.86172253332E-01 -0.10031706141E+00  0.89004555041E+00  0.88000000000E+00 0. -1.
        -11    1    4    4    0    0 -0.26112914797E-01  0.45231200992E-01  0.37745222103E-01  0.64441514375E-01  0.51100000000E-03 0.  1.
         11    1    4    4    0    0 -0.84654582541E-02  0.45087114353E-01  0.46631501033E-01  0.65416128544E-01  0.51100000000E-03 0. -1.
</event>
<event>
 8    1  0.1088088E+005  0.1043930E+01  0.7957747E-01            NaN
         13   -1    0    0    0    0  0.00000000000E+00  0.00000000000E+00  0.74505805969E-08  0.10566000000E+00  0.10566000000E+00 0.  1.
     999900   -1    0    0    0    0 -0.00000000000E+00 -0.00000000000E+00 -0.74505805969E-08  0.93827000000E+00  0.93827000000E+00 0.  1.
     999902    2    1    2    0    0 -0.89205389342E-02  0.55780496602E-02 -0.15928305741E-01  0.10248406947E+01  0.10246628948E+01 0.  0.
     999903    2    3    3    0    0 -0.34703453328E-02  0.13185049538E-01 -0.13467326787E+00  0.13681595570E+00  0.19895422242E-01 0.  0.
         14    1    1    2    0    0  0.89205389342E-02 -0.55780496602E-02  0.15928305741E-01  0.19089305295E-01  0.00000000000E+00 0.  1.
     999901    1    3    3    0    0 -0.54501936013E-02 -0.76069998777E-02  0.11874496213E+00  0.88802473901E+00  0.88000000000E+00 0. -1.
        -11    1    4    4    0    0 -0.10312012493E-01  0.44545062071E-02 -0.93426724235E-01  0.94100978473E-01  0.51100000000E-03 0.  1.
         11    1    4    4    0    0  0.68416671600E-02  0.87305433308E-02 -0.41246543636E-01  0.42714977225E-01  0.51100000000E-03 0. -1.
</event>
<event>
 8    1  0.1088088E+005  0.1043930E+01  0.7957747E-01            NaN
         13   -1    0    0    0    0  0.00000000000E+00  0.00000000000E+00  0.74505805969E-08  0.10566000000E+00  0.10566000000E+00 0. -1.
     999900   -1    0    0    0    0 -0.00000000000E+00 -0.00000000000E+00 -0.74505805969E-08  0.93827000000E+00  0.93827000000E+00 0. -1.
     999902    2    1    2    0    0 -0.18026280540E-01  0.14361240911E-01  0.59351459713E-02  0.10201304624E+01  0.10198528043E+01 0.  0.
     999903    2    3    3    0    0  0.30936776342E-01  0.81338701442E-01  0.96611521262E-01  0.13158920498E+00  0.20220394276E-01 0.  0.
         14    1    1    2    0    0  0.18026280540E-01 -0.14361240911E-01 -0.59351459713E-02  0.23799537565E-01  0.00000000000E+00 0.  1.
     999901    1    3    3    0    0 -0.48963056882E-01 -0.66977460530E-01 -0.90676375291E-01  0.88854125745E+00  0.88000000000E+00 0. -1.
        -11    1    4    4    0    0  0.24357183648E-01  0.66127050012E-01  0.88497683581E-01  0.11312895411E+00  0.51100000000E-03 0.  1.
         11    1    4    4    0    0  0.65795926940E-02  0.15211651430E-01  0.81138376810E-02  0.18460250869E-01  0.51100000000E-03 0. -1.
</event>
<event>
 8    1  0.1088088E+005  0.1043930E+01  0.7957747E-01            NaN
         13   -1    0    0    0    0  0.00000000000E+00  0.00000000000E+00  0.74505805969E-08  0.10566000000E+00  0.10566000000E+00 0. -1.
     999900   -1    0    0    0    0 -0.00000000000E+00 -0.00000000000E+00 -0.74505805969E-08  0.93827000000E+00  0.93827000000E+00 0.  1.
     999902    2    1    2    0    0 -0.15251403058E-01 -0.14789994522E-01 -0.98480213575E-02  0.10205134939E+01  0.10202448032E+01 0.  0.
     999903    2    3    3    0    0  0.12435124703E+00  0.19955146590E-01 -0.18022746739E-01  0.12879439526E+00  0.20043361422E-01 0.  0.
         14    1    1    2    0    0  0.15251403058E-01  0.14789994522E-01  0.98480213575E-02  0.23416506099E-01  0.00000000000E+00 0. -1.
     999901    1    3    3    0    0 -0.13960265009E+00 -0.34745141112E-01  0.81747253819E-02  0.89171909864E+00  0.88000000000E+00 0. -1.
        -11    1    4    4    0    0  0.39805474064E-01  0.15889791659E-01 -0.50000951787E-02  0.43153485574E-01  0.51100000000E-03 0.  1.
         11    1    4    4    0    0  0.84545772968E-01  0.40653549307E-02 -0.13022651561E-01  0.85640909688E-01  0.51100000000E-03 0. -1.
</event>
<event>
 8    1  0.1088088E+005  0.1043930E+01  0.7957747E-01            NaN
         13   -1    0    0    0    0  0.00000000000E+00  0.00000000000E+00  0.74505805969E-08  0.10566000000E+00  0.10566000000E+00 0. -1.
     999900   -1    0    0    0    0 -0.00000000000E+00 -0.00000000000E+00 -0.74505805969E-08  0.93827000000E+00  0.93827000000E+00 0.  1.
     999902    2    1    2    0    0 -0.20101574636E-01 -0.11444633559E-01  0.65964840361E-02  0.10198765898E+01  0.10195929050E+01 0.  0.
     999903    2    3    3    0    0  0.66693188307E-01 -0.49451465809E-01  0.98189757324E-01  0.13006358817E+00  0.19541742182E-01 0.  0.
         14    1    1    2    0    0  0.20101574636E-01  0.11444633559E-01 -0.65964840361E-02  0.24053410190E-01  0.00000000000E+00 0.  1.
     999901    1    3    3    0    0 -0.86794762944E-01  0.38006832250E-01 -0.91593273288E-01  0.88981300164E+00  0.88000000000E+00 0.  1.
        -11    1    4    4    0    0  0.37216012590E-01 -0.34942230426E-01  0.47991592871E-01  0.70067433002E-01  0.51100000000E-03 0.  1.
         11    1    4    4    0    0  0.29477175718E-01 -0.14509235383E-01  0.50198164453E-01  0.59996155169E-01  0.51100000000E-03 0. -1.
</event>
<event>
 8    1  0.1088088E+005  0.1043930E+01  0.7957747E-01            NaN
         13   -1    0    0    0    0  0.00000000000E+00  0.00000000000E+00  0.74505805969E-08  0.10566000000E+00  0.10566000000E+00 0. -1.
     999900   -1    0    0    0    0 -0.00000000000E+00 -0.00000000000E+00 -0.74505805969E-08  0.93827000000E+00  0.93827000000E+00 0. -1.
     999902    2    1    2    0    0 -0.18295810676E-01 -0.15053081590E-01 -0.87577278484E-03  0.10202213743E+01  0.10199458582E+01 0.  0.
     999903    2    3    3    0    0  0.30921897818E-01  0.10598970072E+00  0.62495257378E-01  0.12831912326E+00  0.19239536839E-01 0.  0.
         14    1    1    2    0    0  0.18295810676E-01  0.15053081590E-01  0.87577278484E-03  0.23708625680E-01  0.00000000000E+00 0. -1.
     999901    1    3    3    0    0 -0.49217708495E-01 -0.12104278230E+00 -0.63371030163E-01  0.89190225106E+00  0.88000000000E+00 0. -1.
        -11    1    4    4    0    0  0.66220517897E-02  0.21625904375E-01  0.22278993646E-01  0.31751314757E-01  0.51100000000E-03 0.  1.
         11    1    4    4    0    0  0.24299846029E-01  0.84363796340E-01  0.40216263732E-01  0.96567808505E-01  0.51100000000E-03 0. -1.
</event>
<event>
 8    1  0.1088088E+005  0.1043930E+01  0.7957747E-01            NaN
         13   -1    0    0    0    0  0.00000000000E+00  0.00000000000E+00  0.74505805969E-08  0.10566000000E+00  0.10566000000E+00 0.  1.
     999900   -1    0    0    0    0 -0.00000000000E+00 -0.00000000000E+00 -0.74505805969E-08  0.93827000000E+00  0.93827000000E+00 0.  1.
     999902    2    1    2    0    0  0.92824112629E-02 -0.34385635958E-02 -0.20544062769E-01  0.10211254962E+01  0.10208708212E+01 0.  0.
     999903    2    3    3    0    0  0.10810682795E+00  0.10062248677E-02 -0.75996048128E-01  0.13384823167E+00  0.21256788392E-01 0.  0.
         14    1    1    2    0    0 -0.92824112629E-02  0.34385635958E-02  0.20544062769E-01  0.22804503799E-01  0.00000000000E+00 0.  1.
     999901    1    3    3    0    0 -0.98824416683E-01 -0.44447884635E-02  0.55451985359E-01  0.88727726453E+00  0.88000000000E+00 0. -1.
        -11    1    4    4    0    0  0.60675477785E-01  0.89500507485E-02 -0.50284927101E-01  0.79312369952E-01  0.51100000000E-03 0.  1.
         11    1    4    4    0    0  0.47431350161E-01 -0.79438258808E-02 -0.25711121027E-01  0.54535861717E-01  0.51100000000E-03 0. -1.
</event>
<event>
 8    1  0.1088088E+005  0.1043930E+01  0.7957747E-01            NaN
         13   -1    0    0    0    0  0.00000000000E+00  0.00000000000E+00  0.74505805969E-08  0.10566000000E+00  0.10566000000E+00 0. -1.
     999900   -1    0    0    0    0 -0.00000000000E+00 -0.00000000000E+00 -0.74505805969E-08  0.93827000000E+00  0.93827000000E+00 0.  1.
     999902    2    1    2    0    0 -0.96807893737E-02 -0.12113599551E-01 -0.16784933361E-01  0.10210785019E+01  0.10208227643E+01 0.  0.
     999903    2    3    3    0    0  0.56012875736E-01  0.30560530720E-01 -0.11398983963E+00  0.13226719863E+00  0.20725347021E-01 0.  0.
         14    1    1    2    0    0  0.96807893737E-02  0.12113599551E-01  0.16784933361E-01  0.22851498089E-01  0.00000000000E+00 0. -1.
     999901    1    3    3    0    0 -0.65693665109E-01 -0.42674130271E-01  0.97204906271E-01  0.88881130328E+00  0.88000000000E+00 0. -1.
        -11    1    4    4    0    0  0.23741486834E-01  0.15498768622E-01 -0.70914353620E-01  0.76373926809E-01  0.51100000000E-03 0.  1.
         11    1    4    4    0    0  0.32271388902E-01  0.15061762098E-01 -0.43075486012E-01  0.55893271825E-01  0.51100000000E-03 0. -1.
</event>
<event>
 8    1  0.1088088E+005  0.1043930E+01  0.7957747E-01            NaN
         13   -1    0    0    0    0  0.00000000000E+00  0.00000000000E+00  0.74505805969E-08  0.10566000000E+00  0.10566000000E+00 0. -1.
     999900   -1    0    0    0    0 -0.00000000000E+00 -0.00000000000E+00 -0.74505805969E-08  0.93827000000E+00  0.93827000000E+00 0.  1.
     999902    2    1    2    0    0 -0.20723824498E-01  0.10174267516E-01 -0.42777814681E-02  0.10204503911E+01  0.10201802334E+01 0.  0.
     999903    2    3    3    0    0  0.57311534948E-01 -0.10889854011E+00 -0.31737821890E-01  0.12858610506E+00  0.19585530367E-01 0.  0.
         14    1    1    2    0    0  0.20723824498E-01 -0.10174267516E-01  0.42777814681E-02  0.23479608932E-01  0.00000000000E+00 0.  1.
     999901    1    3    3    0    0 -0.78035359446E-01  0.11907280763E+00  0.27460040422E-01  0.89186428601E+00  0.88000000000E+00 0.  1.
        -11    1    4    4    0    0  0.31228173350E-01 -0.44288672522E-01 -0.20832390930E-01  0.58059753336E-01  0.51100000000E-03 0.  1.
         11    1    4    4    0    0  0.26083361598E-01 -0.64609867587E-01 -0.10905430960E-01  0.70526351723E-01  0.51100000000E-03 0. -1.
</event>
<event>
 8    1  0.1088088E+005  0.1043930E+01  0.7957747E-01            NaN
         13   -1    0    0    0    0  0.00000000000E+00  0.00000000000E+00  0.74505805969E-08  0.10566000000E+00  0.10566000000E+00 0.  1.
     999900   -1    0    0    0    0 -0.00000000000E+00 -0.00000000000E+00 -0.74505805969E-08  0.93827000000E+00  0.93827000000E+00 0.  1.
     999902    2    1    2    0    0  0.14882443167E-01  0.95699762322E-02  0.14482808973E-01  0.10210646700E+01  0.10208086192E+01 0.  0.
     999903    2    3    3    0    0  0.11962916014E+00 -0.51155535183E-01 -0.12963702734E-01  0.13235055768E+00  0.20508237233E-01 0.  0.
         14    1    1    2    0    0 -0.14882443167E-01 -0.95699762322E-02 -0.14482808973E-01  0.22865329988E-01  0.00000000000E+00 0. -1.
     999901    1    3    3    0    0 -0.10474671697E+00  0.60725511416E-01  0.27446511707E-01  0.88871411233E+00  0.88000000000E+00 0. -1.
        -11    1    4    4    0    0  0.80858092695E-01 -0.41804051536E-01 -0.15699384204E-01  0.92370675349E-01  0.51100000000E-03 0.  1.
         11    1    4    4    0    0  0.38771067444E-01 -0.93514836478E-02  0.27356814700E-02  0.39979882331E-01  0.51100000000E-03 0. -1.
</event>
<event>
 8    1  0.1088088E+005  0.1043930E+01  0.7957747E-01            NaN
         13   -1    0    0    0    0  0.00000000000E+00  0.00000000000E+00  0.74505805969E-08  0.10566000000E+00  0.10566000000E+00 0.  1.
     999900   -1    0    0    0    0 -0.00000000000E+00 -0.00000000000E+00 -0.74505805969E-08  0.93827000000E+00  0.93827000000E+00 0.  1.
     999902    2    1    2    0    0  0.28617839624E-02  0.20205530315E-01 -0.12020883991E-01  0.10202455132E+01  0.10199705644E+01 0.  0.
     999903    2    3    3    0    0  0.85488626851E-01  0.60531330932E-01 -0.78909150013E-01  0.13293079706E+00  0.21716249800E-01 0.  0.
         14    1    1    2    0    0 -0.28617839624E-02 -0.20205530315E-01  0.12020883991E-01  0.23684486794E-01  0.00000000000E+00 0.  1.
     999901    1    3    3    0    0 -0.82626842889E-01 -0.40325800617E-01  0.66888266021E-01  0.88731471615E+00  0.88000000000E+00 0. -1.
        -11    1    4    4    0    0  0.20594569478E-01  0.12128360151E-01 -0.77122727955E-02  0.25119189570E-01  0.51100000000E-03 0.  1.
         11    1    4    4    0    0  0.64894057373E-01  0.48402970781E-01 -0.71196877217E-01  0.10781160749E+00  0.51100000000E-03 0. -1.
</event>
<event>
 8    1  0.1088088E+005  0.1043930E+01  0.7957747E-01            NaN
         13   -1    0    0    0    0  0.00000000000E+00  0.00000000000E+00  0.74505805969E-08  0.10566000000E+00  0.10566000000E+00 0.  1.
     999900   -1    0    0    0    0 -0.00000000000E+00 -0.00000000000E+00 -0.74505805969E-08  0.93827000000E+00  0.93827000000E+00 0. -1.
     999902    2    1    2    0    0 -0.82151229289E-02 -0.27716876346E-03  0.22934360964E-01  0.10195671188E+01  0.10192759978E+01 0.  0.
     999903    2    3    3    0    0  0.31195965997E-01  0.12238417213E+00  0.22659518712E-01  0.13018580912E+00  0.21995845647E-01 0.  0.
         14    1    1    2    0    0  0.82151229289E-02  0.27716876346E-03 -0.22934360964E-01  0.24362881194E-01  0.00000000000E+00 0. -1.
     999901    1    3    3    0    0 -0.39411088926E-01 -0.12266134089E+00  0.27484225245E-03  0.88938130969E+00  0.88000000000E+00 0.  1.
        -11    1    4    4    0    0  0.25533298583E-01  0.67587312251E-01  0.53930186362E-02  0.72452328360E-01  0.51100000000E-03 0.  1.
         11    1    4    4    0    0  0.56626674146E-02  0.54796859878E-01  0.17266500076E-01  0.57733480759E-01  0.51100000000E-03 0. -1.
</event>
<event>
 8    1  0.1088088E+005  0.1043930E+01  0.7957747E-01            NaN
         13   -1    0    0    0    0  0.00000000000E+00  0.00000000000E+00  0.74505805969E-08  0.10566000000E+00  0.10566000000E+00 0.  1.
     999900   -1    0    0    0    0 -0.00000000000E+00 -0.00000000000E+00 -0.74505805969E-08  0.93827000000E+00  0.93827000000E+00 0. -1.
     999902    2    1    2    0    0 -0.20390024790E-01  0.14166622973E-01 -0.19628685767E-02  0.10190241940E+01  0.10187197892E+01 0.  0.
     999903    2    3    3    0    0 -0.58268293224E-01 -0.19790498301E-02 -0.11536008459E+00  0.13079315734E+00  0.19994755705E-01 0.  0.
         14    1    1    2    0    0  0.20390024790E-01 -0.14166622973E-01  0.19628685767E-02  0.24905805958E-01  0.00000000000E+00 0.  1.
     999901    1    3    3    0    0  0.37878268435E-01  0.16145672803E-01  0.11339721601E+00  0.88823103671E+00  0.88000000000E+00 0.  1.
        -11    1    4    4    0    0 -0.17432977064E-01 -0.83772742814E-02 -0.48107361256E-01  0.51852355219E-01  0.51100000000E-03 0. -1.
         11    1    4    4    0    0 -0.40835316160E-01  0.63982244514E-02 -0.67252723333E-01  0.78940802116E-01  0.51100000000E-03 0.  1.
</event>
<event>
 8    1  0.1088088E+005  0.1043930E+01  0.7957747E-01            NaN
         13   -1    0    0    0    0  0.00000000000E+00  0.00000000000E+00  0.74505805969E-08  0.10566000000E+00  0.10566000000E+00 0. -1.
     999900   -1    0    0    0    0 -0.00000000000E+00 -0.00000000000E+00 -0.74505805969E-08  0.93827000000E+00  0.93827000000E+00 0.  1.
     999902    2    1    2    0    0 -0.23199580690E-01 -0.13150009681E-01 -0.18928868308E-01  0.10112276246E+01  0.10106987006E+01 0.  0.
     999903    2    3    3    0    0  0.10453958883E+00  0.17175066498E-01 -0.53479610351E-01  0.12081723642E+00  0.22654521638E-01 0.  0.
         14    1    1    2    0    0  0.23199580690E-01  0.13150009681E-01  0.18928868308E-01  0.32702375361E-01  0.00000000000E+00 0. -1.
     999901    1    3    3    0    0 -0.12773916952E+00 -0.30325076179E-01  0.34550742043E-01  0.89041038822E+00  0.88000000000E+00 0. -1.
        -11    1    4    4    0    0  0.12970026760E-01 -0.50626811581E-02 -0.46720885240E-02  0.14694960593E-01  0.51100000000E-03 0. -1.
         11    1    4    4    0    0  0.91569562070E-01  0.22237747656E-01 -0.48807521827E-01  0.10612227583E+00  0.51100000000E-03 0.  1.
</event>
<event>
 8    1  0.1088088E+005  0.1043930E+01  0.7957747E-01            NaN
         13   -1    0    0    0    0  0.00000000000E+00  0.00000000000E+00  0.74505805969E-08  0.10566000000E+00  0.10566000000E+00 0. -1.
     999900   -1    0    0    0    0 -0.00000000000E+00 -0.00000000000E+00 -0.74505805969E-08  0.93827000000E+00  0.93827000000E+00 0. -1.
     999902    2    1    2    0    0 -0.51007878129E-02  0.18779290351E-01 -0.11999491607E-01  0.10210680757E+01  0.10208121021E+01 0.  0.
     999903    2    3    3    0    0 -0.72831032010E-01 -0.59700437847E-01 -0.89272108190E-01  0.13162020711E+00  0.22042416317E-01 0.  0.
         14    1    1    2    0    0  0.51007878129E-02 -0.18779290351E-01  0.11999491607E-01  0.22861924268E-01  0.00000000000E+00 0. -1.
     999901    1    3    3    0    0  0.67730244197E-01  0.78479728198E-01  0.77272616582E-01  0.88944786862E+00  0.88000000000E+00 0.  1.
        -11    1    4    4    0    0 -0.19261863254E-01 -0.26930164891E-01 -0.39111819451E-01  0.51246938434E-01  0.51100000000E-03 0.  1.
         11    1    4    4    0    0 -0.53569168756E-01 -0.32770272955E-01 -0.50160288739E-01  0.80373268679E-01  0.51100000000E-03 0. -1.
</event>
<event>
 8    1  0.1088088E+005  0.1043930E+01  0.7957747E-01            NaN
         13   -1    0    0    0    0  0.00000000000E+00  0.00000000000E+00  0.74505805969E-08  0.10566000000E+00  0.10566000000E+00 0. -1.
     999900   -1    0    0    0    0 -0.00000000000E+00 -0.00000000000E+00 -0.74505805969E-08  0.93827000000E+00  0.93827000000E+00 0.  1.
     999902    2    1    2    0    0 -0.13465745132E-01 -0.15816333813E-01 -0.11461114132E-01  0.10202057541E+01  0.10199298705E+01 0.  0.
     999903    2    3    3    0    0  0.65406030758E-02  0.10691988575E+00 -0.70252310247E-01  0.12952015394E+00  0.19116530108E-01 0.  0.
         14    1    1    2    0    0  0.13465745132E-01  0.15816333813E-01  0.11461114132E-01  0.23724245918E-01  0.00000000000E+00 0. -1.
     999901    1    3    3    0    0 -0.20006348208E-01 -0.12273621956E+00  0.58791196115E-01  0.89068560014E+00  0.88000000000E+00 0. -1.
        -11    1    4    4    0    0 -0.64411707707E-02  0.22937634674E-01 -0.15563866688E-01  0.28462586541E-01  0.51100000000E-03 0.  1.
         11    1    4    4    0    0  0.12981773846E-01  0.83982251079E-01 -0.54688443560E-01  0.10105756740E+00  0.51100000000E-03 0. -1.
</event>
<event>
 8    1  0.1088088E+005  0.1043930E+01  0.7957747E-01            NaN
         13   -1    0    0    0    0  0.00000000000E+00  0.00000000000E+00  0.74505805969E-08  0.10566000000E+00  0.10566000000E+00 0.  1.
     999900   -1    0    0    0    0 -0.00000000000E+00 -0.00000000000E+00 -0.74505805969E-08  0.93827000000E+00  0.93827000000E+00 0. -1.
     999902    2    1    2    0    0 -0.43808116682E-02 -0.20581815621E-02  0.23005407415E-01  0.10204209296E+01  0.10201500856E+01 0.  0.
     999903    2    3    3    0    0 -0.58606411929E-01  0.59053707663E-01  0.10184900488E+00  0.13312650741E+00  0.20673540411E-01 0.  0.
         14    1    1    2    0    0  0.43808116682E-02  0.20581815621E-02 -0.23005407415E-01  0.23509070431E-01  0.00000000000E+00 0. -1.
     999901    1    3    3    0    0  0.54225600260E-01 -0.61111889225E-01 -0.78843597464E-01  0.88729442216E+00  0.88000000000E+00 0. -1.
        -11    1    4    4    0    0 -0.40971105152E-01  0.35731896712E-01  0.79543012101E-01  0.96347038331E-01  0.51100000000E-03 0. -1.
         11    1    4    4    0    0 -0.17635306776E-01  0.23321810950E-01  0.22305992778E-01  0.36779469082E-01  0.51100000000E-03 0.  1.
</event>
<event>
 8    1  0.1088088E+005  0.1043930E+01  0.7957747E-01            NaN
         13   -1    0    0    0    0  0.00000000000E+00  0.00000000000E+00  0.74505805969E-08  0.10566000000E+00  0.10566000000E+00 0. -1.
     999900   -1    0    0    0    0 -0.00000000000E+00 -0.00000000000E+00 -0.74505805969E-08  0.93827000000E+00  0.93827000000E+00 0.  1.
     999902    2    1    2    0    0  0.90072959494E-02  0.13271855079E-01 -0.17848117588E-01  0.10199335665E+01  0.10196512400E+01 0.  0.
     999903    2    3    3    0    0 -0.30646184025E-02 -0.11648571935E+00  0.48516268573E-01  0.12786462806E+00  0.20425966203E-01 0.  0.
         14    1    1    2    0    0 -0.90072959494E-02 -0.13271855079E-01  0.17848117588E-01  0.23996433464E-01  0.00000000000E+00 0. -1.
     999901    1    3    3    0    0  0.12071914352E-01  0.12975757443E+00 -0.66364386161E-01  0.89206893847E+00  0.88000000000E+00 0. -1.
        -11    1    4    4    0    0 -0.10447362906E-01 -0.72996066080E-01  0.35681210442E-01  0.81920589320E-01  0.51100000000E-03 0. -1.
         11    1    4    4    0    0  0.73827445039E-02 -0.43489653268E-01  0.12835058131E-01  0.45944038743E-01  0.51100000000E-03 0.  1.
</event>
<event>
 8    1  0.1088088E+005  0.1043930E+01  0.7957747E-01            NaN
         13   -1    0    0    0    0  0.00000000000E+00  0.00000000000E+00  0.74505805969E-08  0.10566000000E+00  0.10566000000E+00 0.  1.
     999900   -1    0    0    0    0 -0.00000000000E+00 -0.00000000000E+00 -0.74505805969E-08  0.93827000000E+00  0.93827000000E+00 0. -1.
     999902    2    1    2    0    0 -0.48184638121E-02 -0.11229310419E-01  0.20308503019E-01  0.10202287279E+01  0.10199533846E+01 0.  0.
     999903    2    3    3    0    0 -0.11784545769E+00  0.46552856012E-01 -0.21912924710E-01  0.13011832513E+00  0.19896782723E-01 0.  0.
         14    1    1    2    0    0  0.48184638121E-02  0.11229310419E-01 -0.20308503019E-01  0.23701272136E-01  0.00000000000E+00 0. -1.
     999901    1    3    3    0    0  0.11302699388E+00 -0.57782166431E-01  0.42221427730E-01  0.89011040274E+00  0.88000000000E+00 0.  1.
        -11    1    4    4    0    0 -0.40835057567E-01  0.24719165400E-01 -0.27884462714E-02  0.47818151556E-01  0.51100000000E-03 0.  1.
         11    1    4    4    0    0 -0.77010400125E-01  0.21833690612E-01 -0.19124478439E-01  0.82300173570E-01  0.51100000000E-03 0. -1.
</event>
<event>
 8    1  0.1088088E+005  0.1043930E+01  0.7957747E-01            NaN
         13   -1    0    0    0    0  0.00000000000E+00  0.00000000000E+00  0.74505805969E-08  0.10566000000E+00  0.10566000000E+00 0. -1.
     999900   -1    0    0    0    0 -0.00000000000E+00 -0.00000000000E+00 -0.74505805969E-08  0.93827000000E+00  0.93827000000E+00 0. -1.
     999902    2    1    2    0    0  0.34168745146E-03 -0.23195015441E-01  0.53877256604E-02  0.10201150241E+01  0.10198370013E+01 0.  0.
     999903    2    3    3    0    0  0.98885883607E-01 -0.84900729704E-01 -0.91702723714E-02  0.13234788731E+00  0.21102547223E-01 0.  0.
         14    1    1    2    0    0 -0.34168745146E-03  0.23195015441E-01 -0.53877256604E-02  0.23814975949E-01  0.00000000000E+00 0.  1.
     999901    1    3    3    0    0 -0.98544196156E-01  0.61705714263E-01  0.14557998032E-01  0.88776713674E+00  0.88000000000E+00 0.  1.
        -11    1    4    4    0    0  0.18761506878E-01 -0.17155089814E-01  0.65310220136E-02  0.26252744931E-01  0.51100000000E-03 0. -1.
         11    1    4    4    0    0  0.80124376729E-01 -0.67745639890E-01 -0.15701294385E-01  0.10609514238E+00  0.51100000000E-03 0.  1.
</event>
<event>
 8    1  0.1088088E+005  0.1043930E+01  0.7957747E-01            NaN
         13   -1    0    0    0    0  0.00000000000E+00  0.00000000000E+00  0.74505805969E-08  0.10566000000E+00  0.10566000000E+00 0. -1.
     999900   -1    0    0    0    0 -0.00000000000E+00 -0.00000000000E+00 -0.74505805969E-08  0.93827000000E+00  0.93827000000E+00 0.  1.
     999902    2    1    2    0    0 -0.19762963911E-01  0.12568845887E-01 -0.13546598075E-02  0.10204696988E+01  0.10201999904E+01 0.  0.
     999903    2    3    3    0    0  0.92608350917E-01 -0.54037092304E-01 -0.67622681588E-01  0.12836257848E+00  0.20194318147E-01 0.  0.
         14    1    1    2    0    0  0.19762963911E-01 -0.12568845887E-01  0.13546598075E-02  0.23460301206E-01  0.00000000000E+00 0. -1.
     999901    1    3    3    0    0 -0.11237131483E+00  0.66605938191E-01  0.66268021780E-01  0.89210712031E+00  0.88000000000E+00 0. -1.
        -11    1    4    4    0    0  0.77376339113E-01 -0.52567531537E-01 -0.61024163456E-01  0.11168998555E+00  0.51100000000E-03 0. -1.
         11    1    4    4    0    0  0.15232011805E-01 -0.14695607663E-02 -0.65985181317E-02  0.16672592930E-01  0.51100000000E-03 0.  1.
</event>
<event>
 8    1  0.1370776E+005  0.1043930E+01  0.7957747E-01            NaN
         13   -1    0    0    0    0  0.00000000000E+00  0.00000000000E+00  0.74505805969E-08  0.10566000000E+00  0.10566000000E+00 0.  1.
     999900   -1    0    0    0    0 -0.00000000000E+00 -0.00000000000E+00 -0.74505805969E-08  0.93827000000E+00  0.93827000000E+00 0. -1.
     999902    2    1    2    0    0 -0.11350651927E-01 -0.12459864831E-01  0.15392640214E-01  0.10211041615E+01  0.10208490044E+01 0.  0.
     999903    2    3    3    0    0  0.10545790467E+00  0.43945001690E-01 -0.55800262024E-01  0.12875099307E+00  0.20263665622E-01 0.  0.
         14    1    1    2    0    0  0.11350651927E-01  0.12459864831E-01 -0.15392640214E-01  0.22825838507E-01  0.00000000000E+00 0.  1.
     999901    1    3    3    0    0 -0.11680855660E+00 -0.56404866521E-01  0.71192902237E-01  0.89235316842E+00  0.88000000000E+00 0.  1.
        -11    1    4    4    0    0  0.55038146925E-01  0.31976697353E-01 -0.24489811947E-01  0.68203510179E-01  0.51100000000E-03 0. -1.
         11    1    4    4    0    0  0.50419757745E-01  0.11968304337E-01 -0.31310450077E-01  0.60547482893E-01  0.51100000000E-03 0.  1.
</event>
<event>
 8    1  0.1088088E+005  0.1043930E+01  0.7957747E-01            NaN
         13   -1    0    0    0    0  0.00000000000E+00  0.00000000000E+00  0.74505805969E-08  0.10566000000E+00  0.10566000000E+00 0. -1.
     999900   -1    0    0    0    0 -0.00000000000E+00 -0.00000000000E+00 -0.74505805969E-08  0.93827000000E+00  0.93827000000E+00 0. -1.
     999902    2    1    2    0    0  0.20357559270E-01 -0.81371334497E-02  0.86371615258E-02  0.10203663899E+01  0.10200942731E+01 0.  0.
     999903    2    3    3    0    0  0.41785821029E-01  0.10354124259E+00 -0.63228811269E-01  0.13014397496E+00  0.21742306409E-01 0.  0.
         14    1    1    2    0    0 -0.20357559270E-01  0.81371334497E-02 -0.86371615258E-02  0.23563610068E-01  0.00000000000E+00 0. -1.
     999901    1    3    3    0    0 -0.21428261759E-01 -0.11167837604E+00  0.71865972794E-01  0.89022241497E+00  0.88000000000E+00 0.  1.
        -11    1    4    4    0    0  0.10950333827E-01  0.24849089710E-01 -0.26642520581E-01  0.38045658021E-01  0.51100000000E-03 0.  1.
         11    1    4    4    0    0  0.30835487202E-01  0.78692152878E-01 -0.36586290688E-01  0.92098316938E-01  0.51100000000E-03 0. -1.
</event>
<event>
 8    1  0.1088088E+005  0.1043930E+01  0.7957747E-01            NaN
         13   -1    0    0    0    0  0.00000000000E+00  0.00000000000E+00  0.74505805969E-08  0.10566000000E+00  0.10566000000E+00 0. -1.
     999900   -1    0    0    0    0 -0.00000000000E+00 -0.00000000000E+00 -0.74505805969E-08  0.93827000000E+00  0.93827000000E+00 0.  1.
     999902    2    1    2    0    0 -0.18505743099E-01 -0.19194979125E-01 -0.61671361205E-03  0.10172599777E+01  0.10169103069E+01 0.  0.
     999903    2    3    3    0    0  0.11718925409E+00 -0.33850759409E-01  0.26139127302E-01  0.12633697368E+00  0.19964512380E-01 0.  0.
         14    1    1    2    0    0  0.18505743099E-01  0.19194979125E-01  0.61671361205E-03  0.26670022252E-01  0.00000000000E+00 0. -1.
     999901    1    3    3    0    0 -0.13569499719E+00  0.14655780284E-01 -0.26755840914E-01  0.89092300407E+00  0.88000000000E+00 0.  1.
        -11    1    4    4    0    0  0.75035439407E-01 -0.13889599071E-01  0.99213772300E-02  0.76954096554E-01  0.51100000000E-03 0. -1.
         11    1    4    4    0    0  0.42153814686E-01 -0.19961160338E-01  0.16217750072E-01  0.49382877124E-01  0.51100000000E-03 0.  1.
</event>
<event>
 8    1  0.1088088E+005  0.1043930E+01  0.7957747E-01            NaN
         13   -1    0    0    0    0  0.00000000000E+00  0.00000000000E+00  0.74505805969E-08  0.10566000000E+00  0.10566000000E+00 0. -1.
     999900   -1    0    0    0    0 -0.00000000000E+00 -0.00000000000E+00 -0.74505805969E-08  0.93827000000E+00  0.93827000000E+00 0.  1.
     999902    2    1    2    0    0 -0.22257437873E-01 -0.66817216215E-02 -0.56643209903E-02  0.10200108972E+01  0.10197304090E+01 0.  0.
     999903    2    3    3    0    0  0.93483758428E-01  0.66413368501E-01  0.52254759667E-01  0.12754603148E+00  0.19684553134E-01 0.  0.
         14    1    1    2    0    0  0.22257437873E-01  0.66817216215E-02  0.56643209903E-02  0.23919102758E-01  0.00000000000E+00 0. -1.
     999901    1    3    3    0    0 -0.11574119630E+00 -0.73095090123E-01 -0.57919080657E-01  0.89246486577E+00  0.88000000000E+00 0.  1.
        -11    1    4    4    0    0  0.25618253320E-01  0.23397801002E-01  0.24735558545E-01  0.42612920253E-01  0.51100000000E-03 0.  1.
         11    1    4    4    0    0  0.67865505108E-01  0.43015567500E-01  0.27519201122E-01  0.84933111224E-01  0.51100000000E-03 0. -1.
</event>
<event>
 7    1  0.1088088E+005  0.1043930E+01  0.7957747E-01            NaN
         13   -1    0    0    0    0  0.00000000000E+00  0.00000000000E+00  0.74505805969E-08  0.10566000000E+00  0.10566000000E+00 0.  1.
     999900   -1    0    0    0    0 -0.00000000000E+00 -0.00000000000E+00 -0.74505805969E-08  0.93827000000E+00  0.93827000000E+00 0.  1.
     999902    2    1    2    0    0 -0.16933188095E-02 -0.16909669050E-01  0.16441355469E-01  0.10202842307E+01  0.10200101906E+01 0.  0.
         14    1    1    2    0    0  0.16933188095E-02  0.16909669050E-01 -0.16441355469E-01  0.23645769297E-01  0.00000000000E+00 0. -1.
     999901    1    3    3    0    0  0.60617624063E-02  0.10538966380E+00 -0.22419846429E-01  0.88659256466E+00  0.88000000000E+00 0. -1.
        -11    1    3    3    0    0  0.10130483119E-01 -0.56668893089E-01  0.52304699748E-02  0.57806652466E-01  0.51100000000E-03 0.  1.
         11    1    3    3    0    0 -0.17885564335E-01 -0.65630439760E-01  0.33630731923E-01  0.75885013575E-01  0.51100000000E-03 0. -1.
</event>
<event>
 8    1  0.1088088E+005  0.1043930E+01  0.7957747E-01            NaN
         13   -1    0    0    0    0  0.00000000000E+00  0.00000000000E+00  0.74505805969E-08  0.10566000000E+00  0.10566000000E+00 0. -1.
     999900   -1    0    0    0    0 -0.00000000000E+00 -0.00000000000E+00 -0.74505805969E-08  0.93827000000E+00  0.93827000000E+00 0.  1.
     999902    2    1    2    0    0  0.77245668190E-02  0.12619722167E-01 -0.19471002051E-01  0.10194750160E+01  0.10191816629E+01 0.  0.
     999903    2    3    3    0    0 -0.48327548318E-01  0.72071660394E-01 -0.97476510364E-01  0.13225394330E+00  0.21437333954E-01 0.  0.
         14    1    1    2    0    0 -0.77245668190E-02 -0.12619722167E-01  0.19471002051E-01  0.24454983970E-01  0.00000000000E+00 0.  1.
     999901    1    3    3    0    0  0.56052115136E-01 -0.59451938227E-01  0.78005508313E-01  0.88722107273E+00  0.88000000000E+00 0. -1.
        -11    1    4    4    0    0 -0.21541365453E-01  0.50754758396E-01 -0.60962397158E-01  0.82199458111E-01  0.51100000000E-03 0.  1.
         11    1    4    4    0    0 -0.26786182865E-01  0.21316901997E-01 -0.36514113207E-01  0.50054485189E-01  0.51100000000E-03 0. -1.
</event>
<event>
 8    1  0.1088088E+005  0.1043930E+01  0.7957747E-01            NaN
         13   -1    0    0    0    0  0.00000000000E+00  0.00000000000E+00  0.74505805969E-08  0.10566000000E+00  0.10566000000E+00 0. -1.
     999900   -1    0    0    0    0 -0.00000000000E+00 -0.00000000000E+00 -0.74505805969E-08  0.93827000000E+00  0.93827000000E+00 0.  1.
     999902    2    1    2    0    0 -0.15049584020E-01 -0.15599244988E-01  0.80742523743E-02  0.10207995012E+01  0.10205374083E+01 0.  0.
     999903    2    3    3    0    0 -0.67176264906E-01 -0.33481770309E-01 -0.10634459336E+00  0.13168272156E+00  0.19937078817E-01 0.  0.
         14    1    1    2    0    0  0.15049584020E-01  0.15599244988E-01 -0.80742523743E-02  0.23130498801E-01  0.00000000000E+00 0. -1.
     999901    1    3    3    0    0  0.52126680886E-01  0.17882525321E-01  0.11441884573E+00  0.88911677964E+00  0.88000000000E+00 0. -1.
        -11    1    4    4    0    0 -0.38488392659E-01 -0.23621728006E-01 -0.78173358643E-01  0.90281102818E-01  0.51100000000E-03 0. -1.
         11    1    4    4    0    0 -0.28687872247E-01 -0.98600423030E-02 -0.28171234716E-01  0.41401618745E-01  0.51100000000E-03 0.  1.
</event>
<event>
 8    1  0.1088088E+005  0.1043930E+01  0.7957747E-01            NaN
         13   -1    0    0    0    0  0.00000000000E+00  0.00000000000E+00  0.74505805969E-08  0.10566000000E+00  0.10566000000E+00 0.  1.
     999900   -1    0    0    0    0 -0.00000000000E+00 -0.00000000000E+00 -0.74505805969E-08  0.93827000000E+00  0.93827000000E+00 0. -1.
     999902    2    1    2    0    0  0.26438752898E-02  0.10990939201E-01  0.17596626016E-01  0.10230151233E+01  0.10228013054E+01 0.  0.
     999903    2    3    3    0    0  0.55509135885E-01 -0.10116286328E+00  0.63417226504E-01  0.13314280737E+00  0.19750277570E-01 0.  0.
         14    1    1    2    0    0 -0.26438752898E-02 -0.10990939201E-01 -0.17596626016E-01  0.20914876720E-01  0.00000000000E+00 0. -1.
     999901    1    3    3    0    0 -0.52865260595E-01  0.11215380248E+00 -0.45820600488E-01  0.88987231591E+00  0.88000000000E+00 0.  1.
        -11    1    4    4    0    0  0.46365083169E-02 -0.22490579763E-01  0.81778235246E-02  0.24381577185E-01  0.51100000000E-03 0. -1.
         11    1    4    4    0    0  0.50872627568E-01 -0.78672283517E-01  0.55239402979E-01  0.10876123019E+00  0.51100000000E-03 0.  1.
</event>
<event>
 8    1  0.1088088E+005  0.1043930E+01  0.7957747E-01            NaN
         13   -1    0    0    0    0  0.00000000000E+00  0.00000000000E+00  0.74505805969E-08  0.10566000000E+00  0.10566000000E+00 0.  1.
     999900   -1    0    0    0    0 -0.00000000000E+00 -0.00000000000E+00 -0.74505805969E-08  0.93827000000E+00  0.93827000000E+00 0.  1.
     999902    2    1    2    0    0  0.23338470103E-01 -0.68396842482E-02  0.52650432173E-02  0.10190465487E+01  0.10187426968E+01 0.  0.
     999903    2    3    3    0    0  0.25825130769E-01  0.19755749595E-01 -0.12360905778E+00  0.12925891423E+00  0.19272797460E-01 0.  0.
         14    1    1    2    0    0 -0.23338470103E-01  0.68396842482E-02 -0.52650432173E-02  0.24883451277E-01  0.00000000000E+00 0. -1.
     999901    1    3    3    0    0 -0.24866606657E-02 -0.26595433843E-01  0.12887410100E+00  0.88978763449E+00  0.88000000000E+00 0. -1.
        -11    1    4    4    0    0  0.11902476781E-01 -0.12009570061E-02 -0.51868970672E-01  0.53233095822E-01  0.51100000000E-03 0.  1.
         11    1    4    4    0    0  0.13922653988E-01  0.20956706601E-01 -0.71740087109E-01  0.76025818411E-01  0.51100000000E-03 0. -1.
</event>
<event>
 8    1  0.1088088E+005  0.1043930E+01  0.7957747E-01            NaN
         13   -1    0    0    0    0  0.00000000000E+00  0.00000000000E+00  0.74505805969E-08  0.10566000000E+00  0.10566000000E+00 0.  1.
     999900   -1    0    0    0    0 -0.00000000000E+00 -0.00000000000E+00 -0.74505805969E-08  0.93827000000E+00  0.93827000000E+00 0.  1.
     999902    2    1    2    0    0  0.13428068360E-01  0.18107043500E-01 -0.67762589836E-02  0.10203907619E+01  0.10201192142E+01 0.  0.
     999903    2    3    3    0    0  0.87776061325E-01  0.95060535570E-01 -0.26679169353E-01  0.13368585618E+00  0.20469189060E-01 0.  0.
         14    1    1    2    0    0 -0.13428068360E-01 -0.18107043500E-01  0.67762589836E-02  0.23539238093E-01  0.00000000000E+00 0. -1.
     999901    1    3    3    0    0 -0.74347992965E-01 -0.76953492070E-01  0.19902910369E-01  0.88670490573E+00  0.88000000000E+00 0.  1.
        -11    1    4    4    0    0  0.25780354706E-01  0.42096521486E-01 -0.76670698813E-02  0.49957871168E-01  0.51100000000E-03 0. -1.
         11    1    4    4    0    0  0.61995706618E-01  0.52964014083E-01 -0.19012099471E-01  0.83727985012E-01  0.51100000000E-03 0.  1.
</event>
<event>
 8    1  0.1088088E+005  0.1043930E+01  0.7957747E-01            NaN
         13   -1    0    0    0    0  0.00000000000E+00  0.00000000000E+00  0.74505805969E-08  0.10566000000E+00  0.10566000000E+00 0.  1.
     999900   -1    0    0    0    0 -0.00000000000E+00 -0.00000000000E+00 -0.74505805969E-08  0.93827000000E+00  0.93827000000E+00 0. -1.
     999902    2    1    2    0    0 -0.67385426769E-03 -0.36864855315E-02 -0.23448732264E-01  0.10201836887E+01  0.10199072857E+01 0.  0.
     999903    2    3    3    0    0  0.37359771534E-01 -0.53880235243E-01 -0.11405991995E+00  0.13329228806E+00  0.21408793510E-01 0.  0.
         14    1    1    2    0    0  0.67385426769E-03  0.36864855315E-02  0.23448732264E-01  0.23746311291E-01  0.00000000000E+00 0.  1.
     999901    1    3    3    0    0 -0.38033625801E-01  0.50193749711E-01  0.90611187687E-01  0.88689140064E+00  0.88000000000E+00 0.  1.
        -11    1    4    4    0    0  0.16278742336E-01 -0.10633955828E-01 -0.45998786891E-01  0.49942246495E-01  0.51100000000E-03 0.  1.
         11    1    4    4    0    0  0.21081029197E-01 -0.43246279414E-01 -0.68061133060E-01  0.83350041570E-01  0.51100000000E-03 0. -1.
</event>
<event>
 8    1  0.1088088E+005  0.1043930E+01  0.7957747E-01            NaN
         13   -1    0    0    0    0  0.00000000000E+00  0.00000000000E+00  0.74505805969E-08  0.10566000000E+00  0.10566000000E+00 0.  1.
     999900   -1    0    0    0    0 -0.00000000000E+00 -0.00000000000E+00 -0.74505805969E-08  0.93827000000E+00  0.93827000000E+00 0.  1.
     999902    2    1    2    0    0 -0.11163079140E-01  0.14518688327E-01  0.14849394727E-01  0.10203522314E+01  0.10200797837E+01 0.  0.
     999903    2    3    3    0    0 -0.37515544458E-02  0.92733417353E-01 -0.89717987456E-01  0.13068554556E+00  0.20392000681E-01 0.  0.
         14    1    1    2    0    0  0.11163079140E-01 -0.14518688327E-01 -0.14849394727E-01  0.23577768562E-01  0.00000000000E+00 0. -1.
     999901    1    3    3    0    0 -0.74115246939E-02 -0.78214729026E-01  0.10456738218E+00  0.88966668587E+00  0.88000000000E+00 0. -1.
        -11    1    4    4    0    0  0.82366095396E-02  0.35123643293E-01 -0.36987236978E-01  0.51670386830E-01  0.51100000000E-03 0. -1.
         11    1    4    4    0    0 -0.11988163985E-01  0.57609774060E-01 -0.52730750478E-01  0.79015158735E-01  0.51100000000E-03 0.  1.
</event>
<event>
 8    1  0.1088088E+005  0.1043930E+01  0.7957747E-01            NaN
         13   -1    0    0    0    0  0.00000000000E+00  0.00000000000E+00  0.74505805969E-08  0.10566000000E+00  0.10566000000E+00 0.  1.
     999900   -1    0    0    0    0 -0.00000000000E+00 -0.00000000000E+00 -0.74505805969E-08  0.93827000000E+00  0.93827000000E+00 0. -1.
     999902    2    1    2    0    0 -0.15637123013E-01  0.57065536142E-02 -0.16439220024E-01  0.10205348654E+01  0.10202666706E+01 0.  0.
     999903    2    3    3    0    0 -0.71718017570E-01  0.86190637359E-01  0.65749182384E-01  0.13127804757E+00  0.18403010040E-01 0.  0.
         14    1    1    2    0    0  0.15637123013E-01 -0.57065536142E-02  0.16439220024E-01  0.23395134649E-01  0.00000000000E+00 0.  1.
     999901    1    3    3    0    0  0.56080894557E-01 -0.80484083744E-01 -0.82188402408E-01  0.88925681778E+00  0.88000000000E+00 0. -1.
        -11    1    4    4    0    0 -0.21486618766E-01  0.28142736052E-01  0.11328683189E-01  0.37179141495E-01  0.51100000000E-03 0. -1.
         11    1    4    4    0    0 -0.50231398804E-01  0.58047901307E-01  0.54420499195E-01  0.94098906080E-01  0.51100000000E-03 0.  1.
</event>
<event>
 8    1  0.1088088E+005  0.1043930E+01  0.7957747E-01            NaN
         13   -1    0    0    0    0  0.00000000000E+00  0.00000000000E+00  0.74505805969E-08  0.10566000000E+00  0.10566000000E+00 0. -1.
     999900   -1    0    0    0    0 -0.00000000000E+00 -0.00000000000E+00 -0.74505805969E-08  0.93827000000E+00  0.93827000000E+00 0. -1.
     999902    2    1    2    0    0  0.11681198698E-01  0.21413904310E-01 -0.18898163751E-02  0.10194641645E+01  0.10191705478E+01 0.  0.
     999903    2    3    3    0    0  0.78577640886E-01  0.64051282816E-01  0.82003504314E-01  0.13192195746E+00  0.20045340159E-01 0.  0.
         14    1    1    2    0    0 -0.11681198698E-01 -0.21413904310E-01  0.18898163751E-02  0.24465835501E-01  0.00000000000E+00 0. -1.
     999901    1    3    3    0    0 -0.66896442188E-01 -0.42637378506E-01 -0.83893320689E-01  0.88754220704E+00  0.88000000000E+00 0. -1.
        -11    1    4    4    0    0  0.15693262059E-01  0.41763051066E-02  0.96551180357E-02  0.18899799567E-01  0.51100000000E-03 0. -1.
         11    1    4    4    0    0  0.62884378828E-01  0.59874977710E-01  0.72348386278E-01  0.11302215789E+00  0.51100000000E-03 0.  1.
</event>
<event>
 8    1  0.1088088E+005  0.1043930E+01  0.7957747E-01            NaN
         13   -1    0    0    0    0  0.00000000000E+00  0.00000000000E+00  0.74505805969E-08  0.10566000000E+00  0.10566000000E+00 0.  1.
     999900   -1    0    0    0    0 -0.00000000000E+00 -0.00000000000E+00 -0.74505805969E-08  0.93827000000E+00  0.93827000000E+00 0. -1.
     999902    2    1    2    0    0 -0.20148635052E-01  0.71280423918E-02 -0.78887769834E-02  0.10211482247E+01  0.10208940628E+01 0.  0.
     999903    2    3    3    0    0  0.94624787666E-01  0.84363377974E-01  0.19890991791E-01  0.12990754388E+00  0.20230877842E-01 0.  0.
         14    1    1    2    0    0  0.20148635052E-01 -0.71280423918E-02  0.78887769834E-02  0.22781775284E-01  0.00000000000E+00 0. -1.
     999901    1    3    3    0    0 -0.11477342272E+00 -0.77235335582E-01 -0.27779768775E-01  0.89124068084E+00  0.88000000000E+00 0.  1.
        -11    1    4    4    0    0  0.57368199917E-01  0.46991342924E-01  0.21161958003E-01  0.77119298875E-01  0.51100000000E-03 0.  1.
         11    1    4    4    0    0  0.37256587749E-01  0.37372035049E-01 -0.12709662114E-02  0.52788245004E-01  0.51100000000E-03 0. -1.
</event>
<event>
 8    1  0.1088088E+005  0.1043930E+01  0.7957747E-01            NaN
         13   -1    0    0    0    0  0.00000000000E+00  0.00000000000E+00  0.74505805969E-08  0.10566000000E+00  0.10566000000E+00 0. -1.
     999900   -1    0    0    0    0 -0.00000000000E+00 -0.00000000000E+00 -0.74505805969E-08  0.93827000000E+00  0.93827000000E+00 0.  1.
     999902    2    1    2    0    0  0.12634487434E-01 -0.15784560374E-01 -0.12797667911E-01  0.10200017129E+01  0.10197210067E+01 0.  0.
     999903    2    3    3    0    0 -0.12233320436E+00  0.28581940712E-01 -0.16505925361E-01  0.12859921380E+00  0.21976623822E-01 0.  0.
         14    1    1    2    0    0 -0.12634487434E-01  0.15784560374E-01  0.12797667911E-01  0.23928287086E-01  0.00000000000E+00 0. -1.
     999901    1    3    3    0    0  0.13496769179E+00 -0.44366501086E-01  0.37082574499E-02  0.89140249911E+00  0.88000000000E+00 0.  1.
        -11    1    4    4    0    0 -0.65992651785E-01  0.26593596595E-01 -0.98421071935E-02  0.71828808041E-01  0.51100000000E-03 0. -1.
         11    1    4    4    0    0 -0.56340552576E-01  0.19883441171E-02 -0.66638181676E-02  0.56770405763E-01  0.51100000000E-03 0.  1.
</event>
<event>
 8    1  0.1088088E+005  0.1043930E+01  0.7957747E-01            NaN
         13   -1    0    0    0    0  0.00000000000E+00  0.00000000000E+00  0.74505805969E-08  0.10566000000E+00  0.10566000000E+00 0.  1.
     999900   -1    0    0    0    0 -0.00000000000E+00 -0.00000000000E+00 -0.74505805969E-08  0.93827000000E+00  0.93827000000E+00 0. -1.
     999902    2    1    2    0    0  0.57253533839E-02  0.21605586961E-01 -0.78756519582E-02  0.10202317521E+01  0.10199564800E+01 0.  0.
     999903    2    3    3    0    0 -0.87424962180E-01 -0.37412921196E-01 -0.86079443664E-01  0.12990821618E+00  0.20582111769E-01 0.  0.
         14    1    1    2    0    0 -0.57253533839E-02 -0.21605586961E-01  0.78756519582E-02  0.23698247890E-01  0.00000000000E+00 0. -1.
     999901    1    3    3    0    0  0.93150315563E-01  0.59018508157E-01  0.78203791706E-01  0.89032353593E+00  0.88000000000E+00 0.  1.
        -11    1    4    4    0    0 -0.30923239308E-01 -0.23928140969E-01 -0.31736792004E-01  0.50361570143E-01  0.51100000000E-03 0.  1.
         11    1    4    4    0    0 -0.56501722872E-01 -0.13484780227E-01 -0.54342651660E-01  0.79546646037E-01  0.51100000000E-03 0. -1.
</event>
<event>
 8    1  0.1088088E+005  0.1043930E+01  0.7957747E-01            NaN
         13   -1    0    0    0    0  0.00000000000E+00  0.00000000000E+00  0.74505805969E-08  0.10566000000E+00  0.10566000000E+00 0. -1.
     999900   -1    0    0    0    0 -0.00000000000E+00 -0.00000000000E+00 -0.74505805969E-08  0.93827000000E+00  0.93827000000E+00 0. -1.
     999902    2    1    2    0    0 -0.62619879666E-03 -0.10904962163E-01  0.20762330510E-01  0.10204697210E+01  0.10202000131E+01 0.  0.
     999903    2    3    3    0    0 -0.12600353422E+00  0.25253444920E-01 -0.83734602827E-02  0.13037096186E+00  0.20293982880E-01 0.  0.
         14    1    1    2    0    0  0.62619879666E-03  0.10904962163E-01 -0.20762330510E-01  0.23460279046E-01  0.00000000000E+00 0.  1.
     999901    1    3    3    0    0  0.12537733543E+00 -0.36158407083E-01  0.29135790792E-01  0.89009875910E+00  0.88000000000E+00 0. -1.
        -11    1    4    4    0    0 -0.12369517509E+00  0.27516971921E-01 -0.89972927182E-02  0.12703894080E+00  0.51100000000E-03 0.  1.
         11    1    4    4    0    0 -0.23083591379E-02 -0.22635270006E-02  0.62383243550E-03  0.33320210533E-02  0.51100000000E-03 0. -1.
</event>
<event>
 8    1  0.1088088E+005  0.1043930E+01  0.7957747E-01            NaN
         13   -1    0    0    0    0  0.00000000000E+00  0.00000000000E+00  0.74505805969E-08  0.10566000000E+00  0.10566000000E+00 0. -1.
     999900   -1    0    0    0    0 -0.00000000000E+00 -0.00000000000E+00 -0.74505805969E-08  0.93827000000E+00  0.93827000000E+00 0.  1.
     999902    2    1    2    0    0 -0.13641696096E-01 -0.11141958842E-01  0.15072880390E-01  0.10207474453E+01  0.10204841578E+01 0.  0.
     999903    2    3    3    0    0  0.19806936671E-01  0.16445906700E-01  0.12829752652E+00  0.13243459396E+00  0.20393228734E-01 0.  0.
         14    1    1    2    0    0  0.13641696096E-01  0.11141958842E-01 -0.15072880390E-01  0.23182554701E-01  0.00000000000E+00 0.  1.
     999901    1    3    3    0    0 -0.33448632767E-01 -0.27587865543E-01 -0.11322464613E+00  0.88831285134E+00  0.88000000000E+00 0. -1.
        -11    1    4    4    0    0  0.20925454678E-01  0.54250931054E-02  0.90228509060E-01  0.92783356572E-01  0.51100000000E-03 0.  1.
         11    1    4    4    0    0 -0.11185180071E-02  0.11020813595E-01  0.38069017464E-01  0.39651237389E-01  0.51100000000E-03 0. -1.
</event>
<event>
 8    1  0.1088088E+005  0.1043930E+01  0.7957747E-01            NaN
         13   -1    0    0    0    0  0.00000000000E+00  0.00000000000E+00  0.74505805969E-08  0.10566000000E+00  0.10566000000E+00 0. -1.
     999900   -1    0    0    0    0 -0.00000000000E+00 -0.00000000000E+00 -0.74505805969E-08  0.93827000000E+00  0.93827000000E+00 0.  1.
     999902    2    1    2    0    0 -0.17887108894E-01 -0.93203836292E-02 -0.12223651629E-01  0.10203453466E+01  0.10200727379E+01 0.  0.
     999903    2    3    3    0    0 -0.37164358084E-01 -0.90646433131E-01 -0.87923693646E-01  0.13314974529E+00  0.20007833868E-01 0.  0.
         14    1    1    2    0    0  0.17887108894E-01  0.93203836292E-02  0.12223651629E-01  0.23584653373E-01  0.00000000000E+00 0. -1.
     999901    1    3    3    0    0  0.19277249190E-01  0.81326049502E-01  0.75700042017E-01  0.88719560133E+00  0.88000000000E+00 0. -1.
        -11    1    4    4    0    0 -0.15248513208E-01 -0.35991199725E-01 -0.48459213736E-01  0.62261064315E-01  0.51100000000E-03 0.  1.
         11    1    4    4    0    0 -0.21915844875E-01 -0.54655233406E-01 -0.39464479910E-01  0.70888680978E-01  0.51100000000E-03 0. -1.
</event>
<event>
 8    1  0.1088088E+005  0.1043930E+01  0.7957747E-01            NaN
         13   -1    0    0    0    0  0.00000000000E+00  0.00000000000E+00  0.74505805969E-08  0.10566000000E+00  0.10566000000E+00 0. -1.
     999900   -1    0    0    0    0 -0.00000000000E+00 -0.00000000000E+00 -0.74505805969E-08  0.93827000000E+00  0.93827000000E+00 0.  1.
     999902    2    1    2    0    0  0.23193011806E-01 -0.41411746462E-02 -0.32300831564E-03  0.10203679657E+01  0.10200958857E+01 0.  0.
     999903    2    3    3    0    0  0.86710762453E-01 -0.47171725429E-01  0.86455642200E-01  0.13277759449E+00  0.20282591690E-01 0.  0.
         14    1    1    2    0    0 -0.23193011806E-01  0.41411746462E-02  0.32300831564E-03  0.23562034259E-01  0.00000000000E+00 0. -1.
     999901    1    3    3    0    0 -0.63517750648E-01  0.43030550783E-01 -0.86778650515E-01  0.88759037125E+00  0.88000000000E+00 0. -1.
        -11    1    4    4    0    0  0.33164848769E-01 -0.23682477660E-01  0.24346828834E-01  0.47474162839E-01  0.51100000000E-03 0. -1.
         11    1    4    4    0    0  0.53545913684E-01 -0.23489247770E-01  0.62108813366E-01  0.85303431653E-01  0.51100000000E-03 0.  1.
</event>
<event>
 8    1  0.1088088E+005  0.1043930E+01  0.7957747E-01            NaN
         13   -1    0    0    0    0  0.00000000000E+00  0.00000000000E+00  0.74505805969E-08  0.10566000000E+00  0.10566000000E+00 0. -1.
     999900   -1    0    0    0    0 -0.00000000000E+00 -0.00000000000E+00 -0.74505805969E-08  0.93827000000E+00  0.93827000000E+00 0.  1.
     999902    2    1    2    0    0  0.40574456917E-03 -0.40570432661E-02 -0.23306833996E-01  0.10202692152E+01  0.10199948229E+01 0.  0.
     999903    2    3    3    0    0 -0.77297715381E-01 -0.40535474495E-01 -0.98448598506E-01  0.13290526028E+00  0.18804791049E-01 0.  0.
         14    1    1    2    0    0 -0.40574456917E-03  0.40570432661E-02  0.23306833996E-01  0.23660784848E-01  0.00000000000E+00 0. -1.
     999901    1    3    3    0    0  0.77703459950E-01  0.36478431229E-01  0.75141764511E-01  0.88736395487E+00  0.88000000000E+00 0. -1.
        -11    1    4    4    0    0 -0.93878917787E-02 -0.40930639596E-02 -0.22375468975E-01  0.24613175688E-01  0.51100000000E-03 0. -1.
         11    1    4    4    0    0 -0.67909823603E-01 -0.36442410535E-01 -0.76073129532E-01  0.10829208459E+00  0.51100000000E-03 0.  1.
</event>
<event>
 8    1  0.1088088E+005  0.1043930E+01  0.7957747E-01            NaN
         13   -1    0    0    0    0  0.00000000000E+00  0.00000000000E+00  0.74505805969E-08  0.10566000000E+00  0.10566000000E+00 0.  1.
     999900   -1    0    0    0    0 -0.00000000000E+00 -0.00000000000E+00 -0.74505805969E-08  0.93827000000E+00  0.93827000000E+00 0. -1.
     999902    2    1    2    0    0  0.84740045729E-02 -0.18936451849E-01 -0.11115706125E-01  0.10203937113E+01  0.10201222325E+01 0.  0.
     999903    2    3    3    0    0  0.11833330010E+00  0.17443780939E-01  0.49297303711E-01  0.13076327237E+00  0.19019827580E-01 0.  0.
         14    1    1    2    0    0 -0.84740045729E-02  0.18936451849E-01  0.11115706125E-01  0.23536288679E-01  0.00000000000E+00 0.  1.
     999901    1    3    3    0    0 -0.10985929553E+00 -0.36380232788E-01 -0.60413009836E-01  0.88963043895E+00  0.88000000000E+00 0. -1.
        -11    1    4    4    0    0  0.10630233113E+00  0.21308992793E-01  0.42985629153E-01  0.11662883097E+00  0.51100000000E-03 0.  1.
         11    1    4    4    0    0  0.12030968967E-01 -0.38652118548E-02  0.63116745585E-02  0.14134441400E-01  0.51100000000E-03 0. -1.
</event>
<event>
 8    1  0.1088088E+005  0.1043930E+01  0.7957747E-01            NaN
         13   -1    0    0    0    0  0.00000000000E+00  0.00000000000E+00  0.74505805969E-08  0.10566000000E+00  0.10566000000E+00 0. -1.
     999900   -1    0    0    0    0 -0.00000000000E+00 -0.00000000000E+00 -0.74505805969E-08  0.93827000000E+00  0.93827000000E+00 0. -1.
     999902    2    1    2    0    0 -0.22489274249E-01  0.49317719909E-02 -0.12582415830E-02  0.10208719645E+01  0.10206115298E+01 0.  0.
     999903    2    3    3    0    0  0.67744235563E-01  0.89047232142E-01 -0.63790242784E-01  0.13007021990E+00  0.18176248968E-01 0.  0.
         14    1    1    2    0    0  0.22489274249E-01 -0.49317719909E-02  0.12582415830E-02  0.23058035543E-01  0.00000000000E+00 0. -1.
     999901    1    3    3    0    0 -0.90233509812E-01 -0.84115460151E-01  0.62532001201E-01  0.89080174456E+00  0.88000000000E+00 0. -1.
        -11    1    4    4    0    0  0.40490452116E-01  0.38825136814E-01 -0.34488686097E-01  0.65852855298E-01  0.51100000000E-03 0. -1.
         11    1    4    4    0    0  0.27253783447E-01  0.50222095328E-01 -0.29301556687E-01  0.64217364604E-01  0.51100000000E-03 0.  1.
</event>
<event>
 8    1  0.1088088E+005  0.1043930E+01  0.7957747E-01            NaN
         13   -1    0    0    0    0  0.00000000000E+00  0.00000000000E+00  0.74505805969E-08  0.10566000000E+00  0.10566000000E+00 0.  1.
     999900   -1    0    0    0    0 -0.00000000000E+00 -0.00000000000E+00 -0.74505805969E-08  0.93827000000E+00  0.93827000000E+00 0.  1.
     999902    2    1    2    0    0 -0.18026139968E-01 -0.54085508294E-03 -0.16036777462E-01  0.10197967765E+01  0.10195111833E+01 0.  0.
     999903    2    3    3    0    0 -0.75124721895E-01 -0.10613528097E+00  0.60773083065E-04  0.13150090123E+00  0.19597490279E-01 0.  0.
         14    1    1    2    0    0  0.18026139968E-01  0.54085508294E-03  0.16036777462E-01  0.24133223526E-01  0.00000000000E+00 0.  1.
     999901    1    3    3    0    0  0.57098581927E-01  0.10559442589E+00 -0.16097550545E-01  0.88829587524E+00  0.88000000000E+00 0.  1.
        -11    1    4    4    0    0 -0.31842396382E-01 -0.41134047672E-01  0.93529225426E-02  0.52855334322E-01  0.51100000000E-03 0.  1.
         11    1    4    4    0    0 -0.43282325513E-01 -0.65001233299E-01 -0.92921494596E-02  0.78645566911E-01  0.51100000000E-03 0. -1.
</event>
<event>
 8    1  0.1088088E+005  0.1043930E+01  0.7957747E-01            NaN
         13   -1    0    0    0    0  0.00000000000E+00  0.00000000000E+00  0.74505805969E-08  0.10566000000E+00  0.10566000000E+00 0.  1.
     999900   -1    0    0    0    0 -0.00000000000E+00 -0.00000000000E+00 -0.74505805969E-08  0.93827000000E+00  0.93827000000E+00 0. -1.
     999902    2    1    2    0    0 -0.37043775724E-02 -0.14094205778E-01 -0.18627632090E-01  0.10202792553E+01  0.10200050985E+01 0.  0.
     999903    2    3    3    0    0 -0.64920442459E-01  0.71089931996E-01 -0.87156295184E-01  0.13140360501E+00  0.20056054940E-01 0.  0.
         14    1    1    2    0    0  0.37043775724E-02  0.14094205778E-01  0.18627632090E-01  0.23650744745E-01  0.00000000000E+00 0.  1.
     999901    1    3    3    0    0  0.61216064886E-01 -0.85184137774E-01  0.68528663094E-01  0.88887565024E+00  0.88000000000E+00 0.  1.
        -11    1    4    4    0    0 -0.50556996084E-01  0.57130318856E-01 -0.78846127315E-01  0.10971260684E+00  0.51100000000E-03 0.  1.
         11    1    4    4    0    0 -0.14363446375E-01  0.13959613140E-01 -0.83101678689E-02  0.21690998174E-01  0.51100000000E-03 0. -1.
</event>
<event>
 8    1  0.1088088E+005  0.1043930E+01  0.7957747E-01            NaN
         13   -1    0    0    0    0  0.00000000000E+00  0.00000000000E+00  0.74505805969E-08  0.10566000000E+00  0.10566000000E+00 0.  1.
     999900   -1    0    0    0    0 -0.00000000000E+00 -0.00000000000E+00 -0.74505805969E-08  0.93827000000E+00  0.93827000000E+00 0. -1.
     999902    2    1    2    0    0  0.60585187975E-02 -0.21845367388E-01  0.88492714232E-02  0.10195941143E+01  0.10193036460E+01 0.  0.
     999903    2    3    3    0    0  0.39308410533E-02 -0.65006914099E-01  0.11339494234E+00  0.13235274727E+00  0.20432483200E-01 0.  0.
         14    1    1    2    0    0 -0.60585187975E-02  0.21845367388E-01 -0.88492714232E-02  0.24335885665E-01  0.00000000000E+00 0. -1.
     999901    1    3    3    0    0  0.21276777442E-02  0.43161546711E-01 -0.10454567091E+00  0.88724136707E+00  0.88000000000E+00 0. -1.
        -11    1    4    4    0    0 -0.45742624108E-02 -0.50965819478E-01  0.93175888536E-01  0.10630355571E+00  0.51100000000E-03 0. -1.
         11    1    4    4    0    0  0.85051034641E-02 -0.14041094621E-01  0.20219053802E-01  0.26049191556E-01  0.51100000000E-03 0.  1.
</event>
<event>
 8    1  0.1088088E+005  0.1043930E+01  0.7957747E-01            NaN
         13   -1    0    0    0    0  0.00000000000E+00  0.00000000000E+00  0.74505805969E-08  0.10566000000E+00  0.10566000000E+00 0. -1.
     999900   -1    0    0    0    0 -0.00000000000E+00 -0.00000000000E+00 -0.74505805969E-08  0.93827000000E+00  0.93827000000E+00 0.  1.
     999902    2    1    2    0    0 -0.51969173015E-02  0.10944645960E-01 -0.21795301202E-01  0.10189935131E+01  0.10186883485E+01 0.  0.
     999903    2    3    3    0    0  0.65240016701E-01 -0.10840788341E+00 -0.17147104460E-02  0.12792133978E+00  0.18772319336E-01 0.  0.
         14    1    1    2    0    0  0.51969173015E-02 -0.10944645960E-01  0.21795301202E-01  0.24936486904E-01  0.00000000000E+00 0. -1.
     999901    1    3    3    0    0 -0.70436934002E-01  0.11935252937E+00 -0.20080590756E-01  0.89107217332E+00  0.88000000000E+00 0. -1.
        -11    1    4    4    0    0  0.44114586193E-01 -0.69486203955E-01 -0.98379288691E-02  0.82894361813E-01  0.51100000000E-03 0.  1.
         11    1    4    4    0    0  0.21125430508E-01 -0.38921679458E-01  0.81232184231E-02  0.45026977964E-01  0.51100000000E-03 0. -1.
</event>
<event>
 8    1  0.1088088E+005  0.1043930E+01  0.7957747E-01            NaN
         13   -1    0    0    0    0  0.00000000000E+00  0.00000000000E+00  0.74505805969E-08  0.10566000000E+00  0.10566000000E+00 0. -1.
     999900   -1    0    0    0    0 -0.00000000000E+00 -0.00000000000E+00 -0.74505805969E-08  0.93827000000E+00  0.93827000000E+00 0. -1.
     999902    2    1    2    0    0  0.95737296171E-02 -0.50175593317E-02  0.20863495974E-01  0.10204328158E+01  0.10201622488E+01 0.  0.
     999903    2    3    3    0    0 -0.71436551401E-01  0.50470724853E-01  0.96444571331E-01  0.13175170638E+00  0.20161395084E-01 0.  0.
         14    1    1    2    0    0 -0.95737296171E-02  0.50175593317E-02 -0.20863495974E-01  0.23497184186E-01  0.00000000000E+00 0. -1.
     999901    1    3    3    0    0  0.81010281018E-01 -0.55488284185E-01 -0.75581075357E-01  0.88868110943E+00  0.88000000000E+00 0. -1.
        -11    1    4    4    0    0 -0.47009300472E-02  0.88811254505E-03  0.13415055292E-01  0.14251747847E-01  0.51100000000E-03 0. -1.
         11    1    4    4    0    0 -0.66735621354E-01  0.49582612308E-01  0.83029516038E-01  0.11749995853E+00  0.51100000000E-03 0.  1.
</event>
<event>
 8    1  0.1088088E+005  0.1043930E+01  0.7957747E-01            NaN
         13   -1    0    0    0    0  0.00000000000E+00  0.00000000000E+00  0.74505805969E-08  0.10566000000E+00  0.10566000000E+00 0.  1.
     999900   -1    0    0    0    0 -0.00000000000E+00 -0.00000000000E+00 -0.74505805969E-08  0.93827000000E+00  0.93827000000E+00 0. -1.
     999902    2    1    2    0    0  0.98861584038E-02  0.15631964336E-01 -0.26520589385E-01  0.10115967957E+01  0.10110799380E+01 0.  0.
     999903    2    3    3    0    0 -0.80292392861E-01 -0.33644053061E-01 -0.86387146848E-01  0.12359662585E+00  0.15316531078E-01 0.  0.
         14    1    1    2    0    0 -0.98861584038E-02 -0.15631964336E-01  0.26520589385E-01  0.32333204269E-01  0.00000000000E+00 0.  1.
     999901    1    3    3    0    0  0.90178551265E-01  0.49276017397E-01  0.59866557463E-01  0.88800016988E+00  0.88000000000E+00 0. -1.
        -11    1    4    4    0    0 -0.67607460872E-01 -0.30756726681E-01 -0.65756859784E-01  0.99201666979E-01  0.51100000000E-03 0. -1.
         11    1    4    4    0    0 -0.12684931989E-01 -0.28873263801E-02 -0.20630287064E-01  0.24394958875E-01  0.51100000000E-03 0.  1.
</event>
<event>
 8    1  0.1088088E+005  0.1043930E+01  0.7957747E-01            NaN
         13   -1    0    0    0    0  0.00000000000E+00  0.00000000000E+00  0.74505805969E-08  0.10566000000E+00  0.10566000000E+00 0. -1.
     999900   -1    0    0    0    0 -0.00000000000E+00 -0.00000000000E+00 -0.74505805969E-08  0.93827000000E+00  0.93827000000E+00 0. -1.
     999902    2    1    2    0    0  0.63233901859E-02  0.17502343968E-01  0.19253113215E-01  0.10171531504E+01  0.10168006351E+01 0.  0.
     999903    2    3    3    0    0 -0.10206750244E+00  0.72131135986E-01  0.23058949867E-01  0.12881347720E+00  0.20988589917E-01 0.  0.
         14    1    1    2    0    0 -0.63233901859E-02 -0.17502343968E-01 -0.19253113215E-01  0.26776849633E-01  0.00000000000E+00 0.  1.
     999901    1    3    3    0    0  0.10839089263E+00 -0.54628792018E-01 -0.38058366519E-02  0.88833967316E+00  0.88000000000E+00 0. -1.
        -11    1    4    4    0    0 -0.37926285815E-01  0.36129479812E-01  0.25199872202E-02  0.52443816831E-01  0.51100000000E-03 0. -1.
         11    1    4    4    0    0 -0.64141216628E-01  0.36001656174E-01  0.20538962647E-01  0.76369660373E-01  0.51100000000E-03 0.  1.
</event>
<event>
 8    1  0.1088088E+005  0.1043930E+01  0.7957747E-01            NaN
         13   -1    0    0    0    0  0.00000000000E+00  0.00000000000E+00  0.74505805969E-08  0.10566000000E+00  0.10566000000E+00 0.  1.
     999900   -1    0    0    0    0 -0.00000000000E+00 -0.00000000000E+00 -0.74505805969E-08  0.93827000000E+00  0.93827000000E+00 0. -1.
     999902    2    1    2    0    0 -0.14891433030E-01  0.12433706587E-01  0.14192700985E-01  0.10198928496E+01  0.10196095528E+01 0.  0.
     999903    2    3    3    0    0  0.45585579742E-01  0.56714951397E-01  0.10802676577E+00  0.13173569605E+00  0.19745396954E-01 0.  0.
         14    1    1    2    0    0  0.14891433030E-01 -0.12433706587E-01 -0.14192700985E-01  0.24037150381E-01  0.00000000000E+00 0. -1.
     999901    1    3    3    0    0 -0.60477012772E-01 -0.44281244810E-01 -0.93834064780E-01  0.88815715357E+00  0.88000000000E+00 0. -1.
        -11    1    4    4    0    0  0.14549462334E-01  0.20604145081E-01  0.22299531567E-01  0.33671172802E-01  0.51100000000E-03 0.  1.
         11    1    4    4    0    0  0.31036117408E-01  0.36110806316E-01  0.85727234198E-01  0.98064523253E-01  0.51100000000E-03 0. -1.
</event>
<event>
 8    1  0.1088088E+005  0.1043930E+01  0.7957747E-01            NaN
         13   -1    0    0    0    0  0.00000000000E+00  0.00000000000E+00  0.74505805969E-08  0.10566000000E+00  0.10566000000E+00 0. -1.
     999900   -1    0    0    0    0 -0.00000000000E+00 -0.00000000000E+00 -0.74505805969E-08  0.93827000000E+00  0.93827000000E+00 0.  1.
     999902    2    1    2    0    0  0.22025590084E-01 -0.88118795545E-02 -0.27681930499E-02  0.10200461408E+01  0.10197664882E+01 0.  0.
     999903    2    3    3    0    0 -0.11964520645E+00  0.32677922617E-01 -0.22284444941E-01  0.12753681174E+00  0.19652475922E-01 0.  0.
         14    1    1    2    0    0 -0.22025590084E-01  0.88118795545E-02  0.27681930499E-02  0.23883859249E-01  0.00000000000E+00 0.  1.
     999901    1    3    3    0    0  0.14167079654E+00 -0.41489802172E-01  0.19516251891E-01  0.89250932901E+00  0.88000000000E+00 0.  1.
        -11    1    4    4    0    0 -0.28999163822E-01  0.16766224516E-01 -0.45192020017E-02  0.33804468560E-01  0.51100000000E-03 0. -1.
         11    1    4    4    0    0 -0.90646042632E-01  0.15911698101E-01 -0.17765242939E-01  0.93732343185E-01  0.51100000000E-03 0.  1.
</event>
<event>
 8    1  0.1088088E+005  0.1043930E+01  0.7957747E-01            NaN
         13   -1    0    0    0    0  0.00000000000E+00  0.00000000000E+00  0.74505805969E-08  0.10566000000E+00  0.10566000000E+00 0.  1.
     999900   -1    0    0    0    0 -0.00000000000E+00 -0.00000000000E+00 -0.74505805969E-08  0.93827000000E+00  0.93827000000E+00 0.  1.
     999902    2    1    2    0    0 -0.10928885399E-01  0.13611741723E-01 -0.13838829459E-01  0.10216537066E+01  0.10214108198E+01 0.  0.
     999903    2    3    3    0    0  0.10931259805E+00 -0.57882849078E-01 -0.35963121225E-01  0.13032942486E+00  0.19817784599E-01 0.  0.
         14    1    1    2    0    0  0.10928885399E-01 -0.13611741723E-01  0.13838829459E-01  0.22276293444E-01  0.00000000000E+00 0.  1.
     999901    1    3    3    0    0 -0.12024148345E+00  0.71494590802E-01  0.22124291766E-01  0.89132428170E+00  0.88000000000E+00 0.  1.
        -11    1    4    4    0    0  0.79569569492E-01 -0.45278849719E-01 -0.34980450948E-01  0.98007059391E-01  0.51100000000E-03 0.  1.
         11    1    4    4    0    0  0.29743028557E-01 -0.12603999359E-01 -0.98267027668E-03  0.32322365468E-01  0.51100000000E-03 0. -1.
</event>
<event>
 8    1  0.1088088E+005  0.1043930E+01  0.7957747E-01            NaN
         13   -1    0    0    0    0  0.00000000000E+00  0.00000000000E+00  0.74505805969E-08  0.10566000000E+00  0.10566000000E+00 0.  1.
     999900   -1    0    0    0    0 -0.00000000000E+00 -0.00000000000E+00 -0.74505805969E-08  0.93827000000E+00  0.93827000000E+00 0. -1.
     999902    2    1    2    0    0  0.21055075752E-01 -0.59343364948E-02 -0.10855807168E-01  0.10195090845E+01  0.10192165581E+01 0.  0.
     999903    2    3    3    0    0  0.42106477023E-02  0.41462948061E-02  0.12648676606E+00  0.12863965731E+00  0.22679023996E-01 0.  0.
         14    1    1    2    0    0 -0.21055075752E-01  0.59343364948E-02  0.10855807168E-01  0.24420915499E-01  0.00000000000E+00 0.  1.
     999901    1    3    3    0    0  0.16844428050E-01 -0.10080631301E-01 -0.13734257323E+00  0.89086942719E+00  0.88000000000E+00 0. -1.
        -11    1    4    4    0    0  0.91963102050E-02 -0.59767414733E-02  0.82422733884E-01  0.83150837290E-01  0.51100000000E-03 0.  1.
         11    1    4    4    0    0 -0.49856625027E-02  0.10123036279E-01  0.44064032177E-01  0.45488820020E-01  0.51100000000E-03 0. -1.
</event>
<event>
 8    1  0.1088088E+005  0.1043930E+01  0.7957747E-01            NaN
         13   -1    0    0    0    0  0.00000000000E+00  0.00000000000E+00  0.74505805969E-08  0.10566000000E+00  0.10566000000E+00 0. -1.
     999900   -1    0    0    0    0 -0.00000000000E+00 -0.00000000000E+00 -0.74505805969E-08  0.93827000000E+00  0.93827000000E+00 0. -1.
     999902    2    1    2    0    0 -0.11047282914E-01 -0.12629662995E-01 -0.63640530910E-02  0.10259841922E+01  0.10258272323E+01 0.  0.
     999903    2    3    3    0    0 -0.30752185152E-01 -0.66140439610E-01 -0.11479369842E+00  0.13749745936E+00  0.20191668817E-01 0.  0.
         14    1    1    2    0    0  0.11047282914E-01  0.12629662995E-01  0.63640530910E-02  0.17945807837E-01  0.00000000000E+00 0. -1.
     999901    1    3    3    0    0  0.19704902238E-01  0.53510776615E-01  0.10842964533E+00  0.88848673281E+00  0.88000000000E+00 0.  1.
        -11    1    4    4    0    0 -0.61952400805E-02 -0.32893375523E-01 -0.41157002409E-01  0.53052003933E-01  0.51100000000E-03 0.  1.
         11    1    4    4    0    0 -0.24556945072E-01 -0.33247064087E-01 -0.73636696010E-01  0.84445455425E-01  0.51100000000E-03 0. -1.
</event>
<event>
 8    1  0.1088088E+005  0.1043930E+01  0.7957747E-01            NaN
         13   -1    0    0    0    0  0.00000000000E+00  0.00000000000E+00  0.74505805969E-08  0.10566000000E+00  0.10566000000E+00 0. -1.
     999900   -1    0    0    0    0 -0.00000000000E+00 -0.00000000000E+00 -0.74505805969E-08  0.93827000000E+00  0.93827000000E+00 0. -1.
     999902    2    1    2    0    0  0.44538713735E-02  0.22458118444E-01 -0.46054156618E-02  0.10205759017E+01  0.10203086578E+01 0.  0.
     999903    2    3    3    0    0 -0.14117930761E-01  0.10009250972E+00  0.83438595776E-01  0.13258729901E+00  0.19989150162E-01 0.  0.
         14    1    1    2    0    0 -0.44538713735E-02 -0.22458118444E-01  0.46054156618E-02  0.23354098305E-01  0.00000000000E+00 0. -1.
     999901    1    3    3    0    0  0.18571802134E-01 -0.77634391272E-01 -0.88044011438E-01  0.88798860268E+00  0.88000000000E+00 0. -1.
        -11    1    4    4    0    0 -0.15991841729E-01  0.80368893383E-01  0.58265677676E-01  0.10054873615E+00  0.51100000000E-03 0.  1.
         11    1    4    4    0    0  0.18739109683E-02  0.19723616332E-01  0.25172918101E-01  0.32038562862E-01  0.51100000000E-03 0. -1.
</event>
<event>
 8    1  0.1088088E+005  0.1043930E+01  0.7957747E-01            NaN
         13   -1    0    0    0    0  0.00000000000E+00  0.00000000000E+00  0.74505805969E-08  0.10566000000E+00  0.10566000000E+00 0. -1.
     999900   -1    0    0    0    0 -0.00000000000E+00 -0.00000000000E+00 -0.74505805969E-08  0.93827000000E+00  0.93827000000E+00 0. -1.
     999902    2    1    2    0    0  0.13573074049E-01 -0.12208677533E-01  0.15662797753E-01  0.10198758241E+01  0.10195921210E+01 0.  0.
     999903    2    3    3    0    0  0.94648736403E-02  0.29317927631E-01  0.12586186220E+00  0.13202157361E+00  0.25285624956E-01 0.  0.
         14    1    1    2    0    0 -0.13573074049E-01  0.12208677533E-01 -0.15662797753E-01  0.24054175931E-01  0.00000000000E+00 0.  1.
     999901    1    3    3    0    0  0.41082004085E-02 -0.41526605164E-01 -0.11019906445E+00  0.88785425046E+00  0.88000000000E+00 0. -1.
        -11    1    4    4    0    0 -0.26150014541E-02  0.14164068626E-01  0.21561651629E-01  0.25935015223E-01  0.51100000000E-03 0.  1.
         11    1    4    4    0    0  0.12079875094E-01  0.15153859005E-01  0.10430021057E+00  0.10608655839E+00  0.51100000000E-03 0. -1.
</event>
<event>
 8    1  0.1088088E+005  0.1043930E+01  0.7957747E-01            NaN
         13   -1    0    0    0    0  0.00000000000E+00  0.00000000000E+00  0.74505805969E-08  0.10566000000E+00  0.10566000000E+00 0.  1.
     999900   -1    0    0    0    0 -0.00000000000E+00 -0.00000000000E+00 -0.74505805969E-08  0.93827000000E+00  0.93827000000E+00 0.  1.
     999902    2    1    2    0    0  0.18715322659E-01 -0.79751998041E-02 -0.12148393315E-01  0.10202350517E+01  0.10199598571E+01 0.  0.
     999903    2    3    3    0    0 -0.91850702249E-01  0.70368420550E-01  0.49911192718E-01  0.12770272124E+00  0.20702457355E-01 0.  0.
         14    1    1    2    0    0 -0.18715322659E-01  0.79751998041E-02  0.12148393315E-01  0.23694948286E-01  0.00000000000E+00 0.  1.
     999901    1    3    3    0    0  0.11056602491E+00 -0.78343620354E-01 -0.62059586033E-01  0.89253233047E+00  0.88000000000E+00 0. -1.
        -11    1    4    4    0    0 -0.34318259457E-02  0.39356710452E-03  0.54957150788E-02  0.65112463948E-02  0.51100000000E-03 0. -1.
         11    1    4    4    0    0 -0.88418876303E-01  0.69974853445E-01  0.44415477639E-01  0.12119147485E+00  0.51100000000E-03 0.  1.
</event>
<event>
 8    1  0.1088088E+005  0.1043930E+01  0.7957747E-01            NaN
         13   -1    0    0    0    0  0.00000000000E+00  0.00000000000E+00  0.74505805969E-08  0.10566000000E+00  0.10566000000E+00 0. -1.
     999900   -1    0    0    0    0 -0.00000000000E+00 -0.00000000000E+00 -0.74505805969E-08  0.93827000000E+00  0.93827000000E+00 0. -1.
     999902    2    1    2    0    0 -0.17571646462E-01 -0.91618295671E-02 -0.13022574058E-01  0.10202173596E+01  0.10199417491E+01 0.  0.
     999903    2    3    3    0    0  0.41709387553E-01 -0.80014486770E-01  0.90155451584E-01  0.12938626167E+00  0.21698114131E-01 0.  0.
         14    1    1    2    0    0  0.17571646462E-01  0.91618295671E-02  0.13022574058E-01  0.23712640416E-01  0.00000000000E+00 0.  1.
     999901    1    3    3    0    0 -0.59281034015E-01  0.70852657203E-01 -0.10317802564E+00  0.89083109791E+00  0.88000000000E+00 0. -1.
        -11    1    4    4    0    0  0.36946067157E-01 -0.51759126028E-01  0.68472742987E-01  0.93449433699E-01  0.51100000000E-03 0. -1.
         11    1    4    4    0    0  0.47633203956E-02 -0.28255360742E-01  0.21682708597E-01  0.35936827976E-01  0.51100000000E-03 0.  1.
</event>
<event>
 8    1  0.1088088E+005  0.1043930E+01  0.7957747E-01            NaN
         13   -1    0    0    0    0  0.00000000000E+00  0.00000000000E+00  0.74505805969E-08  0.10566000000E+00  0.10566000000E+00 0. -1.
     999900   -1    0    0    0    0 -0.00000000000E+00 -0.00000000000E+00 -0.74505805969E-08  0.93827000000E+00  0.93827000000E+00 0.  1.
     999902    2    1    2    0    0  0.18005791094E-01 -0.12908780929E-01 -0.13900741981E-01  0.10177751579E+01  0.10174390381E+01 0.  0.
     999903    2    3    3    0    0  0.37331316133E-01 -0.51804830341E-01 -0.11297437295E+00  0.13115124499E+00  0.18975576642E-01 0.  0.
         14    1    1    2    0    0 -0.18005791094E-01  0.12908780929E-01  0.13900741981E-01  0.26154842106E-01  0.00000000000E+00 0. -1.
     999901    1    3    3    0    0 -0.19325525039E-01  0.38896049412E-01  0.99073630967E-01  0.88662391290E+00  0.88000000000E+00 0. -1.
        -11    1    4    4    0    0  0.19502623271E-01 -0.11787841164E-01 -0.37689997196E-01  0.44046594913E-01  0.51100000000E-03 0.  1.
         11    1    4    4    0    0  0.17828692862E-01 -0.40016989178E-01 -0.75284375752E-01  0.87104650079E-01  0.51100000000E-03 0. -1.
</event>
<event>
 8    1  0.1088088E+005  0.1043930E+01  0.7957747E-01            NaN
         13   -1    0    0    0    0  0.00000000000E+00  0.00000000000E+00  0.74505805969E-08  0.10566000000E+00  0.10566000000E+00 0. -1.
     999900   -1    0    0    0    0 -0.00000000000E+00 -0.00000000000E+00 -0.74505805969E-08  0.93827000000E+00  0.93827000000E+00 0. -1.
     999902    2    1    2    0    0  0.64689965574E-02  0.20451168773E-01 -0.11335541228E-01  0.10196690702E+01  0.10193804098E+01 0.  0.
     999903    2    3    3    0    0  0.44767661363E-01  0.10543781905E+00  0.61529502291E-01  0.13175081211E+00  0.21239577421E-01 0.  0.
         14    1    1    2    0    0 -0.64689965574E-02 -0.20451168773E-01  0.11335541228E-01  0.24260929817E-01  0.00000000000E+00 0.  1.
     999901    1    3    3    0    0 -0.38298664806E-01 -0.84986650280E-01 -0.72865043519E-01  0.88791825807E+00  0.88000000000E+00 0. -1.
        -11    1    4    4    0    0  0.39135768097E-01  0.10310273899E+00  0.59474858095E-01  0.12529685949E+00  0.51100000000E-03 0. -1.
         11    1    4    4    0    0  0.56318932659E-02  0.23350800649E-02  0.20546441965E-02  0.64539526217E-02  0.51100000000E-03 0.  1.
</event>
<event>
 8    1  0.1088088E+005  0.1043930E+01  0.7957747E-01            NaN
         13   -1    0    0    0    0  0.00000000000E+00  0.00000000000E+00  0.74505805969E-08  0.10566000000E+00  0.10566000000E+00 0. -1.
     999900   -1    0    0    0    0 -0.00000000000E+00 -0.00000000000E+00 -0.74505805969E-08  0.93827000000E+00  0.93827000000E+00 0.  1.
     999902    2    1    2    0    0 -0.23615774385E-02  0.23551125619E-01  0.28311650389E-04  0.10202607506E+01  0.10199861596E+01 0.  0.
     999903    2    3    3    0    0 -0.33979684391E-01  0.79808567323E-01  0.98243792073E-01  0.13244833514E+00  0.19149214909E-01 0.  0.
         14    1    1    2    0    0  0.23615774385E-02 -0.23551125619E-01 -0.28311650389E-04  0.23669249407E-01  0.00000000000E+00 0.  1.
     999901    1    3    3    0    0  0.31618106952E-01 -0.56257441704E-01 -0.98215480423E-01  0.88781241545E+00  0.88000000000E+00 0.  1.
        -11    1    4    4    0    0 -0.73522787854E-02  0.33059944777E-01  0.27867373508E-01  0.43861914906E-01  0.51100000000E-03 0.  1.
         11    1    4    4    0    0 -0.26627405605E-01  0.46748622546E-01  0.70376418565E-01  0.88586420237E-01  0.51100000000E-03 0. -1.
</event>
<event>
 8    1  0.1088088E+005  0.1043930E+01  0.7957747E-01            NaN
         13   -1    0    0    0    0  0.00000000000E+00  0.00000000000E+00  0.74505805969E-08  0.10566000000E+00  0.10566000000E+00 0. -1.
     999900   -1    0    0    0    0 -0.00000000000E+00 -0.00000000000E+00 -0.74505805969E-08  0.93827000000E+00  0.93827000000E+00 0. -1.
     999902    2    1    2    0    0 -0.12859351281E-01 -0.10701319825E-01  0.17174550091E-01  0.10199540468E+01  0.10196722077E+01 0.  0.
     999903    2    3    3    0    0 -0.99483311581E-01 -0.51773829940E-01  0.69060509818E-01  0.13322815093E+00  0.20073052406E-01 0.  0.
         14    1    1    2    0    0  0.12859351281E-01  0.10701319825E-01 -0.17174550091E-01  0.23975953207E-01  0.00000000000E+00 0.  1.
     999901    1    3    3    0    0  0.86623960300E-01  0.41072510115E-01 -0.51885959727E-01  0.88672589587E+00  0.88000000000E+00 0. -1.
        -11    1    4    4    0    0 -0.33493103264E-01 -0.23508434677E-01  0.15924640465E-01  0.43912296252E-01  0.51100000000E-03 0.  1.
         11    1    4    4    0    0 -0.65990208317E-01 -0.28265395263E-01  0.53135869353E-01  0.89315854673E-01  0.51100000000E-03 0. -1.
</event>
<event>
 8    1  0.1088088E+005  0.1043930E+01  0.7957747E-01            NaN
         13   -1    0    0    0    0  0.00000000000E+00  0.00000000000E+00  0.74505805969E-08  0.10566000000E+00  0.10566000000E+00 0.  1.
     999900   -1    0    0    0    0 -0.00000000000E+00 -0.00000000000E+00 -0.74505805969E-08  0.93827000000E+00  0.93827000000E+00 0. -1.
     999902    2    1    2    0    0 -0.16331711006E-02  0.22231248339E-01  0.66714465706E-02  0.10206619135E+01  0.10203966571E+01 0.  0.
     999903    2    3    3    0    0 -0.24970749985E-01 -0.97303322835E-01 -0.77309821087E-01  0.12831332151E+00  0.19900378136E-01 0.  0.
         14    1    1    2    0    0  0.16331711006E-02 -0.22231248339E-01 -0.66714465706E-02  0.23268086511E-01  0.00000000000E+00 0.  1.
     999901    1    3    3    0    0  0.23337578885E-01  0.11953457117E+00  0.83981267658E-01  0.89234859198E+00  0.88000000000E+00 0.  1.
        -11    1    4    4    0    0 -0.24899254050E-01 -0.72388685294E-01 -0.50494104681E-01  0.91706108517E-01  0.51100000000E-03 0. -1.
         11    1    4    4    0    0 -0.71495935266E-04 -0.24914637542E-01 -0.26815716407E-01  0.36607212990E-01  0.51100000000E-03 0.  1.
</event>
<event>
 8    1  0.1088088E+005  0.1043930E+01  0.7957747E-01            NaN
         13   -1    0    0    0    0  0.00000000000E+00  0.00000000000E+00  0.74505805969E-08  0.10566000000E+00  0.10566000000E+00 0. -1.
     999900   -1    0    0    0    0 -0.00000000000E+00 -0.00000000000E+00 -0.74505805969E-08  0.93827000000E+00  0.93827000000E+00 0.  1.
     999902    2    1    2    0    0 -0.66400334818E-02  0.11192680405E-01 -0.88345165201E-02  0.10282005747E+01  0.10280802531E+01 0.  0.
     999903    2    3    3    0    0  0.28852588410E-01  0.94531259518E-01 -0.96060600305E-01  0.13926107466E+00  0.19934319645E-01 0.  0.
         14    1    1    2    0    0  0.66400334818E-02 -0.11192680405E-01  0.88345165201E-02  0.15729425337E-01  0.00000000000E+00 0. -1.
     999901    1    3    3    0    0 -0.35492621892E-01 -0.83338579113E-01  0.87226083785E-01  0.88893950001E+00  0.88000000000E+00 0. -1.
        -11    1    4    4    0    0  0.82321023374E-03  0.34970929663E-01 -0.34450605132E-01  0.49099377914E-01  0.51100000000E-03 0. -1.
         11    1    4    4    0    0  0.28029378176E-01  0.59560329855E-01 -0.61609995173E-01  0.90161696743E-01  0.51100000000E-03 0.  1.
</event>
<event>
 8    1  0.1088088E+005  0.1043930E+01  0.7957747E-01            NaN
         13   -1    0    0    0    0  0.00000000000E+00  0.00000000000E+00  0.74505805969E-08  0.10566000000E+00  0.10566000000E+00 0. -1.
     999900   -1    0    0    0    0 -0.00000000000E+00 -0.00000000000E+00 -0.74505805969E-08  0.93827000000E+00  0.93827000000E+00 0. -1.
     999902    2    1    2    0    0  0.16061959357E-01 -0.14502479910E-02 -0.18728469080E-01  0.10192147150E+01  0.10189150063E+01 0.  0.
     999903    2    3    3    0    0  0.11660644777E+00 -0.56333329082E-01 -0.14263395976E-01  0.13177948718E+00  0.19795988213E-01 0.  0.
         14    1    1    2    0    0 -0.16061959357E-01  0.14502479910E-02  0.18728469080E-01  0.24715284981E-01  0.00000000000E+00 0. -1.
     999901    1    3    3    0    0 -0.10054448841E+00  0.54883081091E-01 -0.44650731036E-02  0.88743522784E+00  0.88000000000E+00 0. -1.
        -11    1    4    4    0    0  0.18339596220E-01 -0.16105980387E-01  0.13698736161E-02  0.24451606664E-01  0.51100000000E-03 0. -1.
         11    1    4    4    0    0  0.98266851546E-01 -0.40227348695E-01 -0.15633269593E-01  0.10732788051E+00  0.51100000000E-03 0.  1.
</event>
<event>
 8    1  0.1088088E+005  0.1043930E+01  0.7957747E-01            NaN
         13   -1    0    0    0    0  0.00000000000E+00  0.00000000000E+00  0.74505805969E-08  0.10566000000E+00  0.10566000000E+00 0.  1.
     999900   -1    0    0    0    0 -0.00000000000E+00 -0.00000000000E+00 -0.74505805969E-08  0.93827000000E+00  0.93827000000E+00 0. -1.
     999902    2    1    2    0    0 -0.10056005274E-01 -0.17760981737E-01  0.12146348184E-01  0.10201790108E+01  0.10199024976E+01 0.  0.
     999903    2    3    3    0    0  0.57460237196E-01  0.11168375508E+00  0.10729011770E-01  0.12814964371E+00  0.23071182912E-01 0.  0.
         14    1    1    2    0    0  0.10056005274E-01  0.17760981737E-01 -0.12146348184E-01  0.23750989212E-01  0.00000000000E+00 0. -1.
     999901    1    3    3    0    0 -0.67516242470E-01 -0.12944473682E+00  0.14173364142E-02  0.89202936708E+00  0.88000000000E+00 0. -1.
        -11    1    4    4    0    0  0.48644953699E-01  0.10325912549E+00  0.40037497319E-02  0.11421501500E+00  0.51100000000E-03 0.  1.
         11    1    4    4    0    0  0.88152834963E-02  0.84246295930E-02  0.67252620378E-02  0.13934628713E-01  0.51100000000E-03 0. -1.
</event>
<event>
 8    1  0.1088088E+005  0.1043930E+01  0.7957747E-01            NaN
         13   -1    0    0    0    0  0.00000000000E+00  0.00000000000E+00  0.74505805969E-08  0.10566000000E+00  0.10566000000E+00 0.  1.
     999900   -1    0    0    0    0 -0.00000000000E+00 -0.00000000000E+00 -0.74505805969E-08  0.93827000000E+00  0.93827000000E+00 0. -1.
     999902    2    1    2    0    0 -0.13745318505E-01  0.16002482160E-01 -0.11135212529E-01  0.10200761497E+01  0.10197972078E+01 0.  0.
     999903    2    3    3    0    0  0.90682823613E-01  0.73300076609E-01  0.52297080067E-01  0.12978860798E+00  0.22667652036E-01 0.  0.
         14    1    1    2    0    0  0.13745318505E-01 -0.16002482160E-01  0.11135212529E-01  0.23853850300E-01  0.00000000000E+00 0. -1.
     999901    1    3    3    0    0 -0.10442814212E+00 -0.57297594449E-01 -0.63432292595E-01  0.89028754172E+00  0.88000000000E+00 0. -1.
        -11    1    4    4    0    0  0.60145872465E-01  0.61181653371E-01  0.35049439130E-01  0.92679258672E-01  0.51100000000E-03 0. -1.
         11    1    4    4    0    0  0.30536951148E-01  0.12118423238E-01  0.17247640937E-01  0.37109349309E-01  0.51100000000E-03 0.  1.
</event>
<event>
 8    1  0.1088088E+005  0.1043930E+01  0.7957747E-01            NaN
         13   -1    0    0    0    0  0.00000000000E+00  0.00000000000E+00  0.74505805969E-08  0.10566000000E+00  0.10566000000E+00 0. -1.
     999900   -1    0    0    0    0 -0.00000000000E+00 -0.00000000000E+00 -0.74505805969E-08  0.93827000000E+00  0.93827000000E+00 0. -1.
     999902    2    1    2    0    0  0.15231180373E-01  0.15823778630E-01 -0.10504106059E-01  0.10195842186E+01  0.10192935111E+01 0.  0.
     999903    2    3    3    0    0  0.50495192536E-01 -0.11201527354E+00  0.32544424633E-01  0.12860747944E+00  0.19584642377E-01 0.  0.
         14    1    1    2    0    0 -0.15231180373E-01 -0.15823778630E-01  0.10504106059E-01  0.24345781355E-01  0.00000000000E+00 0. -1.
     999901    1    3    3    0    0 -0.35264012163E-01  0.12783905217E+00 -0.43048530692E-01  0.89097673921E+00  0.88000000000E+00 0. -1.
        -11    1    4    4    0    0  0.28905815071E-01 -0.70490881032E-01  0.29511871935E-01  0.81705092618E-01  0.51100000000E-03 0.  1.
         11    1    4    4    0    0  0.21589377465E-01 -0.41524392508E-01  0.30325526980E-02  0.46902386820E-01  0.51100000000E-03 0. -1.
</event>
<event>
 8    1  0.1088088E+005  0.1043930E+01  0.7957747E-01            NaN
         13   -1    0    0    0    0  0.00000000000E+00  0.00000000000E+00  0.74505805969E-08  0.10566000000E+00  0.10566000000E+00 0.  1.
     999900   -1    0    0    0    0 -0.00000000000E+00 -0.00000000000E+00 -0.74505805969E-08  0.93827000000E+00  0.93827000000E+00 0. -1.
     999902    2    1    2    0    0 -0.91794626172E-02  0.17004650188E-01  0.13228346950E-01  0.10205118484E+01  0.10202431195E+01 0.  0.
     999903    2    3    3    0    0 -0.11837446832E+00 -0.49620877353E-01  0.19083632009E-01  0.13124428766E+00  0.19650236976E-01 0.  0.
         14    1    1    2    0    0  0.91794626172E-02 -0.17004650188E-01 -0.13228346950E-01  0.23418151614E-01  0.00000000000E+00 0. -1.
     999901    1    3    3    0    0  0.10919500571E+00  0.66625527542E-01 -0.58552850590E-02  0.88926756072E+00  0.88000000000E+00 0. -1.
        -11    1    4    4    0    0 -0.40569458395E-01 -0.16625935258E-01  0.15997952514E-01  0.46674385730E-01  0.51100000000E-03 0. -1.
         11    1    4    4    0    0 -0.77805009929E-01 -0.32994942095E-01  0.30856794944E-02  0.84569901933E-01  0.51100000000E-03 0.  1.
</event>
<event>
 8    1  0.1088088E+005  0.1043930E+01  0.7957747E-01            NaN
         13   -1    0    0    0    0  0.00000000000E+00  0.00000000000E+00  0.74505805969E-08  0.10566000000E+00  0.10566000000E+00 0. -1.
     999900   -1    0    0    0    0 -0.00000000000E+00 -0.00000000000E+00 -0.74505805969E-08  0.93827000000E+00  0.93827000000E+00 0. -1.
     999902    2    1    2    0    0  0.15679128200E-01 -0.15880649383E-01  0.85317208480E-02  0.10200381531E+01  0.10197583113E+01 0.  0.
     999903    2    3    3    0    0  0.59053366187E-01 -0.54791809124E-01  0.10382903855E+00  0.13297728621E+00  0.20323557674E-01 0.  0.
         14    1    1    2    0    0 -0.15679128200E-01  0.15880649383E-01 -0.85317208480E-02  0.23891846864E-01  0.00000000000E+00 0.  1.
     999901    1    3    3    0    0 -0.43374237988E-01  0.38911159740E-01 -0.95297317700E-01  0.88706086693E+00  0.88000000000E+00 0. -1.
        -11    1    4    4    0    0  0.31076260109E-01 -0.42064184617E-01  0.67369326258E-01  0.85287846797E-01  0.51100000000E-03 0.  1.
         11    1    4    4    0    0  0.27977106079E-01 -0.12727624507E-01  0.36459712290E-01  0.47689439411E-01  0.51100000000E-03 0. -1.
</event>
<event>
 8    1  0.1088088E+005  0.1043930E+01  0.7957747E-01            NaN
         13   -1    0    0    0    0  0.00000000000E+00  0.00000000000E+00  0.74505805969E-08  0.10566000000E+00  0.10566000000E+00 0.  1.
     999900   -1    0    0    0    0 -0.00000000000E+00 -0.00000000000E+00 -0.74505805969E-08  0.93827000000E+00  0.93827000000E+00 0. -1.
     999902    2    1    2    0    0  0.13577074045E-01  0.21236658098E-02  0.21257978234E-01  0.10186169888E+01  0.10183024214E+01 0.  0.
     999903    2    3    3    0    0 -0.12858880940E-01  0.10338185446E+00 -0.70992211489E-01  0.12762755118E+00  0.19893191780E-01 0.  0.
         14    1    1    2    0    0 -0.13577074045E-01 -0.21236658098E-02 -0.21257978234E-01  0.25313011174E-01  0.00000000000E+00 0. -1.
     999901    1    3    3    0    0  0.26435954985E-01 -0.10125818865E+00  0.92250189723E-01  0.89098943764E+00  0.88000000000E+00 0.  1.
        -11    1    4    4    0    0  0.48145707746E-02  0.27096336932E-01 -0.14868267841E-01  0.31284470212E-01  0.51100000000E-03 0.  1.
         11    1    4    4    0    0 -0.17673451715E-01  0.76285517526E-01 -0.56123943648E-01  0.96343080973E-01  0.51100000000E-03 0. -1.
</event>
<event>
 8    1  0.1088088E+005  0.1043930E+01  0.7957747E-01            NaN
         13   -1    0    0    0    0  0.00000000000E+00  0.00000000000E+00  0.74505805969E-08  0.10566000000E+00  0.10566000000E+00 0.  1.
     999900   -1    0    0    0    0 -0.00000000000E+00 -0.00000000000E+00 -0.74505805969E-08  0.93827000000E+00  0.93827000000E+00 0.  1.
     999902    2    1    2    0    0  0.18072677547E-01  0.15752401780E-01 -0.15120971310E-01  0.10155856247E+01  0.10151900106E+01 0.  0.
     999903    2    3    3    0    0  0.87840806863E-01 -0.17089113927E-02  0.88815514873E-01  0.12655509518E+00  0.20225446985E-01 0.  0.
         14    1    1    2    0    0 -0.18072677547E-01 -0.15752401780E-01  0.15120971310E-01  0.28344375261E-01  0.00000000000E+00 0.  1.
     999901    1    3    3    0    0 -0.69768129316E-01  0.17461313173E-01 -0.10393648618E+00  0.88903052956E+00  0.88000000000E+00 0.  1.
        -11    1    4    4    0    0  0.66987594279E-01  0.62460222639E-02  0.72468012113E-01  0.98884905228E-01  0.51100000000E-03 0. -1.
         11    1    4    4    0    0  0.20853212584E-01 -0.79549336566E-02  0.16347502760E-01  0.27670189954E-01  0.51100000000E-03 0.  1.
</event>
<event>
 8    1  0.1088088E+005  0.1043930E+01  0.7957747E-01            NaN
         13   -1    0    0    0    0  0.00000000000E+00  0.00000000000E+00  0.74505805969E-08  0.10566000000E+00  0.10566000000E+00 0.  1.
     999900   -1    0    0    0    0 -0.00000000000E+00 -0.00000000000E+00 -0.74505805969E-08  0.93827000000E+00  0.93827000000E+00 0. -1.
     999902    2    1    2    0    0  0.23834451466E-01  0.43142965502E-02 -0.19317984855E-02  0.10196313153E+01  0.10193417450E+01 0.  0.
     999903    2    3    3    0    0  0.31277084452E-01 -0.26716056013E-01  0.12194729694E+00  0.13038202191E+00  0.20888387824E-01 0.  0.
         14    1    1    2    0    0 -0.23834451466E-01 -0.43142965502E-02  0.19317984855E-02  0.24298684672E-01  0.00000000000E+00 0. -1.
     999901    1    3    3    0    0 -0.74426329858E-02  0.31030352563E-01 -0.12387909542E+00  0.88924929342E+00  0.88000000000E+00 0. -1.
        -11    1    4    4    0    0  0.28667592976E-01 -0.25363261444E-01  0.83927954203E-01  0.92245804976E-01  0.51100000000E-03 0. -1.
         11    1    4    4    0    0  0.26094914764E-02 -0.13527945691E-02  0.38019342734E-01  0.38136216931E-01  0.51100000000E-03 0.  1.
</event>
<event>
 8    1  0.1088088E+005  0.1043930E+01  0.7957747E-01            NaN
         13   -1    0    0    0    0  0.00000000000E+00  0.00000000000E+00  0.74505805969E-08  0.10566000000E+00  0.10566000000E+00 0. -1.
     999900   -1    0    0    0    0 -0.00000000000E+00 -0.00000000000E+00 -0.74505805969E-08  0.93827000000E+00  0.93827000000E+00 0.  1.
     999902    2    1    2    0    0 -0.22430337041E-01 -0.24619233913E-01 -0.75548536870E-02  0.10097788285E+01  0.10092011594E+01 0.  0.
     999903    2    3    3    0    0 -0.37567237443E-01  0.16745138262E-01 -0.11358810613E+00  0.12231999137E+00  0.19189201368E-01 0.  0.
         14    1    1    2    0    0  0.22430337041E-01  0.24619233913E-01  0.75548536870E-02  0.34151171465E-01  0.00000000000E+00 0. -1.
     999901    1    3    3    0    0  0.15136900402E-01 -0.41364372175E-01  0.10603325245E+00  0.88745883717E+00  0.88000000000E+00 0. -1.
        -11    1    4    4    0    0 -0.90896563447E-02 -0.27113318518E-02 -0.39033016465E-01  0.40172262424E-01  0.51100000000E-03 0.  1.
         11    1    4    4    0    0 -0.28477581098E-01  0.19456470114E-01 -0.74555089668E-01  0.82147728945E-01  0.51100000000E-03 0. -1.
</event>
<event>
 8    1  0.1088088E+005  0.1043930E+01  0.7957747E-01            NaN
         13   -1    0    0    0    0  0.00000000000E+00  0.00000000000E+00  0.74505805969E-08  0.10566000000E+00  0.10566000000E+00 0. -1.
     999900   -1    0    0    0    0 -0.00000000000E+00 -0.00000000000E+00 -0.74505805969E-08  0.93827000000E+00  0.93827000000E+00 0.  1.
     999902    2    1    2    0    0 -0.10453689538E-01  0.11842738280E-01 -0.18866132094E-01  0.10193238826E+01  0.10190268478E+01 0.  0.
     999903    2    3    3    0    0 -0.75673137638E-01 -0.10299849462E+00 -0.92123724526E-02  0.12941642656E+00  0.18128154957E-01 0.  0.
         14    1    1    2    0    0  0.10453689538E-01 -0.11842738280E-01  0.18866132094E-01  0.24606117433E-01  0.00000000000E+00 0.  1.
     999901    1    3    3    0    0  0.65219448100E-01  0.11484123290E+00 -0.96537596413E-02  0.88990745601E+00  0.88000000000E+00 0. -1.
        -11    1    4    4    0    0 -0.49565718673E-01 -0.61478029953E-01 -0.13742063888E-01  0.80158680599E-01  0.51100000000E-03 0.  1.
         11    1    4    4    0    0 -0.26107418965E-01 -0.41520464670E-01  0.45296914349E-02  0.49257745959E-01  0.51100000000E-03 0. -1.
</event>
<event>
 7    1  0.1088088E+005  0.1043930E+01  0.7957747E-01            NaN
         13   -1    0    0    0    0  0.00000000000E+00  0.00000000000E+00  0.74505805969E-08  0.10566000000E+00  0.10566000000E+00 0.  1.
     999900   -1    0    0    0    0 -0.00000000000E+00 -0.00000000000E+00 -0.74505805969E-08  0.93827000000E+00  0.93827000000E+00 0. -1.
     999903    2    1    2    0    0  0.98884791563E-02  0.99348663467E-01  0.62413678620E-01  0.11961893564E+00  0.21101742426E-01 0.  0.
         14    1    1    2    0    0  0.80202128648E-02 -0.26573257644E-02 -0.37545798047E-01  0.38484700150E-01  0.00000000000E+00 0. -1.
     999901    1    1    2    0    0 -0.17908692021E-01 -0.96691337702E-01 -0.24867880572E-01  0.88582636421E+00  0.88000000000E+00 0.  1.
        -11    1    3    3    0    0  0.31597696858E-02  0.56331263792E-01  0.23148005219E-01  0.60985954871E-01  0.51100000000E-03 0.  1.
         11    1    3    3    0    0  0.67287094705E-02  0.43017399675E-01  0.39265673400E-01  0.58632980774E-01  0.51100000000E-03 0. -1.
</event>
<event>
 8    1  0.1312472E+005  0.1043930E+01  0.7957747E-01            NaN
         13   -1    0    0    0    0  0.00000000000E+00  0.00000000000E+00  0.74505805969E-08  0.10566000000E+00  0.10566000000E+00 0.  1.
     999900   -1    0    0    0    0 -0.00000000000E+00 -0.00000000000E+00 -0.74505805969E-08  0.93827000000E+00  0.93827000000E+00 0.  1.
     999902    2    1    2    0    0  0.18648280395E-01  0.62818338896E-03  0.13325314509E-01  0.10210014810E+01  0.10207439969E+01 0.  0.
     999903    2    3    3    0    0  0.12684375309E-01  0.22573018153E-01 -0.12560279434E+00  0.12981229607E+00  0.20118045094E-01 0.  0.
         14    1    1    2    0    0 -0.18648280395E-01 -0.62818338896E-03 -0.13325314509E-01  0.22928518984E-01  0.00000000000E+00 0. -1.
     999901    1    3    3    0    0  0.59639050856E-02 -0.21944834764E-01  0.13892810885E+00  0.89118918495E+00  0.88000000000E+00 0. -1.
        -11    1    4    4    0    0  0.10283230096E-01  0.27180613224E-03 -0.43065905354E-01  0.44280379682E-01  0.51100000000E-03 0.  1.
         11    1    4    4    0    0  0.24011452134E-02  0.22301212020E-01 -0.82536888989E-01  0.85531916387E-01  0.51100000000E-03 0. -1.
</event>
<event>
 8    1  0.1088088E+005  0.1043930E+01  0.7957747E-01            NaN
         13   -1    0    0    0    0  0.00000000000E+00  0.00000000000E+00  0.74505805969E-08  0.10566000000E+00  0.10566000000E+00 0.  1.
     999900   -1    0    0    0    0 -0.00000000000E+00 -0.00000000000E+00 -0.74505805969E-08  0.93827000000E+00  0.93827000000E+00 0.  1.
     999902    2    1    2    0    0 -0.20422625852E-01 -0.60505514603E-02 -0.10972037267E-01  0.10199700663E+01  0.10196886082E+01 0.  0.
     999903    2    3    3    0    0  0.79095409875E-01 -0.75810029583E-01 -0.66668197228E-01  0.12987328145E+00  0.20473794560E-01 0.  0.
         14    1    1    2    0    0  0.20422625852E-01  0.60505514603E-02  0.10972037267E-01  0.23959933670E-01  0.00000000000E+00 0.  1.
     999901    1    3    3    0    0 -0.99518035728E-01  0.69759478123E-01  0.55696159960E-01  0.89009678488E+00  0.88000000000E+00 0. -1.
        -11    1    4    4    0    0  0.62156142686E-01 -0.55995701900E-01 -0.60025995881E-01  0.10296740264E+00  0.51100000000E-03 0.  1.
         11    1    4    4    0    0  0.16939267190E-01 -0.19814327683E-01 -0.66422013468E-02  0.26905878803E-01  0.51100000000E-03 0. -1.
</event>
<event>
 8    1  0.1088088E+005  0.1043930E+01  0.7957747E-01            NaN
         13   -1    0    0    0    0  0.00000000000E+00  0.00000000000E+00  0.74505805969E-08  0.10566000000E+00  0.10566000000E+00 0. -1.
     999900   -1    0    0    0    0 -0.00000000000E+00 -0.00000000000E+00 -0.74505805969E-08  0.93827000000E+00  0.93827000000E+00 0. -1.
     999902    2    1    2    0    0 -0.20254208883E-01  0.10754356785E-01 -0.62326811937E-02  0.10201658362E+01  0.10198890125E+01 0.  0.
     999903    2    3    3    0    0  0.56636834977E-01  0.11268122404E+00 -0.28052182957E-01  0.13068429643E+00  0.19663952714E-01 0.  0.
         14    1    1    2    0    0  0.20254208883E-01 -0.10754356785E-01  0.62326811937E-02  0.23764163823E-01  0.00000000000E+00 0. -1.
     999901    1    3    3    0    0 -0.76891043860E-01 -0.10192686726E+00  0.21819501763E-01  0.88948153975E+00  0.88000000000E+00 0.  1.
        -11    1    4    4    0    0 -0.92146200340E-03  0.88863275673E-02 -0.21738927965E-02  0.92088457880E-02  0.51100000000E-03 0.  1.
         11    1    4    4    0    0  0.57558296980E-01  0.10379489648E+00 -0.25878290161E-01  0.12147545064E+00  0.51100000000E-03 0. -1.
</event>
<event>
 8    1  0.1088088E+005  0.1043930E+01  0.7957747E-01            NaN
         13   -1    0    0    0    0  0.00000000000E+00  0.00000000000E+00  0.74505805969E-08  0.10566000000E+00  0.10566000000E+00 0. -1.
     999900   -1    0    0    0    0 -0.00000000000E+00 -0.00000000000E+00 -0.74505805969E-08  0.93827000000E+00  0.93827000000E+00 0.  1.
     999902    2    1    2    0    0 -0.14117955614E-01  0.35554891704E-02 -0.17714883901E-01  0.10210002096E+01  0.10207426967E+01 0.  0.
     999903    2    3    3    0    0  0.20434574737E-01 -0.10425848892E+00 -0.75549076674E-01  0.13186437915E+00  0.19827938482E-01 0.  0.
         14    1    1    2    0    0  0.14117955614E-01 -0.35554891704E-02  0.17714883901E-01  0.22929790352E-01  0.00000000000E+00 0. -1.
     999901    1    3    3    0    0 -0.34552530350E-01  0.10781397809E+00  0.57834192773E-01  0.88913583050E+00  0.88000000000E+00 0.  1.
        -11    1    4    4    0    0  0.13380237343E-01 -0.72449242765E-01 -0.40768357791E-01  0.84203584524E-01  0.51100000000E-03 0. -1.
         11    1    4    4    0    0  0.70543373939E-02 -0.31809246159E-01 -0.34780718882E-01  0.47660794624E-01  0.51100000000E-03 0.  1.
</event>
<event>
 8    1  0.1088088E+005  0.1043930E+01  0.7957747E-01            NaN
         13   -1    0    0    0    0  0.00000000000E+00  0.00000000000E+00  0.74505805969E-08  0.10566000000E+00  0.10566000000E+00 0. -1.
     999900   -1    0    0    0    0 -0.00000000000E+00 -0.00000000000E+00 -0.74505805969E-08  0.93827000000E+00  0.93827000000E+00 0.  1.
     999902    2    1    2    0    0  0.20013497806E-01  0.10180789780E-01 -0.18675466479E-01  0.10147244933E+01  0.10143041140E+01 0.  0.
     999903    2    3    3    0    0  0.76469865555E-01 -0.77453858379E-01  0.58667227799E-01  0.12520268613E+00  0.19675580845E-01 0.  0.
         14    1    1    2    0    0 -0.20013497806E-01 -0.10180789780E-01  0.18675466479E-01  0.29205506727E-01  0.00000000000E+00 0.  1.
     999901    1    3    3    0    0 -0.56456367749E-01  0.87634648159E-01 -0.77342694278E-01  0.88952180714E+00  0.88000000000E+00 0. -1.
        -11    1    4    4    0    0  0.55119766620E-01 -0.59004590971E-01  0.52505305429E-01  0.96316139080E-01  0.51100000000E-03 0. -1.
         11    1    4    4    0    0  0.21350098935E-01 -0.18449267408E-01  0.61619223698E-02  0.28886547054E-01  0.51100000000E-03 0.  1.
</event>
<event>
 8    1  0.1088088E+005  0.1043930E+01  0.7957747E-01            NaN
         13   -1    0    0    0    0  0.00000000000E+00  0.00000000000E+00  0.74505805969E-08  0.10566000000E+00  0.10566000000E+00 0. -1.
     999900   -1    0    0    0    0 -0.00000000000E+00 -0.00000000000E+00 -0.74505805969E-08  0.93827000000E+00  0.93827000000E+00 0.  1.
     999902    2    1    2    0    0  0.12450275987E-01 -0.20381115344E-01  0.82933942562E-02  0.10186479980E+01  0.10183342105E+01 0.  0.
     999903    2    3    3    0    0  0.78232050625E-01  0.30937803107E-01  0.97479640219E-01  0.13021394886E+00  0.19390482605E-01 0.  0.
         14    1    1    2    0    0 -0.12450275987E-01  0.20381115344E-01 -0.82933942562E-02  0.25282001960E-01  0.00000000000E+00 0. -1.
     999901    1    3    3    0    0 -0.65781774638E-01 -0.51318918451E-01 -0.89186245962E-01  0.88843404918E+00  0.88000000000E+00 0.  1.
        -11    1    4    4    0    0  0.18069586897E-01  0.75058001259E-02  0.36429296530E-01  0.41354585874E-01  0.51100000000E-03 0.  1.
         11    1    4    4    0    0  0.60162463728E-01  0.23432002982E-01  0.61050343689E-01  0.88859362991E-01  0.51100000000E-03 0. -1.
</event>
<event>
 8    1  0.1088088E+005  0.1043930E+01  0.7957747E-01            NaN
         13   -1    0    0    0    0  0.00000000000E+00  0.00000000000E+00  0.74505805969E-08  0.10566000000E+00  0.10566000000E+00 0. -1.
     999900   -1    0    0    0    0 -0.00000000000E+00 -0.00000000000E+00 -0.74505805969E-08  0.93827000000E+00  0.93827000000E+00 0. -1.
     999902    2    1    2    0    0 -0.16216089715E-01 -0.12302007591E-01 -0.11702462916E-01  0.10204513162E+01  0.10201811800E+01 0.  0.
     999903    2    3    3    0    0 -0.34655329249E-01 -0.58782336487E-01 -0.11258528236E+00  0.13327728037E+00  0.20761327771E-01 0.  0.
         14    1    1    2    0    0  0.16216089715E-01  0.12302007591E-01  0.11702462916E-01  0.23478683837E-01  0.00000000000E+00 0. -1.
     999901    1    3    3    0    0  0.18439239534E-01  0.46480328896E-01  0.10088281944E+00  0.88717403579E+00  0.88000000000E+00 0.  1.
        -11    1    4    4    0    0 -0.27512589312E-01 -0.27986287728E-01 -0.69787899664E-01  0.80067389941E-01  0.51100000000E-03 0.  1.
         11    1    4    4    0    0 -0.71427399376E-02 -0.30796048758E-01 -0.42797382693E-01  0.53209890427E-01  0.51100000000E-03 0. -1.
</event>
<event>
 8    1  0.1088088E+005  0.1043930E+01  0.7957747E-01            NaN
         13   -1    0    0    0    0  0.00000000000E+00  0.00000000000E+00  0.74505805969E-08  0.10566000000E+00  0.10566000000E+00 0.  1.
     999900   -1    0    0    0    0 -0.00000000000E+00 -0.00000000000E+00 -0.74505805969E-08  0.93827000000E+00  0.93827000000E+00 0. -1.
     999902    2    1    2    0    0  0.15976523189E-01  0.15451514850E-01 -0.47972475629E-02  0.10211920980E+01  0.10209389251E+01 0.  0.
     999903    2    3    3    0    0 -0.12183360662E+00  0.20655737665E-01 -0.34608020651E-01  0.12995284951E+00  0.20492457198E-01 0.  0.
         14    1    1    2    0    0 -0.15976523189E-01 -0.15451514850E-01  0.47972475629E-02  0.22737902026E-01  0.00000000000E+00 0.  1.
     999901    1    3    3    0    0  0.13781012981E+00 -0.52042228152E-02  0.29810773088E-01  0.89123924847E+00  0.88000000000E+00 0.  1.
        -11    1    4    4    0    0 -0.10106517965E+00  0.24599699136E-01 -0.30659334294E-01  0.10844155862E+00  0.51100000000E-03 0.  1.
         11    1    4    4    0    0 -0.20768426971E-01 -0.39439614708E-02 -0.39486863566E-02  0.21511290893E-01  0.51100000000E-03 0. -1.
</event>
<event>
 8    1  0.1088088E+005  0.1043930E+01  0.7957747E-01            NaN
         13   -1    0    0    0    0  0.00000000000E+00  0.00000000000E+00  0.74505805969E-08  0.10566000000E+00  0.10566000000E+00 0. -1.
     999900   -1    0    0    0    0 -0.00000000000E+00 -0.00000000000E+00 -0.74505805969E-08  0.93827000000E+00  0.93827000000E+00 0. -1.
     999902    2    1    2    0    0 -0.14262050614E-02 -0.86654887994E-02 -0.21907037831E-01  0.10203282402E+01  0.10200552312E+01 0.  0.
     999903    2    3    3    0    0  0.96126053016E-01  0.84805723418E-01 -0.51434375463E-02  0.12985963953E+00  0.20120691729E-01 0.  0.
         14    1    1    2    0    0  0.14262050614E-02  0.86654887994E-02  0.21907037831E-01  0.23601759755E-01  0.00000000000E+00 0. -1.
     999901    1    3    3    0    0 -0.97552258077E-01 -0.93471212217E-01 -0.16763600284E-01  0.89046860072E+00  0.88000000000E+00 0. -1.
        -11    1    4    4    0    0  0.31700226907E-01  0.18217555794E-01 -0.67869554374E-02  0.37190154748E-01  0.51100000000E-03 0. -1.
         11    1    4    4    0    0  0.64425826109E-01  0.66588167624E-01  0.16435178911E-02  0.92669484780E-01  0.51100000000E-03 0.  1.
</event>
<event>
 8    1  0.1088088E+005  0.1043930E+01  0.7957747E-01            NaN
         13   -1    0    0    0    0  0.00000000000E+00  0.00000000000E+00  0.74505805969E-08  0.10566000000E+00  0.10566000000E+00 0.  1.
     999900   -1    0    0    0    0 -0.00000000000E+00 -0.00000000000E+00 -0.74505805969E-08  0.93827000000E+00  0.93827000000E+00 0.  1.
     999902    2    1    2    0    0 -0.75198533573E-02 -0.23068252080E-02  0.21565929028E-01  0.10209744139E+01  0.10207163146E+01 0.  0.
     999903    2    3    3    0    0 -0.77459627200E-01  0.21692348108E-01 -0.99564865198E-01  0.12960456836E+00  0.20337894304E-01 0.  0.
         14    1    1    2    0    0  0.75198533573E-02  0.23068252080E-02 -0.21565929028E-01  0.22955586071E-01  0.00000000000E+00 0.  1.
     999901    1    3    3    0    0  0.69939773842E-01 -0.23999173316E-01  0.12113079423E+00  0.89136984557E+00  0.88000000000E+00 0. -1.
        -11    1    4    4    0    0 -0.44854675672E-01  0.14714921607E-01 -0.42556807310E-01  0.63559529710E-01  0.51100000000E-03 0. -1.
         11    1    4    4    0    0 -0.32604951527E-01  0.69774265008E-02 -0.57008057888E-01  0.66045038647E-01  0.51100000000E-03 0.  1.
</event>
<event>
 8    1  0.1088088E+005  0.1043930E+01  0.7957747E-01            NaN
         13   -1    0    0    0    0  0.00000000000E+00  0.00000000000E+00  0.74505805969E-08  0.10566000000E+00  0.10566000000E+00 0.  1.
     999900   -1    0    0    0    0 -0.00000000000E+00 -0.00000000000E+00 -0.74505805969E-08  0.93827000000E+00  0.93827000000E+00 0.  1.
     999902    2    1    2    0    0 -0.22976318662E-01  0.44374398617E-02  0.14765718793E-02  0.10204825618E+01  0.10202131526E+01 0.  0.
     999903    2    3    3    0    0 -0.38885713764E-01 -0.47979156333E-01  0.11449417622E+00  0.13156547499E+00  0.19658576818E-01 0.  0.
         14    1    1    2    0    0  0.22976318662E-01 -0.44374398617E-02 -0.14765718793E-02  0.23447438160E-01  0.00000000000E+00 0.  1.
     999901    1    3    3    0    0  0.15909395102E-01  0.52416596194E-01 -0.11301760434E+00  0.88891708685E+00  0.88000000000E+00 0.  1.
        -11    1    4    4    0    0 -0.37837753854E-01 -0.34864904970E-01  0.86887068366E-01  0.10097960678E+00  0.51100000000E-03 0.  1.
         11    1    4    4    0    0 -0.10479599091E-02 -0.13114251363E-01  0.27607107855E-01  0.30585868206E-01  0.51100000000E-03 0. -1.
</event>
<event>
 8    1  0.1088088E+005  0.1043930E+01  0.7957747E-01            NaN
         13   -1    0    0    0    0  0.00000000000E+00  0.00000000000E+00  0.74505805969E-08  0.10566000000E+00  0.10566000000E+00 0.  1.
     999900   -1    0    0    0    0 -0.00000000000E+00 -0.00000000000E+00 -0.74505805969E-08  0.93827000000E+00  0.93827000000E+00 0. -1.
     999902    2    1    2    0    0 -0.18914430735E-01  0.60005507889E-02 -0.10838247089E-01  0.10213196064E+01  0.10210692966E+01 0.  0.
     999903    2    3    3    0    0  0.22348354573E-01  0.12833053170E+00 -0.35879609576E-02  0.13187044632E+00  0.20217982804E-01 0.  0.
         14    1    1    2    0    0  0.18914430735E-01 -0.60005507889E-02  0.10838247089E-01  0.22610393623E-01  0.00000000000E+00 0.  1.
     999901    1    3    3    0    0 -0.41262785308E-01 -0.12232998091E+00 -0.72502861313E-02  0.88944916006E+00  0.88000000000E+00 0. -1.
        -11    1    4    4    0    0  0.70435538302E-02  0.31570988427E-01 -0.95326951969E-02  0.33726434136E-01  0.51100000000E-03 0.  1.
         11    1    4    4    0    0  0.15304800742E-01  0.96759543277E-01  0.59447342393E-02  0.98144012182E-01  0.51100000000E-03 0. -1.
</event>
<event>
 8    1  0.1088088E+005  0.1043930E+01  0.7957747E-01            NaN
         13   -1    0    0    0    0  0.00000000000E+00  0.00000000000E+00  0.74505805969E-08  0.10566000000E+00  0.10566000000E+00 0. -1.
     999900   -1    0    0    0    0 -0.00000000000E+00 -0.00000000000E+00 -0.74505805969E-08  0.93827000000E+00  0.93827000000E+00 0.  1.
     999902    2    1    2    0    0  0.84129225331E-02  0.20719574831E-01  0.87381088784E-02  0.10199209893E+01  0.10196383633E+01 0.  0.
     999903    2    3    3    0    0  0.11019716936E+00 -0.35561026354E-01 -0.54471129616E-01  0.13002046297E+00  0.23026378379E-01 0.  0.
         14    1    1    2    0    0 -0.84129225331E-02 -0.20719574831E-01 -0.87381088784E-02  0.24009010673E-01  0.00000000000E+00 0.  1.
     999901    1    3    3    0    0 -0.10178424682E+00  0.56280601185E-01  0.63209238494E-01  0.88990052635E+00  0.88000000000E+00 0.  1.
        -11    1    4    4    0    0  0.82233288631E-01 -0.16856254350E-01 -0.44028641075E-01  0.94790450077E-01  0.51100000000E-03 0. -1.
         11    1    4    4    0    0  0.27963880724E-01 -0.18704772004E-01 -0.10442488541E-01  0.35230012898E-01  0.51100000000E-03 0.  1.
</event>
<event>
 8    1  0.1088088E+005  0.1043930E+01  0.7957747E-01            NaN
         13   -1    0    0    0    0  0.00000000000E+00  0.00000000000E+00  0.74505805969E-08  0.10566000000E+00  0.10566000000E+00 0. -1.
     999900   -1    0    0    0    0 -0.00000000000E+00 -0.00000000000E+00 -0.74505805969E-08  0.93827000000E+00  0.93827000000E+00 0.  1.
     999902    2    1    2    0    0 -0.31097427762E-02 -0.14735475306E-01  0.20304207912E-01  0.10186502533E+01  0.10183365225E+01 0.  0.
     999903    2    3    3    0    0  0.46796522981E-01 -0.11919045775E+00 -0.15765912808E-01  0.13033582008E+00  0.18508976388E-01 0.  0.
         14    1    1    2    0    0  0.31097427762E-02  0.14735475306E-01 -0.20304207912E-01  0.25279746667E-01  0.00000000000E+00 0.  1.
     999901    1    3    3    0    0 -0.49906265757E-01  0.10445498244E+00  0.36070120720E-01  0.88831443325E+00  0.88000000000E+00 0. -1.
        -11    1    4    4    0    0  0.48302550605E-01 -0.11373702259E+00 -0.16254118114E-01  0.12463428172E+00  0.51100000000E-03 0.  1.
         11    1    4    4    0    0 -0.15060276247E-02 -0.54534351611E-02  0.48820530559E-03  0.57015383611E-02  0.51100000000E-03 0. -1.
</event>
<event>
 8    1  0.1088088E+005  0.1043930E+01  0.7957747E-01            NaN
         13   -1    0    0    0    0  0.00000000000E+00  0.00000000000E+00  0.74505805969E-08  0.10566000000E+00  0.10566000000E+00 0. -1.
     999900   -1    0    0    0    0 -0.00000000000E+00 -0.00000000000E+00 -0.74505805969E-08  0.93827000000E+00  0.93827000000E+00 0. -1.
     999902    2    1    2    0    0  0.11135071512E-01 -0.53886162767E-02 -0.21159561452E-01  0.10194197156E+01  0.10191250180E+01 0.  0.
     999903    2    3    3    0    0  0.12230621448E-01 -0.42250915961E-02  0.12479646818E+00  0.12739633211E+00  0.22095869875E-01 0.  0.
         14    1    1    2    0    0 -0.11135071512E-01  0.53886162767E-02  0.21159561452E-01  0.24510284450E-01  0.00000000000E+00 0. -1.
     999901    1    3    3    0    0 -0.10955499354E-02 -0.11635246806E-02 -0.14595602963E+00  0.89202338344E+00  0.88000000000E+00 0. -1.
        -11    1    4    4    0    0  0.70201569291E-02  0.17681593165E-02  0.10170023232E-01  0.12493977918E-01  0.51100000000E-03 0. -1.
         11    1    4    4    0    0  0.52104645187E-02 -0.59932509126E-02  0.11462644495E+00  0.11490235419E+00  0.51100000000E-03 0.  1.
</event>
<event>
 8    1  0.1088088E+005  0.1043930E+01  0.7957747E-01            NaN
         13   -1    0    0    0    0  0.00000000000E+00  0.00000000000E+00  0.74505805969E-08  0.10566000000E+00  0.10566000000E+00 0.  1.
     999900   -1    0    0    0    0 -0.00000000000E+00 -0.00000000000E+00 -0.74505805969E-08  0.93827000000E+00  0.93827000000E+00 0. -1.
     999902    2    1    2    0    0  0.41255853965E-02 -0.20473472618E-01 -0.11404722133E-01  0.10201339662E+01  0.10198563908E+01 0.  0.
     999903    2    3    3    0    0 -0.88462252749E-01  0.49728350918E-01 -0.79005576494E-01  0.12992574379E+00  0.18448271899E-01 0.  0.
         14    1    1    2    0    0 -0.41255853965E-02  0.20473472618E-01  0.11404722133E-01  0.23796033763E-01  0.00000000000E+00 0.  1.
     999901    1    3    3    0    0  0.92587838146E-01 -0.70201823536E-01  0.67600854361E-01  0.89020822245E+00  0.88000000000E+00 0.  1.
        -11    1    4    4    0    0 -0.58239247103E-01  0.24866749280E-01 -0.41473941689E-01  0.75700159070E-01  0.51100000000E-03 0. -1.
         11    1    4    4    0    0 -0.30223005646E-01  0.24861601637E-01 -0.37531634805E-01  0.54225584722E-01  0.51100000000E-03 0.  1.
</event>
<event>
 8    1  0.1088088E+005  0.1043930E+01  0.7957747E-01            NaN
         13   -1    0    0    0    0  0.00000000000E+00  0.00000000000E+00  0.74505805969E-08  0.10566000000E+00  0.10566000000E+00 0. -1.
     999900   -1    0    0    0    0 -0.00000000000E+00 -0.00000000000E+00 -0.74505805969E-08  0.93827000000E+00  0.93827000000E+00 0. -1.
     999902    2    1    2    0    0 -0.10271048108E-01 -0.10062948585E-01 -0.18837278397E-01  0.10202318899E+01  0.10199566210E+01 0.  0.
     999903    2    3    3    0    0 -0.10595909940E+00  0.65332196118E-01 -0.37480231067E-01  0.13164413923E+00  0.20731258460E-01 0.  0.
         14    1    1    2    0    0  0.10271048108E-01  0.10062948585E-01  0.18837278397E-01  0.23698110069E-01  0.00000000000E+00 0. -1.
     999901    1    3    3    0    0  0.95688051297E-01 -0.75395144703E-01  0.18642952670E-01  0.88858775070E+00  0.88000000000E+00 0. -1.
        -11    1    4    4    0    0 -0.84300642681E-01  0.42973978118E-01 -0.32880300730E-01  0.10017353168E+00  0.51100000000E-03 0. -1.
         11    1    4    4    0    0 -0.21658456724E-01  0.22358218000E-01 -0.45999303366E-02  0.31470607556E-01  0.51100000000E-03 0.  1.
</event>
<event>
 8    1  0.1088088E+005  0.1043930E+01  0.7957747E-01            NaN
         13   -1    0    0    0    0  0.00000000000E+00  0.00000000000E+00  0.74505805969E-08  0.10566000000E+00  0.10566000000E+00 0. -1.
     999900   -1    0    0    0    0 -0.00000000000E+00 -0.00000000000E+00 -0.74505805969E-08  0.93827000000E+00  0.93827000000E+00 0. -1.
     999902    2    1    2    0    0  0.70781685039E-03 -0.34451662765E-02 -0.33909414052E-01  0.10098386736E+01  0.10092630619E+01 0.  0.
     999903    2    3    3    0    0 -0.65297088648E-01 -0.10018351010E+00  0.42434858330E-02  0.12126082191E+00  0.19640119031E-01 0.  0.
         14    1    1    2    0    0 -0.70781685039E-03  0.34451662765E-02  0.33909414052E-01  0.34091326415E-01  0.00000000000E+00 0. -1.
     999901    1    3    3    0    0  0.66004905499E-01  0.96738343828E-01 -0.38152899885E-01  0.88857785167E+00  0.88000000000E+00 0.  1.
        -11    1    4    4    0    0 -0.21976534884E-01 -0.38858302321E-01 -0.74765203330E-02  0.45266932987E-01  0.51100000000E-03 0. -1.
         11    1    4    4    0    0 -0.43320553764E-01 -0.61325207784E-01  0.11720006166E-01  0.75993888924E-01  0.51100000000E-03 0.  1.
</event>
<event>
 8    1  0.1088088E+005  0.1043930E+01  0.7957747E-01            NaN
         13   -1    0    0    0    0  0.00000000000E+00  0.00000000000E+00  0.74505805969E-08  0.10566000000E+00  0.10566000000E+00 0. -1.
     999900   -1    0    0    0    0 -0.00000000000E+00 -0.00000000000E+00 -0.74505805969E-08  0.93827000000E+00  0.93827000000E+00 0.  1.
     999902    2    1    2    0    0  0.22079623597E-01  0.67049175942E-02 -0.12669172204E-02  0.10208200286E+01  0.10205584060E+01 0.  0.
     999903    2    3    3    0    0  0.91543445729E-01  0.25314930844E-01  0.90851393239E-01  0.13309409214E+00  0.20952649676E-01 0.  0.
         14    1    1    2    0    0 -0.22079623597E-01 -0.67049175942E-02  0.12669172204E-02  0.23109971384E-01  0.00000000000E+00 0.  1.
     999901    1    3    3    0    0 -0.69463822132E-01 -0.18610013250E-01 -0.92118310460E-01  0.88772593648E+00  0.88000000000E+00 0.  1.
        -11    1    4    4    0    0  0.12752310647E-01  0.88788957021E-02  0.23321412630E-01  0.28028657189E-01  0.51100000000E-03 0.  1.
         11    1    4    4    0    0  0.78791135081E-01  0.16436035142E-01  0.67529980609E-01  0.10506543495E+00  0.51100000000E-03 0. -1.
</event>
<event>
 8    1  0.1088088E+005  0.1043930E+01  0.7957747E-01            NaN
         13   -1    0    0    0    0  0.00000000000E+00  0.00000000000E+00  0.74505805969E-08  0.10566000000E+00  0.10566000000E+00 0.  1.
     999900   -1    0    0    0    0 -0.00000000000E+00 -0.00000000000E+00 -0.74505805969E-08  0.93827000000E+00  0.93827000000E+00 0.  1.
     999902    2    1    2    0    0 -0.51495822739E-02 -0.20415799968E-01  0.11785394686E-01  0.10198007933E+01  0.10195152963E+01 0.  0.
     999903    2    3    3    0    0  0.56753314786E-01  0.24580066576E-01 -0.10993091940E+00  0.12813299770E+00  0.22541953040E-01 0.  0.
         14    1    1    2    0    0  0.51495822739E-02  0.20415799968E-01 -0.11785394686E-01  0.24129206656E-01  0.00000000000E+00 0. -1.
     999901    1    3    3    0    0 -0.61902897060E-01 -0.44995866544E-01  0.12171631409E+00  0.89166779564E+00  0.88000000000E+00 0. -1.
        -11    1    4    4    0    0  0.24852209393E-01  0.10228195083E-01 -0.70333450760E-01  0.75294778724E-01  0.51100000000E-03 0. -1.
         11    1    4    4    0    0  0.31901105393E-01  0.14351871493E-01 -0.39597468645E-01  0.52838218977E-01  0.51100000000E-03 0.  1.
</event>
<event>
 8    1  0.1088088E+005  0.1043930E+01  0.7957747E-01            NaN
         13   -1    0    0    0    0  0.00000000000E+00  0.00000000000E+00  0.74505805969E-08  0.10566000000E+00  0.10566000000E+00 0.  1.
     999900   -1    0    0    0    0 -0.00000000000E+00 -0.00000000000E+00 -0.74505805969E-08  0.93827000000E+00  0.93827000000E+00 0.  1.
     999902    2    1    2    0    0 -0.16210079697E-01  0.13921440335E-01 -0.89090362952E-02  0.10207795332E+01  0.10205169824E+01 0.  0.
     999903    2    3    3    0    0 -0.77755483462E-01  0.34500028135E-01  0.98836775547E-01  0.13183607327E+00  0.19387492507E-01 0.  0.
         14    1    1    2    0    0  0.16210079697E-01 -0.13921440335E-01  0.89090362952E-02  0.23150466787E-01  0.00000000000E+00 0.  1.
     999901    1    3    3    0    0  0.61545403765E-01 -0.20578587801E-01 -0.10774581184E+00  0.88894345994E+00  0.88000000000E+00 0.  1.
        -11    1    4    4    0    0 -0.29901859041E-01  0.50981985677E-02  0.43110583330E-01  0.52715238013E-01  0.51100000000E-03 0.  1.
         11    1    4    4    0    0 -0.47853624421E-01  0.29401829568E-01  0.55726192217E-01  0.79120835259E-01  0.51100000000E-03 0. -1.
</event>
<event>
 8    1  0.1088088E+005  0.1043930E+01  0.7957747E-01            NaN
         13   -1    0    0    0    0  0.00000000000E+00  0.00000000000E+00  0.74505805969E-08  0.10566000000E+00  0.10566000000E+00 0.  1.
     999900   -1    0    0    0    0 -0.00000000000E+00 -0.00000000000E+00 -0.74505805969E-08  0.93827000000E+00  0.93827000000E+00 0. -1.
     999902    2    1    2    0    0 -0.87651624803E-02 -0.13245594061E-01  0.18277921253E-01  0.10197152062E+01  0.10194276558E+01 0.  0.
     999903    2    3    3    0    0  0.10428361012E+00 -0.56564640891E-01 -0.46393477101E-01  0.12907557389E+00  0.20821121924E-01 0.  0.
         14    1    1    2    0    0  0.87651624803E-02  0.13245594061E-01 -0.18277921253E-01  0.24214793839E-01  0.00000000000E+00 0. -1.
     999901    1    3    3    0    0 -0.11304877260E+00  0.43319046830E-01  0.64671398354E-01  0.89063963227E+00  0.88000000000E+00 0.  1.
        -11    1    4    4    0    0  0.21073687175E-01 -0.39446993287E-02 -0.13174967338E-01  0.25169462237E-01  0.51100000000E-03 0.  1.
         11    1    4    4    0    0  0.83209922949E-01 -0.52619941562E-01 -0.33218509763E-01  0.10390611165E+00  0.51100000000E-03 0. -1.
</event>
<event>
 8    1  0.1088088E+005  0.1043930E+01  0.7957747E-01            NaN
         13   -1    0    0    0    0  0.00000000000E+00  0.00000000000E+00  0.74505805969E-08  0.10566000000E+00  0.10566000000E+00 0.  1.
     999900   -1    0    0    0    0 -0.00000000000E+00 -0.00000000000E+00 -0.74505805969E-08  0.93827000000E+00  0.93827000000E+00 0.  1.
     999902    2    1    2    0    0 -0.18475694552E-01 -0.15711277436E-01  0.59966296553E-02  0.10189469038E+01  0.10186405832E+01 0.  0.
     999903    2    3    3    0    0  0.21058459055E-01 -0.14543393147E-02  0.12643665274E+00  0.12974950799E+00  0.20078193795E-01 0.  0.
         14    1    1    2    0    0  0.18475694552E-01  0.15711277436E-01 -0.59966296553E-02  0.24983096186E-01  0.00000000000E+00 0.  1.
     999901    1    3    3    0    0 -0.39534153607E-01 -0.14256938121E-01 -0.12044002308E+00  0.88919739583E+00  0.88000000000E+00 0.  1.
        -11    1    4    4    0    0  0.96905889819E-02  0.84484624282E-02  0.40366399824E-01  0.42367338693E-01  0.51100000000E-03 0. -1.
         11    1    4    4    0    0  0.11367870073E-01 -0.99028017429E-02  0.86070252916E-01  0.87382169293E-01  0.51100000000E-03 0.  1.
</event>
<event>
 8    1  0.1088088E+005  0.1043930E+01  0.7957747E-01            NaN
         13   -1    0    0    0    0  0.00000000000E+00  0.00000000000E+00  0.74505805969E-08  0.10566000000E+00  0.10566000000E+00 0.  1.
     999900   -1    0    0    0    0 -0.00000000000E+00 -0.00000000000E+00 -0.74505805969E-08  0.93827000000E+00  0.93827000000E+00 0.  1.
     999902    2    1    2    0    0  0.40035440429E-02 -0.20045803737E-01 -0.11407223598E-01  0.10205208701E+01  0.10202523506E+01 0.  0.
     999903    2    3    3    0    0  0.10956250317E+00  0.46239426669E-01  0.47580640245E-01  0.12978185462E+00  0.20913770191E-01 0.  0.
         14    1    1    2    0    0 -0.40035440429E-02  0.20045803737E-01  0.11407223598E-01  0.23409129898E-01  0.00000000000E+00 0. -1.
     999901    1    3    3    0    0 -0.10555895912E+00 -0.66285230406E-01 -0.58987863843E-01  0.89073901548E+00  0.88000000000E+00 0.  1.
        -11    1    4    4    0    0  0.79962861278E-01  0.29657869210E-01  0.43089987499E-01  0.95554468935E-01  0.51100000000E-03 0.  1.
         11    1    4    4    0    0  0.29599641889E-01  0.16581557460E-01  0.44906527459E-02  0.34227385685E-01  0.51100000000E-03 0. -1.
</event>
<event>
 8    1  0.1088088E+005  0.1043930E+01  0.7957747E-01            NaN
         13   -1    0    0    0    0  0.00000000000E+00  0.00000000000E+00  0.74505805969E-08  0.10566000000E+00  0.10566000000E+00 0. -1.
     999900   -1    0    0    0    0 -0.00000000000E+00 -0.00000000000E+00 -0.74505805969E-08  0.93827000000E+00  0.93827000000E+00 0. -1.
     999902    2    1    2    0    0 -0.18981145311E-01 -0.14814339170E-02 -0.14031584872E-01  0.10202791248E+01  0.10200049650E+01 0.  0.
     999903    2    3    3    0    0 -0.13667160392E-02 -0.92602908141E-02  0.12686875955E+00  0.12886245130E+00  0.20548194750E-01 0.  0.
         14    1    1    2    0    0  0.18981145311E-01  0.14814339170E-02  0.14031584872E-01  0.23650875202E-01  0.00000000000E+00 0.  1.
     999901    1    3    3    0    0 -0.17614429272E-01  0.77788568972E-02 -0.14090034442E+00  0.89141667350E+00  0.88000000000E+00 0. -1.
        -11    1    4    4    0    0 -0.12499839856E-02 -0.15749466164E-01  0.80325883062E-01  0.81866456838E-01  0.51100000000E-03 0. -1.
         11    1    4    4    0    0 -0.11673205357E-03  0.64891753494E-02  0.46542876484E-01  0.46995994463E-01  0.51100000000E-03 0.  1.
</event>
<event>
 8    1  0.1088088E+005  0.1043930E+01  0.7957747E-01            NaN
         13   -1    0    0    0    0  0.00000000000E+00  0.00000000000E+00  0.74505805969E-08  0.10566000000E+00  0.10566000000E+00 0.  1.
     999900   -1    0    0    0    0 -0.00000000000E+00 -0.00000000000E+00 -0.74505805969E-08  0.93827000000E+00  0.93827000000E+00 0. -1.
     999902    2    1    2    0    0 -0.97462921644E-03  0.18862408814E-01  0.14757136270E-01  0.10199609900E+01  0.10196793161E+01 0.  0.
     999903    2    3    3    0    0  0.58058076707E-01 -0.36399248437E-01 -0.10587480797E+00  0.12805809335E+00  0.22220592935E-01 0.  0.
         14    1    1    2    0    0  0.97462921644E-03 -0.18862408814E-01 -0.14757136270E-01  0.23969009977E-01  0.00000000000E+00 0.  1.
     999901    1    3    3    0    0 -0.59032705923E-01  0.55261657251E-01  0.12063194424E+00  0.89190289668E+00  0.88000000000E+00 0.  1.
        -11    1    4    4    0    0  0.34224782637E-01 -0.22505538665E-01 -0.42968449289E-01  0.59366520637E-01  0.51100000000E-03 0. -1.
         11    1    4    4    0    0  0.23833294070E-01 -0.13893709772E-01 -0.62906358683E-01  0.68691572709E-01  0.51100000000E-03 0.  1.
</event>
<event>
 8    1  0.1088088E+005  0.1043930E+01  0.7957747E-01            NaN
         13   -1    0    0    0    0  0.00000000000E+00  0.00000000000E+00  0.74505805969E-08  0.10566000000E+00  0.10566000000E+00 0. -1.
     999900   -1    0    0    0    0 -0.00000000000E+00 -0.00000000000E+00 -0.74505805969E-08  0.93827000000E+00  0.93827000000E+00 0.  1.
     999902    2    1    2    0    0  0.10424091625E-01  0.20545571486E-01  0.40126566903E-02  0.10205444573E+01  0.10202764849E+01 0.  0.
     999903    2    3    3    0    0  0.12549218498E+00 -0.33567541400E-01 -0.57237415589E-02  0.13135173772E+00  0.18586270700E-01 0.  0.
         14    1    1    2    0    0 -0.10424091625E-01 -0.20545571486E-01 -0.40126566903E-02  0.23385542705E-01  0.00000000000E+00 0.  1.
     999901    1    3    3    0    0 -0.11506809335E+00  0.54113112887E-01  0.97363982492E-02  0.88919271957E+00  0.88000000000E+00 0. -1.
        -11    1    4    4    0    0  0.97046745609E-01 -0.31252374949E-01  0.12674859584E-02  0.10196396135E+00  0.51100000000E-03 0. -1.
         11    1    4    4    0    0  0.28445439368E-01 -0.23151664511E-02 -0.69912275173E-02  0.29387776366E-01  0.51100000000E-03 0.  1.
</event>
<event>
 8    1  0.1088088E+005  0.1043930E+01  0.7957747E-01            NaN
         13   -1    0    0    0    0  0.00000000000E+00  0.00000000000E+00  0.74505805969E-08  0.10566000000E+00  0.10566000000E+00 0. -1.
     999900   -1    0    0    0    0 -0.00000000000E+00 -0.00000000000E+00 -0.74505805969E-08  0.93827000000E+00  0.93827000000E+00 0.  1.
     999902    2    1    2    0    0  0.21126925369E-01 -0.89909754717E-02  0.11815065347E-02  0.10209391198E+01  0.10206802172E+01 0.  0.
     999903    2    3    3    0    0  0.11049664156E+00 -0.73091758246E-01 -0.49921083151E-02  0.13407161556E+00  0.19959058943E-01 0.  0.
         14    1    1    2    0    0 -0.21126925369E-01  0.89909754717E-02 -0.11815065347E-02  0.22990880217E-01  0.00000000000E+00 0.  1.
     999901    1    3    3    0    0 -0.89369716192E-01  0.64100782774E-01  0.61736148498E-02  0.88686750422E+00  0.88000000000E+00 0.  1.
        -11    1    4    4    0    0  0.36653076293E-01 -0.13415174734E-01 -0.14775647948E-02  0.39062248189E-01  0.51100000000E-03 0. -1.
         11    1    4    4    0    0  0.73843565269E-01 -0.59676583512E-01 -0.35145435202E-02  0.95009367372E-01  0.51100000000E-03 0.  1.
</event>
<event>
 8    1  0.1088088E+005  0.1043930E+01  0.7957747E-01            NaN
         13   -1    0    0    0    0  0.00000000000E+00  0.00000000000E+00  0.74505805969E-08  0.10566000000E+00  0.10566000000E+00 0.  1.
     999900   -1    0    0    0    0 -0.00000000000E+00 -0.00000000000E+00 -0.74505805969E-08  0.93827000000E+00  0.93827000000E+00 0.  1.
     999902    2    1    2    0    0  0.36600492617E-02  0.19394956867E-01 -0.15233749183E-01  0.10189975427E+01  0.10186924779E+01 0.  0.
     999903    2    3    3    0    0 -0.42273118419E-02 -0.12526370477E+00 -0.91052099363E-02  0.12713101803E+00  0.19249025942E-01 0.  0.
         14    1    1    2    0    0 -0.36600492617E-02 -0.19394956867E-01  0.15233749183E-01  0.24932457293E-01  0.00000000000E+00 0.  1.
     999901    1    3    3    0    0  0.78873611037E-02  0.14465866163E+00 -0.61285392469E-02  0.89186652468E+00  0.88000000000E+00 0.  1.
        -11    1    4    4    0    0 -0.72699093150E-02 -0.11923339370E+00 -0.11352758983E-01  0.11999416658E+00  0.51100000000E-03 0. -1.
         11    1    4    4    0    0  0.30425974731E-02 -0.60303110659E-02  0.22475490464E-02  0.71368514522E-02  0.51100000000E-03 0.  1.
</event>
<event>
 8    1  0.1088088E+005  0.1043930E+01  0.7957747E-01            NaN
         13   -1    0    0    0    0  0.00000000000E+00  0.00000000000E+00  0.74505805969E-08  0.10566000000E+00  0.10566000000E+00 0.  1.
     999900   -1    0    0    0    0 -0.00000000000E+00 -0.00000000000E+00 -0.74505805969E-08  0.93827000000E+00  0.93827000000E+00 0. -1.
     999902    2    1    2    0    0 -0.19382126823E-01 -0.65931565681E-02  0.69048055691E-02  0.10223241468E+01  0.10220958116E+01 0.  0.
     999903    2    3    3    0    0  0.52262443760E-01  0.65696062088E-02  0.11947626512E+00  0.13216767945E+00  0.20474247480E-01 0.  0.
         14    1    1    2    0    0  0.19382126823E-01  0.65931565681E-02 -0.69048055691E-02  0.21605853227E-01  0.00000000000E+00 0. -1.
     999901    1    3    3    0    0 -0.71644570584E-01 -0.13162762777E-01 -0.11257145955E+00  0.89015646733E+00  0.88000000000E+00 0. -1.
        -11    1    4    4    0    0  0.89937945831E-02  0.69499694026E-02  0.13245223695E-01  0.17461027674E-01  0.51100000000E-03 0. -1.
         11    1    4    4    0    0  0.43268649177E-01 -0.38036319388E-03  0.10623104142E+00  0.11470665177E+00  0.51100000000E-03 0.  1.
</event>
<event>
 8    1  0.1088088E+005  0.1043930E+01  0.7957747E-01            NaN
         13   -1    0    0    0    0  0.00000000000E+00  0.00000000000E+00  0.74505805969E-08  0.10566000000E+00  0.10566000000E+00 0.  1.
     999900   -1    0    0    0    0 -0.00000000000E+00 -0.00000000000E+00 -0.74505805969E-08  0.93827000000E+00  0.93827000000E+00 0.  1.
     999902    2    1    2    0    0 -0.20915655002E-01  0.85210204763E-02  0.72006352674E-02  0.10202251152E+01  0.10199496871E+01 0.  0.
     999903    2    3    3    0    0 -0.75628343024E-01  0.98703697051E-01 -0.40919250593E-01  0.13262052037E+00  0.21254441281E-01 0.  0.
         14    1    1    2    0    0  0.20915655002E-01 -0.85210204763E-02 -0.72006352674E-02  0.23704884779E-01  0.00000000000E+00 0. -1.
     999901    1    3    3    0    0  0.54712688022E-01 -0.90182676575E-01  0.48119885861E-01  0.88760459485E+00  0.88000000000E+00 0. -1.
        -11    1    4    4    0    0 -0.44405401019E-01  0.49678634047E-01 -0.31620317367E-01  0.73755758499E-01  0.51100000000E-03 0. -1.
         11    1    4    4    0    0 -0.31222942005E-01  0.49025063004E-01 -0.92989332261E-02  0.58864761871E-01  0.51100000000E-03 0.  1.
</event>
<event>
 8    1  0.1088088E+005  0.1043930E+01  0.7957747E-01            NaN
         13   -1    0    0    0    0  0.00000000000E+00  0.00000000000E+00  0.74505805969E-08  0.10566000000E+00  0.10566000000E+00 0.  1.
     999900   -1    0    0    0    0 -0.00000000000E+00 -0.00000000000E+00 -0.74505805969E-08  0.93827000000E+00  0.93827000000E+00 0.  1.
     999902    2    1    2    0    0 -0.12196900650E-01 -0.88028432309E-02  0.17882213898E-01  0.10205627578E+01  0.10202952095E+01 0.  0.
     999903    2    3    3    0    0  0.79003218167E-01  0.16408009605E-01 -0.97331270890E-01  0.12802301310E+00  0.20144089238E-01 0.  0.
         14    1    1    2    0    0  0.12196900650E-01  0.88028432309E-02 -0.17882213898E-01  0.23367242206E-01  0.00000000000E+00 0. -1.
     999901    1    3    3    0    0 -0.91200118818E-01 -0.25210852836E-01  0.11521348479E+00  0.89253974469E+00  0.88000000000E+00 0. -1.
        -11    1    4    4    0    0  0.43941934399E-01  0.43081071316E-02 -0.39090772172E-01  0.58972900351E-01  0.51100000000E-03 0.  1.
         11    1    4    4    0    0  0.35061283769E-01  0.12099902474E-01 -0.58240498718E-01  0.69050112754E-01  0.51100000000E-03 0. -1.
</event>
<event>
 7    1  0.1415140E+005  0.1043930E+01  0.7957747E-01            NaN
         13   -1    0    0    0    0  0.00000000000E+00  0.00000000000E+00  0.74505805969E-08  0.10566000000E+00  0.10566000000E+00 0. -1.
     999900   -1    0    0    0    0 -0.00000000000E+00 -0.00000000000E+00 -0.74505805969E-08  0.93827000000E+00  0.93827000000E+00 0.  1.
     999903    2    1    2    0    0 -0.48118187866E-01 -0.54084571011E-01  0.36999868463E-01  0.83779281154E-01  0.20235534575E-01 0.  0.
         14    1    1    2    0    0  0.35548592816E-01  0.42027910564E-01 -0.57685991654E-01  0.79735320597E-01  0.00000000000E+00 0.  1.
     999901    1    1    2    0    0  0.12569595050E-01  0.12056660447E-01  0.20686123191E-01  0.88041539825E+00  0.88000000000E+00 0. -1.
        -11    1    3    3    0    0 -0.15314138133E-01 -0.29403248697E-01  0.23199373759E-01  0.40466602581E-01  0.51100000000E-03 0.  1.
         11    1    3    3    0    0 -0.32804049734E-01 -0.24681322314E-01  0.13800494704E-01  0.43312678573E-01  0.51100000000E-03 0. -1.
</event>
<event>
 8    1  0.1088088E+005  0.1043930E+01  0.7957747E-01            NaN
         13   -1    0    0    0    0  0.00000000000E+00  0.00000000000E+00  0.74505805969E-08  0.10566000000E+00  0.10566000000E+00 0.  1.
     999900   -1    0    0    0    0 -0.00000000000E+00 -0.00000000000E+00 -0.74505805969E-08  0.93827000000E+00  0.93827000000E+00 0. -1.
     999902    2    1    2    0    0 -0.24013822805E-01 -0.23766320208E-02 -0.39544329489E-02  0.10194769919E+01  0.10191836868E+01 0.  0.
     999903    2    3    3    0    0  0.77121266582E-01 -0.96561210767E-01 -0.28379775909E-01  0.12835655191E+00  0.19955840090E-01 0.  0.
         14    1    1    2    0    0  0.24013822805E-01  0.23766320208E-02  0.39544329489E-02  0.24453008106E-01  0.00000000000E+00 0.  1.
     999901    1    3    3    0    0 -0.10113508939E+00  0.94184578746E-01  0.24425342960E-01  0.89112043998E+00  0.88000000000E+00 0.  1.
        -11    1    4    4    0    0  0.38020428081E-01 -0.38991181238E-01 -0.39761820033E-02  0.54607108604E-01  0.51100000000E-03 0.  1.
         11    1    4    4    0    0  0.39100838501E-01 -0.57570029529E-01 -0.24403593905E-01  0.73749443306E-01  0.51100000000E-03 0. -1.
</event>
<event>
 8    1  0.1503037E+005  0.1043930E+01  0.7957747E-01            NaN
         13   -1    0    0    0    0  0.00000000000E+00  0.00000000000E+00  0.74505805969E-08  0.10566000000E+00  0.10566000000E+00 0.  1.
     999900   -1    0    0    0    0 -0.00000000000E+00 -0.00000000000E+00 -0.74505805969E-08  0.93827000000E+00  0.93827000000E+00 0.  1.
     999902    2    1    2    0    0 -0.18063257560E-01 -0.21975448815E-02  0.14045952550E-01  0.10209430633E+01  0.10206842505E+01 0.  0.
     999903    2    3    3    0    0 -0.41687438461E-01  0.11407432635E+00  0.48911206306E-01  0.13229643165E+00  0.18953766591E-01 0.  0.
         14    1    1    2    0    0  0.18063257560E-01  0.21975448815E-02 -0.14045952550E-01  0.22986936730E-01  0.00000000000E+00 0. -1.
     999901    1    3    3    0    0  0.23624180901E-01 -0.11627187123E+00 -0.34865253756E-01  0.88864663162E+00  0.88000000000E+00 0.  1.
        -11    1    4    4    0    0 -0.31818307892E-01  0.75202049515E-01  0.41162639698E-01  0.91446033246E-01  0.51100000000E-03 0. -1.
         11    1    4    4    0    0 -0.98691305687E-02  0.38872276837E-01  0.77485666074E-02  0.40850398408E-01  0.51100000000E-03 0.  1.
</event>
<event>
 8    1  0.1088088E+005  0.1043930E+01  0.7957747E-01            NaN
         13   -1    0    0    0    0  0.00000000000E+00  0.00000000000E+00  0.74505805969E-08  0.10566000000E+00  0.10566000000E+00 0.  1.
     999900   -1    0    0    0    0 -0.00000000000E+00 -0.00000000000E+00 -0.74505805969E-08  0.93827000000E+00  0.93827000000E+00 0. -1.
     999902    2    1    2    0    0  0.13648743027E-01  0.15985435340E-01  0.10364943199E-01  0.10204938233E+01  0.10202246758E+01 0.  0.
     999903    2    3    3    0    0  0.59714110204E-01 -0.10267467163E+00 -0.47429123586E-01  0.12945937215E+00  0.20058517463E-01 0.  0.
         14    1    1    2    0    0 -0.13648743027E-01 -0.15985435340E-01 -0.10364943199E-01  0.23436176666E-01  0.00000000000E+00 0. -1.
     999901    1    3    3    0    0 -0.46065367178E-01  0.11866010697E+00  0.57794066784E-01  0.89103445118E+00  0.88000000000E+00 0.  1.
        -11    1    4    4    0    0  0.29587821668E-01 -0.69420258682E-01 -0.32519542842E-01  0.82172947459E-01  0.51100000000E-03 0.  1.
         11    1    4    4    0    0  0.30126288536E-01 -0.33254412944E-01 -0.14909580743E-01  0.47286424692E-01  0.51100000000E-03 0. -1.
</event>
<event>
 8    1  0.1088088E+005  0.1043930E+01  0.7957747E-01            NaN
         13   -1    0    0    0    0  0.00000000000E+00  0.00000000000E+00  0.74505805969E-08  0.10566000000E+00  0.10566000000E+00 0.  1.
     999900   -1    0    0    0    0 -0.00000000000E+00 -0.00000000000E+00 -0.74505805969E-08  0.93827000000E+00  0.93827000000E+00 0.  1.
     999902    2    1    2    0    0  0.15171436345E-01  0.72017863572E-02 -0.18513318805E-01  0.10189343768E+01  0.10186277450E+01 0.  0.
     999903    2    3    3    0    0  0.10079733847E+00 -0.71820679060E-01 -0.38169455779E-01  0.13103646097E+00  0.19882991911E-01 0.  0.
         14    1    1    2    0    0 -0.15171436345E-01 -0.72017863572E-02  0.18513318805E-01  0.24995623231E-01  0.00000000000E+00 0.  1.
     999901    1    3    3    0    0 -0.85625902121E-01  0.79022465417E-01  0.19656136974E-01  0.88789791580E+00  0.88000000000E+00 0. -1.
        -11    1    4    4    0    0  0.55786109915E-01 -0.30209190543E-01 -0.25868306763E-01  0.68513616665E-01  0.51100000000E-03 0.  1.
         11    1    4    4    0    0  0.45011228551E-01 -0.41611488516E-01 -0.12301149016E-01  0.62522844308E-01  0.51100000000E-03 0. -1.
</event>
<event>
 8    1  0.1088088E+005  0.1043930E+01  0.7957747E-01            NaN
         13   -1    0    0    0    0  0.00000000000E+00  0.00000000000E+00  0.74505805969E-08  0.10566000000E+00  0.10566000000E+00 0. -1.
     999900   -1    0    0    0    0 -0.00000000000E+00 -0.00000000000E+00 -0.74505805969E-08  0.93827000000E+00  0.93827000000E+00 0.  1.
     999902    2    1    2    0    0 -0.16826732412E-01  0.16764707061E-01 -0.79898562061E-02  0.10188694308E+01  0.10185611837E+01 0.  0.
     999903    2    3    3    0    0  0.60951502213E-01  0.10218243374E+00  0.46667063772E-01  0.12963772831E+00  0.21720736027E-01 0.  0.
         14    1    1    2    0    0  0.16826732412E-01 -0.16764707061E-01  0.79898562061E-02  0.25060569202E-01  0.00000000000E+00 0. -1.
     999901    1    3    3    0    0 -0.77778234625E-01 -0.85417726675E-01 -0.54656919978E-01  0.88923170249E+00  0.88000000000E+00 0.  1.
        -11    1    4    4    0    0  0.50841280000E-01  0.83880744669E-01  0.46896916582E-01  0.10872164910E+00  0.51100000000E-03 0. -1.
         11    1    4    4    0    0  0.10110222213E-01  0.18301689068E-01 -0.22985281008E-03  0.20916079203E-01  0.51100000000E-03 0.  1.
</event>
<event>
 8    1  0.1088088E+005  0.1043930E+01  0.7957747E-01            NaN
         13   -1    0    0    0    0  0.00000000000E+00  0.00000000000E+00  0.74505805969E-08  0.10566000000E+00  0.10566000000E+00 0. -1.
     999900   -1    0    0    0    0 -0.00000000000E+00 -0.00000000000E+00 -0.74505805969E-08  0.93827000000E+00  0.93827000000E+00 0.  1.
     999902    2    1    2    0    0 -0.22355412103E-01  0.80321286291E-03 -0.77081729580E-02  0.10202693675E+01  0.10199949787E+01 0.  0.
     999903    2    3    3    0    0  0.11919962277E+00  0.19418455804E-01  0.36387794208E-01  0.12767270073E+00  0.19764120262E-01 0.  0.
         14    1    1    2    0    0  0.22355412103E-01 -0.80321286291E-03  0.77081729580E-02  0.23660632526E-01  0.00000000000E+00 0.  1.
     999901    1    3    3    0    0 -0.14155503487E+00 -0.18615242941E-01 -0.44095967166E-01  0.89259666675E+00  0.88000000000E+00 0. -1.
        -11    1    4    4    0    0  0.43546181331E-01  0.16771394168E-01  0.13125716984E-01  0.48477779839E-01  0.51100000000E-03 0.  1.
         11    1    4    4    0    0  0.75653441437E-01  0.26470616364E-02  0.23262077224E-01  0.79194920888E-01  0.51100000000E-03 0. -1.
</event>
<event>
 8    1  0.1088088E+005  0.1043930E+01  0.7957747E-01            NaN
         13   -1    0    0    0    0  0.00000000000E+00  0.00000000000E+00  0.74505805969E-08  0.10566000000E+00  0.10566000000E+00 0. -1.
     999900   -1    0    0    0    0 -0.00000000000E+00 -0.00000000000E+00 -0.74505805969E-08  0.93827000000E+00  0.93827000000E+00 0. -1.
     999902    2    1    2    0    0  0.23265858122E-01 -0.24823451129E-02 -0.13522349943E-02  0.10204930477E+01  0.10202238822E+01 0.  0.
     999903    2    3    3    0    0 -0.47526240593E-01 -0.11226440073E+00  0.40387952720E-01  0.12987199239E+00  0.19326367094E-01 0.  0.
         14    1    1    2    0    0 -0.23265858122E-01  0.24823451129E-02  0.13522349943E-02  0.23436952252E-01  0.00000000000E+00 0. -1.
     999901    1    3    3    0    0  0.70792098715E-01  0.10978205562E+00 -0.41740187714E-01  0.89062105536E+00  0.88000000000E+00 0. -1.
        -11    1    4    4    0    0 -0.36347061458E-01 -0.61785895778E-01  0.25140667480E-01  0.75966572096E-01  0.51100000000E-03 0.  1.
         11    1    4    4    0    0 -0.11179179136E-01 -0.50478504957E-01  0.15247285240E-01  0.53905420294E-01  0.51100000000E-03 0. -1.
</event>
<event>
 8    1  0.1088088E+005  0.1043930E+01  0.7957747E-01            NaN
         13   -1    0    0    0    0  0.00000000000E+00  0.00000000000E+00  0.74505805969E-08  0.10566000000E+00  0.10566000000E+00 0.  1.
     999900   -1    0    0    0    0 -0.00000000000E+00 -0.00000000000E+00 -0.74505805969E-08  0.93827000000E+00  0.93827000000E+00 0.  1.
     999902    2    1    2    0    0  0.20219871942E-01  0.16454501929E-02  0.85635735070E-02  0.10219098838E+01  0.10216726115E+01 0.  0.
     999903    2    3    3    0    0  0.11918167550E+00 -0.57050839914E-01  0.13523831747E-01  0.13440591352E+00  0.20566610193E-01 0.  0.
         14    1    1    2    0    0 -0.20219871942E-01 -0.16454501929E-02 -0.85635735070E-02  0.22020116232E-01  0.00000000000E+00 0.  1.
     999901    1    3    3    0    0 -0.98961803560E-01  0.58696290107E-01 -0.49602582400E-02  0.88750397024E+00  0.88000000000E+00 0. -1.
        -11    1    4    4    0    0  0.76772944513E-01 -0.30865497133E-01 -0.49437346503E-04  0.82746767233E-01  0.51100000000E-03 0. -1.
         11    1    4    4    0    0  0.42408730989E-01 -0.26185342781E-01  0.13573269094E-01  0.51659146292E-01  0.51100000000E-03 0.  1.
</event>
<event>
 8    1  0.1088088E+005  0.1043930E+01  0.7957747E-01            NaN
         13   -1    0    0    0    0  0.00000000000E+00  0.00000000000E+00  0.74505805969E-08  0.10566000000E+00  0.10566000000E+00 0. -1.
     999900   -1    0    0    0    0 -0.00000000000E+00 -0.00000000000E+00 -0.74505805969E-08  0.93827000000E+00  0.93827000000E+00 0. -1.
     999902    2    1    2    0    0 -0.11700177214E-01 -0.20345753420E-01 -0.73830826964E-02  0.10193260625E+01  0.10190290810E+01 0.  0.
     999903    2    3    3    0    0 -0.68876142304E-01 -0.12742122829E-01  0.10763031473E+00  0.12996956046E+00  0.20037897216E-01 0.  0.
         14    1    1    2    0    0  0.11700177214E-01  0.20345753420E-01  0.73830826964E-02  0.24603937473E-01  0.00000000000E+00 0. -1.
     999901    1    3    3    0    0  0.57175965090E-01 -0.76036305910E-02 -0.11501339742E+00  0.88935650207E+00  0.88000000000E+00 0. -1.
        -11    1    4    4    0    0 -0.60972013290E-01 -0.16423667819E-01  0.86432731409E-01  0.10704298879E+00  0.51100000000E-03 0.  1.
         11    1    4    4    0    0 -0.79041290137E-02  0.36815449893E-02  0.21197583319E-01  0.22926571670E-01  0.51100000000E-03 0. -1.
</event>
<event>
 8    1  0.1088088E+005  0.1043930E+01  0.7957747E-01            NaN
         13   -1    0    0    0    0  0.00000000000E+00  0.00000000000E+00  0.74505805969E-08  0.10566000000E+00  0.10566000000E+00 0.  1.
     999900   -1    0    0    0    0 -0.00000000000E+00 -0.00000000000E+00 -0.74505805969E-08  0.93827000000E+00  0.93827000000E+00 0. -1.
     999902    2    1    2    0    0 -0.58656313723E-02 -0.15022028525E-01  0.18642630692E-01  0.10192801592E+01  0.10189820549E+01 0.  0.
     999903    2    3    3    0    0  0.10667690338E+00  0.53266501655E-01  0.45369311682E-01  0.12908722452E+00  0.19694039147E-01 0.  0.
         14    1    1    2    0    0  0.58656313723E-02  0.15022028525E-01 -0.18642630692E-01  0.24649840802E-01  0.00000000000E+00 0. -1.
     999901    1    3    3    0    0 -0.11254253475E+00 -0.68288530181E-01 -0.26726680990E-01  0.89019293468E+00  0.88000000000E+00 0. -1.
        -11    1    4    4    0    0  0.24254600105E-01  0.88310971346E-02  0.18196679426E-01  0.31585663931E-01  0.51100000000E-03 0. -1.
         11    1    4    4    0    0  0.82422303273E-01  0.44435404521E-01  0.27172632256E-01  0.97501560584E-01  0.51100000000E-03 0.  1.
</event>
<event>
 8    1  0.1088088E+005  0.1043930E+01  0.7957747E-01            NaN
         13   -1    0    0    0    0  0.00000000000E+00  0.00000000000E+00  0.74505805969E-08  0.10566000000E+00  0.10566000000E+00 0.  1.
     999900   -1    0    0    0    0 -0.00000000000E+00 -0.00000000000E+00 -0.74505805969E-08  0.93827000000E+00  0.93827000000E+00 0.  1.
     999902    2    1    2    0    0 -0.28303038155E-02  0.21220692048E-01 -0.10565757793E-01  0.10200560890E+01  0.10197766721E+01 0.  0.
     999903    2    3    3    0    0  0.46354703809E-02 -0.11041897163E+00  0.59920140843E-01  0.12744587126E+00  0.20932986873E-01 0.  0.
         14    1    1    2    0    0  0.28303038155E-02 -0.21220692048E-01  0.10565757793E-01  0.23873911042E-01  0.00000000000E+00 0.  1.
     999901    1    3    3    0    0 -0.74657741964E-02  0.13163966368E+00 -0.70485898637E-01  0.89261021770E+00  0.88000000000E+00 0. -1.
        -11    1    4    4    0    0  0.88504038175E-04 -0.28535501807E-01  0.56218249260E-02  0.29088635802E-01  0.51100000000E-03 0.  1.
         11    1    4    4    0    0  0.45469663427E-02 -0.81883469826E-01  0.54298315917E-01  0.98357235454E-01  0.51100000000E-03 0. -1.
</event>
<event>
 8    1  0.1088088E+005  0.1043930E+01  0.7957747E-01            NaN
         13   -1    0    0    0    0  0.00000000000E+00  0.00000000000E+00  0.74505805969E-08  0.10566000000E+00  0.10566000000E+00 0. -1.
     999900   -1    0    0    0    0 -0.00000000000E+00 -0.00000000000E+00 -0.74505805969E-08  0.93827000000E+00  0.93827000000E+00 0. -1.
     999902    2    1    2    0    0  0.16871105038E-01  0.12383283503E-01 -0.12478606891E-01  0.10195641320E+01  0.10192729387E+01 0.  0.
     999903    2    3    3    0    0 -0.35342563513E-01  0.12437695339E+00 -0.31801015892E-02  0.13088234893E+00  0.20033793627E-01 0.  0.
         14    1    1    2    0    0 -0.16871105038E-01 -0.12383283503E-01  0.12478606891E-01  0.24365868042E-01  0.00000000000E+00 0. -1.
     999901    1    3    3    0    0  0.52213668551E-01 -0.11199366988E+00 -0.92985053018E-02  0.88868178302E+00  0.88000000000E+00 0.  1.
        -11    1    4    4    0    0 -0.13545209659E-01  0.78832639007E-01 -0.66734733634E-02  0.80267390920E-01  0.51100000000E-03 0. -1.
         11    1    4    4    0    0 -0.21797353855E-01  0.45544314379E-01  0.34933717743E-02  0.50614958014E-01  0.51100000000E-03 0.  1.
</event>
<event>
 8    1  0.1088088E+005  0.1043930E+01  0.7957747E-01            NaN
         13   -1    0    0    0    0  0.00000000000E+00  0.00000000000E+00  0.74505805969E-08  0.10566000000E+00  0.10566000000E+00 0.  1.
     999900   -1    0    0    0    0 -0.00000000000E+00 -0.00000000000E+00 -0.74505805969E-08  0.93827000000E+00  0.93827000000E+00 0.  1.
     999902    2    1    2    0    0 -0.13712895513E-01 -0.19387935433E-01  0.15599292827E-02  0.10201314933E+01  0.10198538594E+01 0.  0.
     999903    2    3    3    0    0  0.70299729279E-01  0.89004850164E-02 -0.10586333594E+00  0.12917800751E+00  0.21415909015E-01 0.  0.
         14    1    1    2    0    0  0.13712895513E-01  0.19387935433E-01 -0.15599292827E-02  0.23798506740E-01  0.00000000000E+00 0.  1.
     999901    1    3    3    0    0 -0.84012624791E-01 -0.28288420449E-01  0.10742326522E+00  0.89095348575E+00  0.88000000000E+00 0. -1.
        -11    1    4    4    0    0  0.30399147791E-01  0.11394606402E-01 -0.34484976046E-01  0.47364754146E-01  0.51100000000E-03 0.  1.
         11    1    4    4    0    0  0.39900581488E-01 -0.24941213855E-02 -0.71378359891E-01  0.81813253366E-01  0.51100000000E-03 0. -1.
</event>
<event>
 8    1  0.1088088E+005  0.1043930E+01  0.7957747E-01            NaN
         13   -1    0    0    0    0  0.00000000000E+00  0.00000000000E+00  0.74505805969E-08  0.10566000000E+00  0.10566000000E+00 0.  1.
     999900   -1    0    0    0    0 -0.00000000000E+00 -0.00000000000E+00 -0.74505805969E-08  0.93827000000E+00  0.93827000000E+00 0.  1.
     999902    2    1    2    0    0  0.15717255917E-01  0.16560867154E-01 -0.15723562260E-02  0.10210440489E+01  0.10207875308E+01 0.  0.
     999903    2    3    3    0    0  0.11329917070E+00 -0.36981043168E-01  0.53941358598E-01  0.13229732524E+00  0.19713256016E-01 0.  0.
         14    1    1    2    0    0 -0.15717255917E-01 -0.16560867154E-01  0.15723562260E-02  0.22885951117E-01  0.00000000000E+00 0.  1.
     999901    1    3    3    0    0 -0.97581914783E-01  0.53541910322E-01 -0.55513714824E-01  0.88874672364E+00  0.88000000000E+00 0.  1.
        -11    1    4    4    0    0  0.75493048941E-01 -0.33697901984E-01  0.40248971080E-01  0.91951018649E-01  0.51100000000E-03 0.  1.
         11    1    4    4    0    0  0.37806121760E-01 -0.32831411842E-02  0.13692387518E-01  0.40346306590E-01  0.51100000000E-03 0. -1.
</event>
<event>
 8    1  0.1088088E+005  0.1043930E+01  0.7957747E-01            NaN
         13   -1    0    0    0    0  0.00000000000E+00  0.00000000000E+00  0.74505805969E-08  0.10566000000E+00  0.10566000000E+00 0.  1.
     999900   -1    0    0    0    0 -0.00000000000E+00 -0.00000000000E+00 -0.74505805969E-08  0.93827000000E+00  0.93827000000E+00 0. -1.
     999902    2    1    2    0    0 -0.25423051705E-02  0.12062526534E-01 -0.20182965228E-01  0.10202800540E+01  0.10200059160E+01 0.  0.
     999903    2    3    3    0    0  0.72623342448E-01 -0.10463703678E+00  0.42111719281E-02  0.12906530062E+00  0.20422010704E-01 0.  0.
         14    1    1    2    0    0  0.25423051705E-02 -0.12062526534E-01  0.20182965228E-01  0.23649946033E-01  0.00000000000E+00 0.  1.
     999901    1    3    3    0    0 -0.75165647618E-01  0.11669956331E+00 -0.24394137156E-01  0.89121475335E+00  0.88000000000E+00 0. -1.
        -11    1    4    4    0    0  0.26723190648E-01 -0.45433655176E-01 -0.74930147301E-02  0.53242392243E-01  0.51100000000E-03 0. -1.
         11    1    4    4    0    0  0.45900151800E-01 -0.59203381600E-01  0.11704186658E-01  0.75822908375E-01  0.51100000000E-03 0.  1.
</event>
<event>
 8    1  0.1088088E+005  0.1043930E+01  0.7957747E-01            NaN
         13   -1    0    0    0    0  0.00000000000E+00  0.00000000000E+00  0.74505805969E-08  0.10566000000E+00  0.10566000000E+00 0. -1.
     999900   -1    0    0    0    0 -0.00000000000E+00 -0.00000000000E+00 -0.74505805969E-08  0.93827000000E+00  0.93827000000E+00 0. -1.
     999902    2    1    2    0    0  0.22938884572E-01 -0.18256133817E-01  0.46068699363E-02  0.10142533746E+01  0.10138191188E+01 0.  0.
     999903    2    3    3    0    0  0.95093462788E-01 -0.52048865704E-01  0.66365208480E-01  0.12849814636E+00  0.18856872375E-01 0.  0.
         14    1    1    2    0    0 -0.22938884572E-01  0.18256133817E-01 -0.46068699363E-02  0.29676625448E-01  0.00000000000E+00 0.  1.
     999901    1    3    3    0    0 -0.72154578216E-01  0.33792731887E-01 -0.61758338544E-01  0.88575522819E+00  0.88000000000E+00 0.  1.
        -11    1    4    4    0    0  0.81407326848E-01 -0.37221239950E-01  0.57913579095E-01  0.10661527720E+00  0.51100000000E-03 0.  1.
         11    1    4    4    0    0  0.13686135941E-01 -0.14827625754E-01  0.84516293847E-02  0.21882869162E-01  0.51100000000E-03 0. -1.
</event>
<event>
 8    1  0.1088088E+005  0.1043930E+01  0.7957747E-01            NaN
         13   -1    0    0    0    0  0.00000000000E+00  0.00000000000E+00  0.74505805969E-08  0.10566000000E+00  0.10566000000E+00 0. -1.
     999900   -1    0    0    0    0 -0.00000000000E+00 -0.00000000000E+00 -0.74505805969E-08  0.93827000000E+00  0.93827000000E+00 0. -1.
     999902    2    1    2    0    0 -0.18672700579E-02  0.23515915264E-01 -0.19803369464E-01  0.10131297011E+01  0.10126614108E+01 0.  0.
     999903    2    3    3    0    0 -0.21258923424E-01  0.42462178784E-02  0.11872199292E+00  0.12187405123E+00  0.16982360502E-01 0.  0.
         14    1    1    2    0    0  0.18672700579E-02 -0.23515915264E-01  0.19803369464E-01  0.30800298867E-01  0.00000000000E+00 0.  1.
     999901    1    3    3    0    0  0.19391653366E-01  0.19269697385E-01 -0.13852536239E+00  0.89125564990E+00  0.88000000000E+00 0. -1.
        -11    1    4    4    0    0 -0.18126178219E-01  0.91339685515E-02  0.10532688500E+00  0.10726603164E+00  0.51100000000E-03 0. -1.
         11    1    4    4    0    0 -0.31327452042E-02 -0.48877506731E-02  0.13395107919E-01  0.14608019589E-01  0.51100000000E-03 0.  1.
</event>
<event>
 8    1  0.1088088E+005  0.1043930E+01  0.7957747E-01            NaN
         13   -1    0    0    0    0  0.00000000000E+00  0.00000000000E+00  0.74505805969E-08  0.10566000000E+00  0.10566000000E+00 0.  1.
     999900   -1    0    0    0    0 -0.00000000000E+00 -0.00000000000E+00 -0.74505805969E-08  0.93827000000E+00  0.93827000000E+00 0.  1.
     999902    2    1    2    0    0 -0.19319829037E-01 -0.15579989626E-01  0.34588796435E-02  0.10188709553E+01  0.10185627462E+01 0.  0.
     999903    2    3    3    0    0 -0.66652162533E-01 -0.28989883434E-02  0.11106194360E+00  0.13096354071E+00  0.19125343764E-01 0.  0.
         14    1    1    2    0    0  0.19319829037E-01  0.15579989626E-01 -0.34588796435E-02  0.25059044658E-01  0.00000000000E+00 0. -1.
     999901    1    3    3    0    0  0.47332333496E-01 -0.12681001282E-01 -0.10760306396E+00  0.88790741463E+00  0.88000000000E+00 0.  1.
        -11    1    4    4    0    0 -0.19675096701E-01 -0.89673591308E-02  0.41605436071E-01  0.46891325334E-01  0.51100000000E-03 0. -1.
         11    1    4    4    0    0 -0.46977065832E-01  0.60683707875E-02  0.69456507533E-01  0.84072215375E-01  0.51100000000E-03 0.  1.
</event>
<event>
 8    1  0.1088088E+005  0.1043930E+01  0.7957747E-01            NaN
         13   -1    0    0    0    0  0.00000000000E+00  0.00000000000E+00  0.74505805969E-08  0.10566000000E+00  0.10566000000E+00 0. -1.
     999900   -1    0    0    0    0 -0.00000000000E+00 -0.00000000000E+00 -0.74505805969E-08  0.93827000000E+00  0.93827000000E+00 0. -1.
     999902    2    1    2    0    0  0.24467415745E-01  0.95346044501E-03  0.15334649951E-02  0.10193960432E+01  0.10191007693E+01 0.  0.
     999903    2    3    3    0    0 -0.99440468023E-01 -0.76760947367E-01 -0.39730646809E-02  0.12730691387E+00  0.20263646159E-01 0.  0.
         14    1    1    2    0    0 -0.24467415745E-01 -0.95346044501E-03 -0.15334649951E-02  0.24533956773E-01  0.00000000000E+00 0.  1.
     999901    1    3    3    0    0  0.12390788377E+00  0.77714407812E-01  0.55065296760E-02  0.89208912935E+00  0.88000000000E+00 0. -1.
        -11    1    4    4    0    0 -0.40363931717E-01 -0.43723896173E-01 -0.12158874055E-03  0.59508839553E-01  0.51100000000E-03 0.  1.
         11    1    4    4    0    0 -0.59076536307E-01 -0.33037051194E-01 -0.38514759403E-02  0.67798074320E-01  0.51100000000E-03 0. -1.
</event>
<event>
 8    1  0.1088088E+005  0.1043930E+01  0.7957747E-01            NaN
         13   -1    0    0    0    0  0.00000000000E+00  0.00000000000E+00  0.74505805969E-08  0.10566000000E+00  0.10566000000E+00 0.  1.
     999900   -1    0    0    0    0 -0.00000000000E+00 -0.00000000000E+00 -0.74505805969E-08  0.93827000000E+00  0.93827000000E+00 0.  1.
     999902    2    1    2    0    0 -0.14839000903E-01  0.11370316463E-01 -0.14733475914E-01  0.10201275767E+01  0.10198498504E+01 0.  0.
     999903    2    3    3    0    0 -0.78440803065E-01  0.94402667163E-01 -0.48407016597E-01  0.13329418315E+00  0.18954599799E-01 0.  0.
         14    1    1    2    0    0  0.14839000903E-01 -0.11370316463E-01  0.14733475914E-01  0.23802423338E-01  0.00000000000E+00 0.  1.
     999901    1    3    3    0    0  0.63601802162E-01 -0.83032350700E-01  0.33673540684E-01  0.88683339351E+00  0.88000000000E+00 0.  1.
        -11    1    4    4    0    0 -0.47227201818E-01  0.49491006483E-01 -0.18106406925E-01  0.70766315482E-01  0.51100000000E-03 0.  1.
         11    1    4    4    0    0 -0.31213601247E-01  0.44911660681E-01 -0.30300609673E-01  0.62527867671E-01  0.51100000000E-03 0. -1.
</event>
<event>
 8    1  0.1088088E+005  0.1043930E+01  0.7957747E-01            NaN
         13   -1    0    0    0    0  0.00000000000E+00  0.00000000000E+00  0.74505805969E-08  0.10566000000E+00  0.10566000000E+00 0.  1.
     999900   -1    0    0    0    0 -0.00000000000E+00 -0.00000000000E+00 -0.74505805969E-08  0.93827000000E+00  0.93827000000E+00 0. -1.
     999902    2    1    2    0    0  0.36721735102E-02 -0.18942441997E-01  0.13559100104E-01  0.10203471638E+01  0.10200745975E+01 0.  0.
     999903    2    3    3    0    0  0.24597877185E-01 -0.69474872711E-01 -0.10574994660E+00  0.13061346193E+00  0.21095301176E-01 0.  0.
         14    1    1    2    0    0 -0.36721735102E-02  0.18942441997E-01 -0.13559100104E-01  0.23582836189E-01  0.00000000000E+00 0. -1.
     999901    1    3    3    0    0 -0.20925703674E-01  0.50532430715E-01  0.11930904671E+00  0.88973370188E+00  0.88000000000E+00 0.  1.
        -11    1    4    4    0    0  0.16538385459E-01 -0.42272942807E-01 -0.46855041268E-01  0.65239373850E-01  0.51100000000E-03 0.  1.
         11    1    4    4    0    0  0.80594917255E-02 -0.27201929904E-01 -0.58894905336E-01  0.65374088085E-01  0.51100000000E-03 0. -1.
</event>
<event>
 8    1  0.1088088E+005  0.1043930E+01  0.7957747E-01            NaN
         13   -1    0    0    0    0  0.00000000000E+00  0.00000000000E+00  0.74505805969E-08  0.10566000000E+00  0.10566000000E+00 0. -1.
     999900   -1    0    0    0    0 -0.00000000000E+00 -0.00000000000E+00 -0.74505805969E-08  0.93827000000E+00  0.93827000000E+00 0. -1.
     999902    2    1    2    0    0 -0.17125279189E-01 -0.73835950498E-02  0.13071038496E-01  0.10211562276E+01  0.10209022463E+01 0.  0.
     999903    2    3    3    0    0 -0.11718634255E+00  0.45149660075E-01 -0.37622236826E-01  0.13248206487E+00  0.19103249012E-01 0.  0.
         14    1    1    2    0    0  0.17125279189E-01  0.73835950498E-02 -0.13071038496E-01  0.22773772426E-01  0.00000000000E+00 0.  1.
     999901    1    3    3    0    0  0.10006106336E+00 -0.52533255124E-01  0.50693275322E-01  0.88867416270E+00  0.88000000000E+00 0.  1.
        -11    1    4    4    0    0 -0.73184898812E-01  0.30896311135E-01 -0.14440071952E-01  0.80742728805E-01  0.51100000000E-03 0. -1.
         11    1    4    4    0    0 -0.44001443740E-01  0.14253348940E-01 -0.23182164874E-01  0.51739336065E-01  0.51100000000E-03 0.  1.
</event>
<event>
 8    1  0.1088088E+005  0.1043930E+01  0.7957747E-01            NaN
         13   -1    0    0    0    0  0.00000000000E+00  0.00000000000E+00  0.74505805969E-08  0.10566000000E+00  0.10566000000E+00 0. -1.
     999900   -1    0    0    0    0 -0.00000000000E+00 -0.00000000000E+00 -0.74505805969E-08  0.93827000000E+00  0.93827000000E+00 0.  1.
     999902    2    1    2    0    0  0.15583041746E-01  0.49094005638E-02 -0.16838904650E-01  0.10204676448E+01  0.10201978886E+01 0.  0.
     999903    2    3    3    0    0  0.10035674975E+00 -0.83033045391E-01  0.29047191907E-02  0.13181120605E+00  0.19994819305E-01 0.  0.
         14    1    1    2    0    0 -0.15583041746E-01 -0.49094005638E-02  0.16838904650E-01  0.23462355248E-01  0.00000000000E+00 0.  1.
     999901    1    3    3    0    0 -0.84773708003E-01  0.87942445954E-01 -0.19743623841E-01  0.88865643870E+00  0.88000000000E+00 0. -1.
        -11    1    4    4    0    0  0.21850136906E-01 -0.11909001145E-01  0.68087196138E-02  0.25804506871E-01  0.51100000000E-03 0.  1.
         11    1    4    4    0    0  0.78506612843E-01 -0.71124044245E-01 -0.39040004231E-02  0.10600669918E+00  0.51100000000E-03 0. -1.
</event>
<event>
 8    1  0.1088088E+005  0.1043930E+01  0.7957747E-01            NaN
         13   -1    0    0    0    0  0.00000000000E+00  0.00000000000E+00  0.74505805969E-08  0.10566000000E+00  0.10566000000E+00 0.  1.
     999900   -1    0    0    0    0 -0.00000000000E+00 -0.00000000000E+00 -0.74505805969E-08  0.93827000000E+00  0.93827000000E+00 0.  1.
     999902    2    1    2    0    0 -0.18856870217E-03 -0.12628863587E-01 -0.19696004724E-01  0.10205322147E+01  0.10202639585E+01 0.  0.
     999903    2    3    3    0    0  0.12502394696E+00 -0.32612886117E-02  0.29932125790E-01  0.13023514246E+00  0.20582440634E-01 0.  0.
         14    1    1    2    0    0  0.18856870217E-03  0.12628863587E-01  0.19696004724E-01  0.23397785274E-01  0.00000000000E+00 0.  1.
     999901    1    3    3    0    0 -0.12521251566E+00 -0.93675749756E-02 -0.49628130514E-01  0.89029707226E+00  0.88000000000E+00 0.  1.
        -11    1    4    4    0    0  0.10629682516E+00 -0.95849585447E-02  0.22257932969E-01  0.10902551614E+00  0.51100000000E-03 0. -1.
         11    1    4    4    0    0  0.18727121798E-01  0.63236699331E-02  0.76741928216E-02  0.21209626322E-01  0.51100000000E-03 0.  1.
</event>
<event>
 8    1  0.1088088E+005  0.1043930E+01  0.7957747E-01            NaN
         13   -1    0    0    0    0  0.00000000000E+00  0.00000000000E+00  0.74505805969E-08  0.10566000000E+00  0.10566000000E+00 0. -1.
     999900   -1    0    0    0    0 -0.00000000000E+00 -0.00000000000E+00 -0.74505805969E-08  0.93827000000E+00  0.93827000000E+00 0.  1.
     999902    2    1    2    0    0 -0.73306952289E-03 -0.22232696697E-01  0.66466854494E-02  0.10207134408E+01  0.10204493714E+01 0.  0.
     999903    2    3    3    0    0  0.71958340803E-01  0.10018658126E+00  0.31804642257E-01  0.12891556935E+00  0.19807444925E-01 0.  0.
         14    1    1    2    0    0  0.73306952289E-03  0.22232696697E-01 -0.66466854494E-02  0.23216559194E-01  0.00000000000E+00 0. -1.
     999901    1    3    3    0    0 -0.72691410326E-01 -0.12241927796E+00 -0.25157956808E-01  0.89179787146E+00  0.88000000000E+00 0.  1.
        -11    1    4    4    0    0  0.43268335863E-01  0.59184027075E-01  0.88204349077E-02  0.73844154420E-01  0.51100000000E-03 0.  1.
         11    1    4    4    0    0  0.28690004940E-01  0.41002554187E-01  0.22984207350E-01  0.55071414925E-01  0.51100000000E-03 0. -1.
</event>
<event>
 8    1  0.1088088E+005  0.1043930E+01  0.7957747E-01            NaN
         13   -1    0    0    0    0  0.00000000000E+00  0.00000000000E+00  0.74505805969E-08  0.10566000000E+00  0.10566000000E+00 0.  1.
     999900   -1    0    0    0    0 -0.00000000000E+00 -0.00000000000E+00 -0.74505805969E-08  0.93827000000E+00  0.93827000000E+00 0. -1.
     999902    2    1    2    0    0 -0.23158628323E-01 -0.48348979993E-02  0.12694254177E-01  0.10170814918E+01  0.10167270620E+01 0.  0.
     999903    2    3    3    0    0 -0.11633429946E+00 -0.34986763732E-01  0.44939718054E-01  0.13106196003E+00  0.19997905913E-01 0.  0.
         14    1    1    2    0    0  0.23158628323E-01  0.48348979993E-02 -0.12694254177E-01  0.26848508219E-01  0.00000000000E+00 0. -1.
     999901    1    3    3    0    0  0.93175671140E-01  0.30151865733E-01 -0.32245463877E-01  0.88601953175E+00  0.88000000000E+00 0.  1.
        -11    1    4    4    0    0 -0.53320102661E-01 -0.95951551857E-02  0.28253201397E-01  0.61103231182E-01  0.51100000000E-03 0.  1.
         11    1    4    4    0    0 -0.63014196802E-01 -0.25391608546E-01  0.16686516658E-01  0.69958728850E-01  0.51100000000E-03 0. -1.
</event>
<event>
 8    1  0.1088088E+005  0.1043930E+01  0.7957747E-01            NaN
         13   -1    0    0    0    0  0.00000000000E+00  0.00000000000E+00  0.74505805969E-08  0.10566000000E+00  0.10566000000E+00 0.  1.
     999900   -1    0    0    0    0 -0.00000000000E+00 -0.00000000000E+00 -0.74505805969E-08  0.93827000000E+00  0.93827000000E+00 0. -1.
     999902    2    1    2    0    0 -0.13090220600E-01 -0.17763606094E-01  0.79873557633E-02  0.10204630567E+01  0.10201931938E+01 0.  0.
     999903    2    3    3    0    0  0.85777586562E-01 -0.25537409203E-02 -0.93722729444E-01  0.12897490492E+00  0.22051306890E-01 0.  0.
         14    1    1    2    0    0  0.13090220600E-01  0.17763606094E-01 -0.79873557633E-02  0.23466943322E-01  0.00000000000E+00 0.  1.
     999901    1    3    3    0    0 -0.98867807162E-01 -0.15209865173E-01  0.10171008521E+00  0.89148815176E+00  0.88000000000E+00 0.  1.
        -11    1    4    4    0    0  0.24873563833E-01 -0.26137477711E-02 -0.42849358575E-01  0.49617078778E-01  0.51100000000E-03 0.  1.
         11    1    4    4    0    0  0.60904022729E-01  0.60006850840E-04 -0.50873370869E-01  0.79357826142E-01  0.51100000000E-03 0. -1.
</event>
<event>
 8    1  0.1088088E+005  0.1043930E+01  0.7957747E-01            NaN
         13   -1    0    0    0    0  0.00000000000E+00  0.00000000000E+00  0.74505805969E-08  0.10566000000E+00  0.10566000000E+00 0. -1.
     999900   -1    0    0    0    0 -0.00000000000E+00 -0.00000000000E+00 -0.74505805969E-08  0.93827000000E+00  0.93827000000E+00 0. -1.
     999902    2    1    2    0    0 -0.17011878871E-02  0.22630353653E-01 -0.86982879161E-02  0.10196259436E+01  0.10193362437E+01 0.  0.
     999903    2    3    3    0    0 -0.11879650093E+00 -0.11402056834E-01  0.46083805408E-01  0.12953010881E+00  0.20290796770E-01 0.  0.
         14    1    1    2    0    0  0.17011878871E-02 -0.22630353653E-01  0.86982879161E-02  0.24304056438E-01  0.00000000000E+00 0.  1.
     999901    1    3    3    0    0  0.11709531304E+00  0.34032410486E-01 -0.54782093325E-01  0.89009583476E+00  0.88000000000E+00 0.  1.
        -11    1    4    4    0    0 -0.36517256217E-01 -0.67876337969E-02  0.23955584708E-01  0.44200827298E-01  0.51100000000E-03 0. -1.
         11    1    4    4    0    0 -0.82279244712E-01 -0.46144230369E-02  0.22128220701E-01  0.85329281508E-01  0.51100000000E-03 0.  1.
</event>
<event>
 8    1  0.1088088E+005  0.1043930E+01  0.7957747E-01            NaN
         13   -1    0    0    0    0  0.00000000000E+00  0.00000000000E+00  0.74505805969E-08  0.10566000000E+00  0.10566000000E+00 0. -1.
     999900   -1    0    0    0    0 -0.00000000000E+00 -0.00000000000E+00 -0.74505805969E-08  0.93827000000E+00  0.93827000000E+00 0.  1.
     999902    2    1    2    0    0  0.23950531308E-01 -0.59478890396E-02 -0.10431557783E-02  0.10192299290E+01  0.10189305936E+01 0.  0.
     999903    2    3    3    0    0  0.56766178766E-01 -0.11293103938E+00  0.28203010272E-01  0.13166156576E+00  0.23738984860E-01 0.  0.
         14    1    1    2    0    0 -0.23950531308E-01  0.59478890396E-02  0.10431557783E-02  0.24700071011E-01  0.00000000000E+00 0.  1.
     999901    1    3    3    0    0 -0.32815647458E-01  0.10698315034E+00 -0.29246166050E-01  0.88756836323E+00  0.88000000000E+00 0.  1.
        -11    1    4    4    0    0  0.48532071420E-02 -0.32352788783E-01  0.84645046810E-02  0.33795939432E-01  0.51100000000E-03 0. -1.
         11    1    4    4    0    0  0.51912971624E-01 -0.80578250600E-01  0.19738505591E-01  0.97865626328E-01  0.51100000000E-03 0.  1.
</event>
<event>
 8    1  0.1088088E+005  0.1043930E+01  0.7957747E-01            NaN
         13   -1    0    0    0    0  0.00000000000E+00  0.00000000000E+00  0.74505805969E-08  0.10566000000E+00  0.10566000000E+00 0.  1.
     999900   -1    0    0    0    0 -0.00000000000E+00 -0.00000000000E+00 -0.74505805969E-08  0.93827000000E+00  0.93827000000E+00 0. -1.
     999902    2    1    2    0    0  0.12860204484E-01  0.13214818251E-01 -0.13864462134E-01  0.10208596816E+01  0.10205989663E+01 0.  0.
     999903    2    3    3    0    0 -0.41617099151E-01  0.60380400619E-02 -0.12393108449E+00  0.13230245547E+00  0.19405802011E-01 0.  0.
         14    1    1    2    0    0 -0.12860204484E-01 -0.13214818251E-01  0.13864462134E-01  0.23070318399E-01  0.00000000000E+00 0.  1.
     999901    1    3    3    0    0  0.54477303635E-01  0.71767781887E-02  0.11006662235E+00  0.88855722613E+00  0.88000000000E+00 0. -1.
        -11    1    4    4    0    0 -0.23785414288E-01 -0.44709943207E-02 -0.82621283347E-01  0.86094560258E-01  0.51100000000E-03 0. -1.
         11    1    4    4    0    0 -0.17831684863E-01  0.10509034383E-01 -0.41309801138E-01  0.46207895210E-01  0.51100000000E-03 0.  1.
</event>
<event>
 8    1  0.1088088E+005  0.1043930E+01  0.7957747E-01            NaN
         13   -1    0    0    0    0  0.00000000000E+00  0.00000000000E+00  0.74505805969E-08  0.10566000000E+00  0.10566000000E+00 0. -1.
     999900   -1    0    0    0    0 -0.00000000000E+00 -0.00000000000E+00 -0.74505805969E-08  0.93827000000E+00  0.93827000000E+00 0. -1.
     999902    2    1    2    0    0 -0.13074332962E-01 -0.98856370238E-02  0.16570634930E-01  0.10206222772E+01  0.10203561058E+01 0.  0.
     999903    2    3    3    0    0  0.10179978155E+00  0.71804633759E-01  0.26080278144E-02  0.12929499893E+00  0.34515126925E-01 0.  0.
         14    1    1    2    0    0  0.13074332962E-01  0.98856370238E-02 -0.16570634930E-01  0.23307722836E-01  0.00000000000E+00 0. -1.
     999901    1    3    3    0    0 -0.11487411451E+00 -0.81690270783E-01  0.13962607116E-01  0.89132727823E+00  0.88000000000E+00 0. -1.
        -11    1    4    4    0    0  0.44773862717E-01  0.37944606043E-01 -0.15189562402E-01  0.60625702778E-01  0.51100000000E-03 0. -1.
         11    1    4    4    0    0  0.57025918833E-01  0.33860027716E-01  0.17797590216E-01  0.68669296153E-01  0.51100000000E-03 0.  1.
</event>
<event>
 8    1  0.1088088E+005  0.1043930E+01  0.7957747E-01            NaN
         13   -1    0    0    0    0  0.00000000000E+00  0.00000000000E+00  0.74505805969E-08  0.10566000000E+00  0.10566000000E+00 0. -1.
     999900   -1    0    0    0    0 -0.00000000000E+00 -0.00000000000E+00 -0.74505805969E-08  0.93827000000E+00  0.93827000000E+00 0.  1.
     999902    2    1    2    0    0 -0.88351764350E-02 -0.21741505080E-01 -0.18231269438E-02  0.10203911560E+01  0.10201196175E+01 0.  0.
     999903    2    3    3    0    0 -0.52957825983E-01 -0.52917935048E-01 -0.10730313019E+00  0.13244700849E+00  0.20576907584E-01 0.  0.
         14    1    1    2    0    0  0.88351764350E-02  0.21741505080E-01  0.18231269438E-02  0.23538844017E-01  0.00000000000E+00 0.  1.
     999901    1    3    3    0    0  0.44122649548E-01  0.31176429968E-01  0.10548000325E+00  0.88794414750E+00  0.88000000000E+00 0. -1.
        -11    1    4    4    0    0 -0.36270957533E-01 -0.31945730681E-01 -0.52034289056E-01  0.71020704218E-01  0.51100000000E-03 0. -1.
         11    1    4    4    0    0 -0.16686868450E-01 -0.20972204367E-01 -0.55268841135E-01  0.61426304268E-01  0.51100000000E-03 0.  1.
</event>
<event>
 8    1  0.1088088E+005  0.1043930E+01  0.7957747E-01            NaN
         13   -1    0    0    0    0  0.00000000000E+00  0.00000000000E+00  0.74505805969E-08  0.10566000000E+00  0.10566000000E+00 0.  1.
     999900   -1    0    0    0    0 -0.00000000000E+00 -0.00000000000E+00 -0.74505805969E-08  0.93827000000E+00  0.93827000000E+00 0. -1.
     999902    2    1    2    0    0  0.21617105037E-02  0.20877348195E-01  0.76499052530E-02  0.10215904004E+01  0.10213461159E+01 0.  0.
     999903    2    3    3    0    0  0.96617653895E-01 -0.24295917235E-01 -0.82335801823E-01  0.13082669625E+00  0.20277513442E-01 0.  0.
         14    1    1    2    0    0 -0.21617105037E-02 -0.20877348195E-01 -0.76499052530E-02  0.22339599601E-01  0.00000000000E+00 0. -1.
     999901    1    3    3    0    0 -0.94455943391E-01  0.45173265429E-01  0.89985707076E-01  0.89076370415E+00  0.88000000000E+00 0.  1.
        -11    1    4    4    0    0  0.82041618619E-01 -0.15772189016E-01 -0.75489911349E-01  0.11259918725E+00  0.51100000000E-03 0. -1.
         11    1    4    4    0    0  0.14576035276E-01 -0.85237282187E-02 -0.68458904747E-02  0.18227509005E-01  0.51100000000E-03 0.  1.
</event>
<event>
 8    1  0.1088088E+005  0.1043930E+01  0.7957747E-01            NaN
         13   -1    0    0    0    0  0.00000000000E+00  0.00000000000E+00  0.74505805969E-08  0.10566000000E+00  0.10566000000E+00 0.  1.
     999900   -1    0    0    0    0 -0.00000000000E+00 -0.00000000000E+00 -0.74505805969E-08  0.93827000000E+00  0.93827000000E+00 0.  1.
     999902    2    1    2    0    0 -0.18253772076E-01 -0.11942355195E-01  0.19637758921E-01  0.10145793336E+01  0.10141547035E+01 0.  0.
     999903    2    3    3    0    0  0.43196217227E-01  0.11369346384E+00  0.25949388617E-03  0.12332405179E+00  0.20411700314E-01 0.  0.
         14    1    1    2    0    0  0.18253772076E-01  0.11942355195E-01 -0.19637758921E-01  0.29350666399E-01  0.00000000000E+00 0. -1.
     999901    1    3    3    0    0 -0.61449989303E-01 -0.12563581903E+00  0.19378265035E-01  0.89125528182E+00  0.88000000000E+00 0.  1.
        -11    1    4    4    0    0  0.56092674842E-02  0.28758371175E-01  0.72226586451E-02  0.30181711569E-01  0.51100000000E-03 0.  1.
         11    1    4    4    0    0  0.37586949743E-01  0.84935092662E-01 -0.69631647589E-02  0.93142340216E-01  0.51100000000E-03 0. -1.
</event>
<event>
 8    1  0.1088088E+005  0.1043930E+01  0.7957747E-01            NaN
         13   -1    0    0    0    0  0.00000000000E+00  0.00000000000E+00  0.74505805969E-08  0.10566000000E+00  0.10566000000E+00 0.  1.
     999900   -1    0    0    0    0 -0.00000000000E+00 -0.00000000000E+00 -0.74505805969E-08  0.93827000000E+00  0.93827000000E+00 0. -1.
     999902    2    1    2    0    0 -0.20013330821E-01 -0.67337294588E-02  0.92610837656E-02  0.10208725891E+01  0.10206121688E+01 0.  0.
     999903    2    3    3    0    0 -0.10728918852E+00 -0.26581303160E-01  0.73153939942E-01  0.13402801505E+00  0.19861375555E-01 0.  0.
         14    1    1    2    0    0  0.20013330821E-01  0.67337294588E-02 -0.92610837656E-02  0.23057410859E-01  0.00000000000E+00 0.  1.
     999901    1    3    3    0    0  0.87275857699E-01  0.19847573701E-01 -0.63892856177E-01  0.88684457409E+00  0.88000000000E+00 0. -1.
        -11    1    4    4    0    0 -0.37802472028E-01 -0.32109733870E-02  0.16495694422E-01  0.41372772411E-01  0.51100000000E-03 0. -1.
         11    1    4    4    0    0 -0.69486716493E-01 -0.23370329773E-01  0.56658245521E-01  0.92655242642E-01  0.51100000000E-03 0.  1.
</event>
<event>
 8    1  0.1088088E+005  0.1043930E+01  0.7957747E-01            NaN
         13   -1    0    0    0    0  0.00000000000E+00  0.00000000000E+00  0.74505805969E-08  0.10566000000E+00  0.10566000000E+00 0. -1.
     999900   -1    0    0    0    0 -0.00000000000E+00 -0.00000000000E+00 -0.74505805969E-08  0.93827000000E+00  0.93827000000E+00 0. -1.
     999902    2    1    2    0    0 -0.14651595074E-01  0.14738614322E-01 -0.10912890082E-01  0.10204568843E+01  0.10201868778E+01 0.  0.
     999903    2    3    3    0    0 -0.11766350145E+00 -0.54876947935E-01 -0.96861654192E-02  0.13171660491E+00  0.19981572076E-01 0.  0.
         14    1    1    2    0    0  0.14651595074E-01 -0.14738614322E-01  0.10912890082E-01  0.23473115692E-01  0.00000000000E+00 0. -1.
     999901    1    3    3    0    0  0.10301190637E+00  0.69615562258E-01 -0.12267246626E-02  0.88874027939E+00  0.88000000000E+00 0. -1.
        -11    1    4    4    0    0 -0.71475055843E-01 -0.22574275322E-01 -0.39748503412E-02  0.75062254631E-01  0.51100000000E-03 0.  1.
         11    1    4    4    0    0 -0.46188445603E-01 -0.32302672614E-01 -0.57113150780E-02  0.56654350284E-01  0.51100000000E-03 0. -1.
</event>
<event>
 8    1  0.1088088E+005  0.1043930E+01  0.7957747E-01            NaN
         13   -1    0    0    0    0  0.00000000000E+00  0.00000000000E+00  0.74505805969E-08  0.10566000000E+00  0.10566000000E+00 0. -1.
     999900   -1    0    0    0    0 -0.00000000000E+00 -0.00000000000E+00 -0.74505805969E-08  0.93827000000E+00  0.93827000000E+00 0.  1.
     999902    2    1    2    0    0  0.20011332512E-01 -0.68016342668E-02  0.26128287033E-03  0.10227927361E+01  0.10225742990E+01 0.  0.
     999903    2    3    3    0    0  0.66366832608E-01  0.97833117704E-01  0.58828037081E-01  0.13345178435E+00  0.19307133642E-01 0.  0.
         14    1    1    2    0    0 -0.20011332512E-01  0.68016342668E-02 -0.26128287033E-03  0.21137263928E-01  0.00000000000E+00 0.  1.
     999901    1    3    3    0    0 -0.46355500096E-01 -0.10463475197E+00 -0.58566754211E-01  0.88934095172E+00  0.88000000000E+00 0.  1.
        -11    1    4    4    0    0  0.13327307392E-01  0.33313746350E-01  0.22611647051E-01  0.42414272616E-01  0.51100000000E-03 0. -1.
         11    1    4    4    0    0  0.53039525216E-01  0.64519371355E-01  0.36216390031E-01  0.91037511735E-01  0.51100000000E-03 0.  1.
</event>
<event>
 8    1  0.1088088E+005  0.1043930E+01  0.7957747E-01            NaN
         13   -1    0    0    0    0  0.00000000000E+00  0.00000000000E+00  0.74505805969E-08  0.10566000000E+00  0.10566000000E+00 0. -1.
     999900   -1    0    0    0    0 -0.00000000000E+00 -0.00000000000E+00 -0.74505805969E-08  0.93827000000E+00  0.93827000000E+00 0. -1.
     999902    2    1    2    0    0 -0.10048733864E-01 -0.11390906664E-02 -0.21097912304E-01  0.10205334942E+01  0.10202652676E+01 0.  0.
     999903    2    3    3    0    0 -0.48645243917E-01  0.91779443528E-01  0.75392312417E-01  0.12955992105E+00  0.17662003344E-01 0.  0.
         14    1    1    2    0    0  0.10048733864E-01  0.11390906664E-02  0.21097912304E-01  0.23396505795E-01  0.00000000000E+00 0. -1.
     999901    1    3    3    0    0  0.38596510052E-01 -0.92918534194E-01 -0.96490224721E-01  0.89097357315E+00  0.88000000000E+00 0. -1.
        -11    1    4    4    0    0 -0.10473124276E-01  0.86318525315E-02  0.66606451053E-02  0.15126814749E-01  0.51100000000E-03 0.  1.
         11    1    4    4    0    0 -0.38172119640E-01  0.83147590997E-01  0.68731667312E-01  0.11443310631E+00  0.51100000000E-03 0. -1.
</event>
<event>
 8    1  0.1088088E+005  0.1043930E+01  0.7957747E-01            NaN
         13   -1    0    0    0    0  0.00000000000E+00  0.00000000000E+00  0.74505805969E-08  0.10566000000E+00  0.10566000000E+00 0. -1.
     999900   -1    0    0    0    0 -0.00000000000E+00 -0.00000000000E+00 -0.74505805969E-08  0.93827000000E+00  0.93827000000E+00 0. -1.
     999902    2    1    2    0    0  0.10723444690E-01  0.11860865173E-01  0.19522492540E-01  0.10186951015E+01  0.10183824967E+01 0.  0.
     999903    2    3    3    0    0 -0.12169930477E-01 -0.12339796934E+00  0.21114100386E-01  0.12806521642E+00  0.24077549197E-01 0.  0.
         14    1    1    2    0    0 -0.10723444690E-01 -0.11860865173E-01 -0.19522492540E-01  0.25234898527E-01  0.00000000000E+00 0.  1.
     999901    1    3    3    0    0  0.22893375168E-01  0.13525883451E+00 -0.15916078454E-02  0.89062988506E+00  0.88000000000E+00 0. -1.
        -11    1    4    4    0    0  0.37091448797E-02 -0.44502757918E-01  0.15942700735E-01  0.47420291498E-01  0.51100000000E-03 0. -1.
         11    1    4    4    0    0 -0.15879075357E-01 -0.78895211423E-01  0.51713996506E-02  0.80644924918E-01  0.51100000000E-03 0.  1.
</event>
<event>
 8    1  0.1088088E+005  0.1043930E+01  0.7957747E-01            NaN
         13   -1    0    0    0    0  0.00000000000E+00  0.00000000000E+00  0.74505805969E-08  0.10566000000E+00  0.10566000000E+00 0.  1.
     999900   -1    0    0    0    0 -0.00000000000E+00 -0.00000000000E+00 -0.74505805969E-08  0.93827000000E+00  0.93827000000E+00 0.  1.
     999902    2    1    2    0    0  0.21732691459E-01  0.90797953982E-02 -0.34661733511E-02  0.10201231329E+01  0.10198453017E+01 0.  0.
     999903    2    3    3    0    0  0.27457544868E-02  0.45418053441E-01  0.12058996489E+00  0.13047663109E+00  0.20294651583E-01 0.  0.
         14    1    1    2    0    0 -0.21732691459E-01 -0.90797953982E-02  0.34661733511E-02  0.23806867081E-01  0.00000000000E+00 0.  1.
     999901    1    3    3    0    0  0.18986936972E-01 -0.36338258042E-01 -0.12405613824E+00  0.88964650182E+00  0.88000000000E+00 0.  1.
        -11    1    4    4    0    0  0.89333114135E-02  0.96464467106E-02  0.39393235292E-01  0.41532470366E-01  0.51100000000E-03 0. -1.
         11    1    4    4    0    0 -0.61875569267E-02  0.35771606730E-01  0.81196729600E-01  0.88944160728E-01  0.51100000000E-03 0.  1.
</event>
<event>
 8    1  0.1088088E+005  0.1043930E+01  0.7957747E-01            NaN
         13   -1    0    0    0    0  0.00000000000E+00  0.00000000000E+00  0.74505805969E-08  0.10566000000E+00  0.10566000000E+00 0. -1.
     999900   -1    0    0    0    0 -0.00000000000E+00 -0.00000000000E+00 -0.74505805969E-08  0.93827000000E+00  0.93827000000E+00 0.  1.
     999902    2    1    2    0    0  0.10993682350E-01 -0.59164222517E-02 -0.20626376933E-01  0.10198195763E+01  0.10195345290E+01 0.  0.
     999903    2    3    3    0    0  0.80615868421E-01  0.87966510565E-01 -0.50596019748E-01  0.13158569196E+00  0.22755480470E-01 0.  0.
         14    1    1    2    0    0 -0.10993682350E-01  0.59164222517E-02  0.20626376933E-01  0.24110423664E-01  0.00000000000E+00 0. -1.
     999901    1    3    3    0    0 -0.69622186071E-01 -0.93882932816E-01  0.29969642815E-01  0.88823388438E+00  0.88000000000E+00 0.  1.
        -11    1    4    4    0    0  0.14301931701E-01  0.20222941336E-01 -0.14819560917E-02  0.24818741336E-01  0.51100000000E-03 0. -1.
         11    1    4    4    0    0  0.66313936720E-01  0.67743569229E-01 -0.49114063656E-01  0.10676695062E+00  0.51100000000E-03 0.  1.
</event>
<event>
 8    1  0.1088088E+005  0.1043930E+01  0.7957747E-01            NaN
         13   -1    0    0    0    0  0.00000000000E+00  0.00000000000E+00  0.74505805969E-08  0.10566000000E+00  0.10566000000E+00 0. -1.
     999900   -1    0    0    0    0 -0.00000000000E+00 -0.00000000000E+00 -0.74505805969E-08  0.93827000000E+00  0.93827000000E+00 0. -1.
     999902    2    1    2    0    0  0.18532472391E-01 -0.40347912623E-02 -0.25798690189E-01  0.10119096238E+01  0.10114028784E+01 0.  0.
     999903    2    3    3    0    0  0.24358391942E-01 -0.71377455603E-01  0.93038116577E-01  0.12135296511E+00  0.19554502771E-01 0.  0.
         14    1    1    2    0    0 -0.18532472391E-01  0.40347912623E-02  0.25798690189E-01  0.32020376152E-01  0.00000000000E+00 0. -1.
     999901    1    3    3    0    0 -0.58259195512E-02  0.67342664341E-01 -0.11883680677E+00  0.89055665874E+00  0.88000000000E+00 0.  1.
        -11    1    4    4    0    0  0.17321945883E-01 -0.30398762993E-01  0.53817424788E-01  0.64192763864E-01  0.51100000000E-03 0. -1.
         11    1    4    4    0    0  0.70364460588E-02 -0.40978692610E-01  0.39220691789E-01  0.57160201246E-01  0.51100000000E-03 0.  1.
</event>
<event>
 8    1  0.1088088E+005  0.1043930E+01  0.7957747E-01            NaN
         13   -1    0    0    0    0  0.00000000000E+00  0.00000000000E+00  0.74505805969E-08  0.10566000000E+00  0.10566000000E+00 0. -1.
     999900   -1    0    0    0    0 -0.00000000000E+00 -0.00000000000E+00 -0.74505805969E-08  0.93827000000E+00  0.93827000000E+00 0.  1.
     999902    2    1    2    0    0  0.12334863247E-01  0.54266926804E-02  0.19859722009E-01  0.10199298666E+01  0.10196474520E+01 0.  0.
     999903    2    3    3    0    0  0.72114500871E-01  0.10373555917E+00 -0.29010246912E-01  0.13109551074E+00  0.19567090664E-01 0.  0.
         14    1    1    2    0    0 -0.12334863247E-01 -0.54266926804E-02 -0.19859722009E-01  0.24000133396E-01  0.00000000000E+00 0.  1.
     999901    1    3    3    0    0 -0.59779637624E-01 -0.98308866492E-01  0.48869968920E-01  0.88883435587E+00  0.88000000000E+00 0. -1.
        -11    1    4    4    0    0  0.40091324234E-02  0.75674359681E-02 -0.73108182232E-02  0.11271575489E-01  0.51100000000E-03 0. -1.
         11    1    4    4    0    0  0.68105368447E-01  0.96168123205E-01 -0.21699428689E-01  0.11982393525E+00  0.51100000000E-03 0.  1.
</event>
<event>
 8    1  0.1088088E+005  0.1043930E+01  0.7957747E-01            NaN
         13   -1    0    0    0    0  0.00000000000E+00  0.00000000000E+00  0.74505805969E-08  0.10566000000E+00  0.10566000000E+00 0. -1.
     999900   -1    0    0    0    0 -0.00000000000E+00 -0.00000000000E+00 -0.74505805969E-08  0.93827000000E+00  0.93827000000E+00 0.  1.
     999902    2    1    2    0    0  0.14201038414E-01  0.12773101208E-01 -0.14445978780E-01  0.10199819748E+01  0.10197007998E+01 0.  0.
     999903    2    3    3    0    0  0.72961007204E-01 -0.34840239946E-01  0.99643365094E-01  0.12940006250E+00  0.16686074321E-01 0.  0.
         14    1    1    2    0    0 -0.14201038414E-01 -0.12773101208E-01  0.14445978780E-01  0.23948025167E-01  0.00000000000E+00 0. -1.
     999901    1    3    3    0    0 -0.58759968790E-01  0.47613341154E-01 -0.11408934387E+00  0.89058191233E+00  0.88000000000E+00 0.  1.
        -11    1    4    4    0    0  0.17401605941E-01 -0.12377673366E-01  0.16925802557E-01  0.27253744705E-01  0.51100000000E-03 0. -1.
         11    1    4    4    0    0  0.55559401263E-01 -0.22462566580E-01  0.82717562536E-01  0.10214631779E+00  0.51100000000E-03 0.  1.
</event>
<event>
 8    1  0.1088088E+005  0.1043930E+01  0.7957747E-01            NaN
         13   -1    0    0    0    0  0.00000000000E+00  0.00000000000E+00  0.74505805969E-08  0.10566000000E+00  0.10566000000E+00 0. -1.
     999900   -1    0    0    0    0 -0.00000000000E+00 -0.00000000000E+00 -0.74505805969E-08  0.93827000000E+00  0.93827000000E+00 0.  1.
     999902    2    1    2    0    0  0.95650681469E-02  0.11690256649E-01 -0.18643982519E-01  0.10199351940E+01  0.10196529063E+01 0.  0.
     999903    2    3    3    0    0  0.82986435875E-02 -0.40399292105E-01 -0.12389338504E+00  0.13213321068E+00  0.20214950362E-01 0.  0.
         14    1    1    2    0    0 -0.95650681469E-02 -0.11690256649E-01  0.18643982519E-01  0.23994805966E-01  0.00000000000E+00 0. -1.
     999901    1    3    3    0    0  0.12664245594E-02  0.52089548754E-01  0.10524940252E+00  0.88780198336E+00  0.88000000000E+00 0. -1.
        -11    1    4    4    0    0  0.14756999704E-01 -0.28278726079E-01 -0.93040587821E-01  0.98357854246E-01  0.51100000000E-03 0. -1.
         11    1    4    4    0    0 -0.64583561161E-02 -0.12120566026E-01 -0.30852797223E-01  0.33775356431E-01  0.51100000000E-03 0.  1.
</event>
<event>
 8    1  0.1088088E+005  0.1043930E+01  0.7957747E-01            NaN
         13   -1    0    0    0    0  0.00000000000E+00  0.00000000000E+00  0.74505805969E-08  0.10566000000E+00  0.10566000000E+00 0. -1.
     999900   -1    0    0    0    0 -0.00000000000E+00 -0.00000000000E+00 -0.74505805969E-08  0.93827000000E+00  0.93827000000E+00 0.  1.
     999902    2    1    2    0    0  0.95592485791E-02  0.79407666569E-02 -0.19997799876E-01  0.10203854251E+01  0.10201137528E+01 0.  0.
     999903    2    3    3    0    0  0.61014081089E-01  0.11424853054E+00 -0.19683895857E-01  0.13249520721E+00  0.19800993808E-01 0.  0.
         14    1    1    2    0    0 -0.95592485791E-02 -0.79407666569E-02  0.19997799876E-01  0.23544574924E-01  0.00000000000E+00 0. -1.
     999901    1    3    3    0    0 -0.51454832510E-01 -0.10630776388E+00 -0.31390401899E-03  0.88789021787E+00  0.88000000000E+00 0.  1.
        -11    1    4    4    0    0  0.52234668770E-01  0.10098955417E+00 -0.10645857977E-01  0.11419696181E+00  0.51100000000E-03 0. -1.
         11    1    4    4    0    0  0.87794123194E-02  0.13258976363E-01 -0.90380378803E-02  0.18298245397E-01  0.51100000000E-03 0.  1.
</event>
<event>
 8    1  0.1088088E+005  0.1043930E+01  0.7957747E-01            NaN
         13   -1    0    0    0    0  0.00000000000E+00  0.00000000000E+00  0.74505805969E-08  0.10566000000E+00  0.10566000000E+00 0. -1.
     999900   -1    0    0    0    0 -0.00000000000E+00 -0.00000000000E+00 -0.74505805969E-08  0.93827000000E+00  0.93827000000E+00 0.  1.
     999902    2    1    2    0    0 -0.10720881616E-01 -0.86189852520E-02  0.20106624546E-01  0.10195681331E+01  0.10192770366E+01 0.  0.
     999903    2    3    3    0    0 -0.12040593427E+00 -0.17889460087E-01  0.48095991592E-01  0.13226877145E+00  0.19083545389E-01 0.  0.
         14    1    1    2    0    0  0.10720881616E-01  0.86189852520E-02 -0.20106624546E-01  0.24361866924E-01  0.00000000000E+00 0.  1.
     999901    1    3    3    0    0  0.10968505265E+00  0.92704748351E-02 -0.27989367046E-01  0.88729936163E+00  0.88000000000E+00 0. -1.
        -11    1    4    4    0    0 -0.98440245805E-01 -0.16938975384E-01  0.31566824737E-01  0.10475751251E+00  0.51100000000E-03 0. -1.
         11    1    4    4    0    0 -0.21965688460E-01 -0.95048470271E-03  0.16529166855E-01  0.27511258943E-01  0.51100000000E-03 0.  1.
</event>
<event>
 8    1  0.1088088E+005  0.1043930E+01  0.7957747E-01            NaN
         13   -1    0    0    0    0  0.00000000000E+00  0.00000000000E+00  0.74505805969E-08  0.10566000000E+00  0.10566000000E+00 0.  1.
     999900   -1    0    0    0    0 -0.00000000000E+00 -0.00000000000E+00 -0.74505805969E-08  0.93827000000E+00  0.93827000000E+00 0. -1.
     999902    2    1    2    0    0  0.16362286321E-01 -0.14528636716E-01 -0.80606469243E-02  0.10206109150E+01  0.10203444810E+01 0.  0.
     999903    2    3    3    0    0  0.13405449805E-01 -0.12868722402E+00 -0.22492519288E-01  0.13311488405E+00  0.21761232054E-01 0.  0.
         14    1    1    2    0    0 -0.16362286321E-01  0.14528636716E-01  0.80606469243E-02  0.23319085045E-01  0.00000000000E+00 0.  1.
     999901    1    3    3    0    0  0.29568365166E-02  0.11415858730E+00  0.14431872364E-01  0.88749603091E+00  0.88000000000E+00 0. -1.
        -11    1    4    4    0    0  0.44572893957E-02 -0.55625251189E-01  0.11003065594E-02  0.55816733997E-01  0.51100000000E-03 0.  1.
         11    1    4    4    0    0  0.89481604091E-02 -0.73061972831E-01 -0.23592825848E-01  0.77298150050E-01  0.51100000000E-03 0. -1.
</event>
<event>
 8    1  0.1088088E+005  0.1043930E+01  0.7957747E-01            NaN
         13   -1    0    0    0    0  0.00000000000E+00  0.00000000000E+00  0.74505805969E-08  0.10566000000E+00  0.10566000000E+00 0.  1.
     999900   -1    0    0    0    0 -0.00000000000E+00 -0.00000000000E+00 -0.74505805969E-08  0.93827000000E+00  0.93827000000E+00 0.  1.
     999902    2    1    2    0    0 -0.15986352783E-01  0.17929834915E-01 -0.82278192071E-02  0.10185382796E+01  0.10182217281E+01 0.  0.
     999903    2    3    3    0    0  0.59971263670E-01 -0.10683562897E+00 -0.17798029523E-01  0.12644659744E+00  0.25720965510E-01 0.  0.
         14    1    1    2    0    0  0.15986352783E-01 -0.17929834915E-01  0.82278192071E-02  0.25391720388E-01  0.00000000000E+00 0.  1.
     999901    1    3    3    0    0 -0.75957616453E-01  0.12476546388E+00  0.95702103158E-02  0.89209168217E+00  0.88000000000E+00 0.  1.
        -11    1    4    4    0    0  0.22028733808E-01 -0.58843858512E-01 -0.38272012604E-03  0.62835279847E-01  0.51100000000E-03 0. -1.
         11    1    4    4    0    0  0.37942529862E-01 -0.47991770454E-01 -0.17415309397E-01  0.63611317594E-01  0.51100000000E-03 0.  1.
</event>
<event>
 8    1  0.1088088E+005  0.1043930E+01  0.7957747E-01            NaN
         13   -1    0    0    0    0  0.00000000000E+00  0.00000000000E+00  0.74505805969E-08  0.10566000000E+00  0.10566000000E+00 0. -1.
     999900   -1    0    0    0    0 -0.00000000000E+00 -0.00000000000E+00 -0.74505805969E-08  0.93827000000E+00  0.93827000000E+00 0. -1.
     999902    2    1    2    0    0  0.72423582085E-02  0.22774056427E-01  0.52585864939E-02  0.10194603835E+01  0.10191666750E+01 0.  0.
     999903    2    3    3    0    0 -0.47871641360E-01 -0.43124709450E-01 -0.10863964457E+00  0.12797117589E+00  0.20557598911E-01 0.  0.
         14    1    1    2    0    0 -0.72423582085E-02 -0.22774056427E-01 -0.52585864939E-02  0.24469616476E-01  0.00000000000E+00 0.  1.
     999901    1    3    3    0    0  0.55113999568E-01  0.65898765878E-01  0.11389823107E+00  0.89148920764E+00  0.88000000000E+00 0.  1.
        -11    1    4    4    0    0 -0.22481853271E-01 -0.13563602135E-01 -0.27884104595E-01  0.38303908932E-01  0.51100000000E-03 0. -1.
         11    1    4    4    0    0 -0.25389788089E-01 -0.29561107315E-01 -0.80755539979E-01  0.89667266955E-01  0.51100000000E-03 0.  1.
</event>
<event>
 8    1  0.1088088E+005  0.1043930E+01  0.7957747E-01            NaN
         13   -1    0    0    0    0  0.00000000000E+00  0.00000000000E+00  0.74505805969E-08  0.10566000000E+00  0.10566000000E+00 0.  1.
     999900   -1    0    0    0    0 -0.00000000000E+00 -0.00000000000E+00 -0.74505805969E-08  0.93827000000E+00  0.93827000000E+00 0.  1.
     999902    2    1    2    0    0  0.74231318882E-02 -0.52338597553E-02 -0.21367924316E-01  0.10207118096E+01  0.10204477027E+01 0.  0.
     999903    2    3    3    0    0  0.11150621901E-01 -0.12664677495E+00  0.24739969563E-01  0.13117208142E+00  0.20743839492E-01 0.  0.
         14    1    1    2    0    0 -0.74231318882E-02  0.52338597553E-02  0.21367924316E-01  0.23218190381E-01  0.00000000000E+00 0.  1.
     999901    1    3    3    0    0 -0.37274900124E-02  0.12141291520E+00 -0.46107893880E-01  0.88953972819E+00  0.88000000000E+00 0.  1.
        -11    1    4    4    0    0  0.27601792238E-02 -0.79326891937E-02 -0.30655358953E-02  0.89557120608E-02  0.51100000000E-03 0. -1.
         11    1    4    4    0    0  0.83904426768E-02 -0.11871408576E+00  0.27805505459E-01  0.12221636936E+00  0.51100000000E-03 0.  1.
</event>
<event>
 8    1  0.1088088E+005  0.1043930E+01  0.7957747E-01            NaN
         13   -1    0    0    0    0  0.00000000000E+00  0.00000000000E+00  0.74505805969E-08  0.10566000000E+00  0.10566000000E+00 0.  1.
     999900   -1    0    0    0    0 -0.00000000000E+00 -0.00000000000E+00 -0.74505805969E-08  0.93827000000E+00  0.93827000000E+00 0. -1.
     999902    2    1    2    0    0 -0.73240573033E-02 -0.20374460797E-01 -0.88680640344E-02  0.10205333543E+01  0.10202651245E+01 0.  0.
     999903    2    3    3    0    0 -0.19452474861E-01 -0.11914661659E+00 -0.53505063703E-01  0.13380030601E+00  0.21573479634E-01 0.  0.
         14    1    1    2    0    0  0.73240573033E-02  0.20374460797E-01  0.88680640344E-02  0.23396645654E-01  0.00000000000E+00 0.  1.
     999901    1    3    3    0    0  0.12128417558E-01  0.98772155792E-01  0.44636999669E-01  0.88673304834E+00  0.88000000000E+00 0.  1.
        -11    1    4    4    0    0 -0.20609109033E-01 -0.10803012841E+00 -0.41928629553E-01  0.11770095631E+00  0.51100000000E-03 0. -1.
         11    1    4    4    0    0  0.11566341722E-02 -0.11116488176E-01 -0.11576434150E-01  0.16099349695E-01  0.51100000000E-03 0.  1.
</event>
<event>
 8    1  0.1088088E+005  0.1043930E+01  0.7957747E-01            NaN
         13   -1    0    0    0    0  0.00000000000E+00  0.00000000000E+00  0.74505805969E-08  0.10566000000E+00  0.10566000000E+00 0.  1.
     999900   -1    0    0    0    0 -0.00000000000E+00 -0.00000000000E+00 -0.74505805969E-08  0.93827000000E+00  0.93827000000E+00 0.  1.
     999902    2    1    2    0    0  0.41871177601E-02 -0.16378017377E-01 -0.17583541540E-01  0.10195383551E+01  0.10192465380E+01 0.  0.
     999903    2    3    3    0    0  0.12566246245E+00 -0.25927857224E-01  0.12968398000E-01  0.13061716633E+00  0.20720920492E-01 0.  0.
         14    1    1    2    0    0 -0.41871177601E-02  0.16378017377E-01  0.17583541540E-01  0.24391644910E-01  0.00000000000E+00 0.  1.
     999901    1    3    3    0    0 -0.12147534469E+00  0.95498398472E-02 -0.30551939540E-01  0.88892118876E+00  0.88000000000E+00 0. -1.
        -11    1    4    4    0    0  0.33630693819E-01 -0.16424325134E-01  0.27324391222E-02  0.37530112808E-01  0.51100000000E-03 0. -1.
         11    1    4    4    0    0  0.92031768628E-01 -0.95035320899E-02  0.10235958878E-01  0.93087053526E-01  0.51100000000E-03 0.  1.
</event>
<event>
 8    1  0.1088088E+005  0.1043930E+01  0.7957747E-01            NaN
         13   -1    0    0    0    0  0.00000000000E+00  0.00000000000E+00  0.74505805969E-08  0.10566000000E+00  0.10566000000E+00 0. -1.
     999900   -1    0    0    0    0 -0.00000000000E+00 -0.00000000000E+00 -0.74505805969E-08  0.93827000000E+00  0.93827000000E+00 0.  1.
     999902    2    1    2    0    0 -0.41711387861E-02  0.10669930998E-01  0.20239371330E-01  0.10206732165E+01  0.10204082207E+01 0.  0.
     999903    2    3    3    0    0  0.92182696500E-01 -0.39907391438E-01  0.82840110383E-01  0.13176322127E+00  0.20219128701E-01 0.  0.
         14    1    1    2    0    0  0.41711387861E-02 -0.10669930998E-01 -0.20239371330E-01  0.23256783485E-01  0.00000000000E+00 0.  1.
     999901    1    3    3    0    0 -0.96353835286E-01  0.50577322436E-01 -0.62600739053E-01  0.88890999525E+00  0.88000000000E+00 0.  1.
        -11    1    4    4    0    0  0.46154169324E-01 -0.20368987406E-01  0.28621094952E-01  0.58004579054E-01  0.51100000000E-03 0. -1.
         11    1    4    4    0    0  0.46028527176E-01 -0.19538404032E-01  0.54219015430E-01  0.73758642214E-01  0.51100000000E-03 0.  1.
</event>
<event>
 8    1  0.1088088E+005  0.1043930E+01  0.7957747E-01            NaN
         13   -1    0    0    0    0  0.00000000000E+00  0.00000000000E+00  0.74505805969E-08  0.10566000000E+00  0.10566000000E+00 0.  1.
     999900   -1    0    0    0    0 -0.00000000000E+00 -0.00000000000E+00 -0.74505805969E-08  0.93827000000E+00  0.93827000000E+00 0.  1.
     999902    2    1    2    0    0 -0.51282741279E-02 -0.11324694594E-01  0.19407938072E-01  0.10208818772E+01  0.10206216690E+01 0.  0.
     999903    2    3    3    0    0  0.59733287949E-02  0.99594981061E-01 -0.78453217162E-01  0.12846760922E+00  0.19853927232E-01 0.  0.
         14    1    1    2    0    0  0.51282741279E-02  0.11324694594E-01 -0.19407938072E-01  0.23048122774E-01  0.00000000000E+00 0. -1.
     999901    1    3    3    0    0 -0.11101602923E-01 -0.11091967565E+00  0.97861155235E-01  0.89241426800E+00  0.88000000000E+00 0. -1.
        -11    1    4    4    0    0  0.13093297599E-01  0.53268023939E-01 -0.42109091776E-01  0.69154562739E-01  0.51100000000E-03 0. -1.
         11    1    4    4    0    0 -0.71199688044E-02  0.46326957122E-01 -0.36344125386E-01  0.59313046483E-01  0.51100000000E-03 0.  1.
</event>
<event>
 8    1  0.1088088E+005  0.1043930E+01  0.7957747E-01            NaN
         13   -1    0    0    0    0  0.00000000000E+00  0.00000000000E+00  0.74505805969E-08  0.10566000000E+00  0.10566000000E+00 0.  1.
     999900   -1    0    0    0    0 -0.00000000000E+00 -0.00000000000E+00 -0.74505805969E-08  0.93827000000E+00  0.93827000000E+00 0.  1.
     999902    2    1    2    0    0 -0.23264247108E-01  0.13652020149E-03  0.21842970848E-02  0.10205630365E+01  0.10202954947E+01 0.  0.
     999903    2    3    3    0    0  0.43130933386E-01  0.12074284244E+00 -0.56639540550E-02  0.12982412971E+00  0.19573269114E-01 0.  0.
         14    1    1    2    0    0  0.23264247108E-01 -0.13652020149E-03 -0.21842970848E-02  0.23366963539E-01  0.00000000000E+00 0.  1.
     999901    1    3    3    0    0 -0.66395180494E-01 -0.12060632224E+00  0.78482511398E-02  0.89073890675E+00  0.88000000000E+00 0.  1.
        -11    1    4    4    0    0  0.34783799717E-01  0.10312011132E+00 -0.11570486375E-01  0.10944316954E+00  0.51100000000E-03 0.  1.
         11    1    4    4    0    0  0.83471336696E-02  0.17622731115E-01  0.59065323205E-02  0.20380960171E-01  0.51100000000E-03 0. -1.
</event>
<event>
 8    1  0.1088088E+005  0.1043930E+01  0.7957747E-01            NaN
         13   -1    0    0    0    0  0.00000000000E+00  0.00000000000E+00  0.74505805969E-08  0.10566000000E+00  0.10566000000E+00 0. -1.
     999900   -1    0    0    0    0 -0.00000000000E+00 -0.00000000000E+00 -0.74505805969E-08  0.93827000000E+00  0.93827000000E+00 0.  1.
     999902    2    1    2    0    0  0.56750196710E-02  0.21573329188E-01 -0.10052827747E-01  0.10194621900E+01  0.10191685254E+01 0.  0.
     999903    2    3    3    0    0 -0.64541214716E-01 -0.98343881493E-01 -0.45680247753E-01  0.12784580946E+00  0.20512887112E-01 0.  0.
         14    1    1    2    0    0 -0.56750196710E-02 -0.21573329188E-01  0.10052827747E-01  0.24467810001E-01  0.00000000000E+00 0. -1.
     999901    1    3    3    0    0  0.70216234387E-01  0.11991721068E+00  0.35627420007E-01  0.89161638054E+00  0.88000000000E+00 0.  1.
        -11    1    4    4    0    0 -0.23530573748E-01 -0.53129489558E-01 -0.18129148099E-01  0.60871649340E-01  0.51100000000E-03 0. -1.
         11    1    4    4    0    0 -0.41010640967E-01 -0.45214391935E-01 -0.27551099654E-01  0.66974160120E-01  0.51100000000E-03 0.  1.
</event>
<event>
 8    1  0.1088088E+005  0.1043930E+01  0.7957747E-01            NaN
         13   -1    0    0    0    0  0.00000000000E+00  0.00000000000E+00  0.74505805969E-08  0.10566000000E+00  0.10566000000E+00 0. -1.
     999900   -1    0    0    0    0 -0.00000000000E+00 -0.00000000000E+00 -0.74505805969E-08  0.93827000000E+00  0.93827000000E+00 0.  1.
     999902    2    1    2    0    0 -0.60988663393E-02  0.47365449387E-02 -0.20716231487E-01  0.10218213303E+01  0.10215821248E+01 0.  0.
     999903    2    3    3    0    0 -0.80710208966E-01 -0.66083505937E-01  0.75977911149E-01  0.13056822974E+00  0.19855781167E-01 0.  0.
         14    1    1    2    0    0  0.60988663393E-02 -0.47365449387E-02  0.20716231487E-01  0.22108669693E-01  0.00000000000E+00 0. -1.
     999901    1    3    3    0    0  0.74611342627E-01  0.70820050876E-01 -0.96694142636E-01  0.89125310057E+00  0.88000000000E+00 0.  1.
        -11    1    4    4    0    0 -0.36539601547E-01 -0.40008497257E-01  0.46522776950E-01  0.71417450459E-01  0.51100000000E-03 0. -1.
         11    1    4    4    0    0 -0.44170607420E-01 -0.26075008680E-01  0.29455134199E-01  0.59150779278E-01  0.51100000000E-03 0.  1.
</event>
<event>
 8    1  0.1099713E+005  0.1043930E+01  0.7957747E-01            NaN
         13   -1    0    0    0    0  0.00000000000E+00  0.00000000000E+00  0.74505805969E-08  0.10566000000E+00  0.10566000000E+00 0. -1.
     999900   -1    0    0    0    0 -0.00000000000E+00 -0.00000000000E+00 -0.74505805969E-08  0.93827000000E+00  0.93827000000E+00 0. -1.
     999902    2    1    2    0    0  0.22225839299E-01 -0.59831449572E-02  0.56937829923E-02  0.10202191350E+01  0.10199435662E+01 0.  0.
     999903    2    3    3    0    0 -0.57734442922E-01  0.10567609171E+00 -0.39857309925E-01  0.12840282319E+00  0.19949375705E-01 0.  0.
         14    1    1    2    0    0 -0.22225839299E-01  0.59831449572E-02 -0.56937829923E-02  0.23710865039E-01  0.00000000000E+00 0.  1.
     999901    1    3    3    0    0  0.79960282221E-01 -0.11165923667E+00  0.45551092917E-01  0.89181631177E+00  0.88000000000E+00 0.  1.
        -11    1    4    4    0    0 -0.20029148890E-01  0.20869125853E-01 -0.13469171912E-01  0.31911861934E-01  0.51100000000E-03 0.  1.
         11    1    4    4    0    0 -0.37705294032E-01  0.84806965859E-01 -0.26388138013E-01  0.96490961261E-01  0.51100000000E-03 0. -1.
</event>
<event>
 8    1  0.1088088E+005  0.1043930E+01  0.7957747E-01            NaN
         13   -1    0    0    0    0  0.00000000000E+00  0.00000000000E+00  0.74505805969E-08  0.10566000000E+00  0.10566000000E+00 0.  1.
     999900   -1    0    0    0    0 -0.00000000000E+00 -0.00000000000E+00 -0.74505805969E-08  0.93827000000E+00  0.93827000000E+00 0.  1.
     999902    2    1    2    0    0 -0.17040268822E-01 -0.51416215095E-04 -0.16560200391E-01  0.10201683998E+01  0.10198916366E+01 0.  0.
     999903    2    3    3    0    0  0.81550306878E-01 -0.80385524053E-01 -0.58339225350E-01  0.13004528621E+00  0.19900407561E-01 0.  0.
         14    1    1    2    0    0  0.17040268822E-01  0.51416215095E-04  0.16560200391E-01  0.23761600159E-01  0.00000000000E+00 0.  1.
     999901    1    3    3    0    0 -0.98590575700E-01  0.80334107838E-01  0.41779024959E-01  0.89012311363E+00  0.88000000000E+00 0.  1.
        -11    1    4    4    0    0  0.67510976510E-01 -0.55299230650E-01 -0.40507875176E-01  0.96212711905E-01  0.51100000000E-03 0. -1.
         11    1    4    4    0    0  0.14039330368E-01 -0.25086293403E-01 -0.17831350174E-01  0.33832574302E-01  0.51100000000E-03 0.  1.
</event>
<event>
 8    1  0.1088088E+005  0.1043930E+01  0.7957747E-01            NaN
         13   -1    0    0    0    0  0.00000000000E+00  0.00000000000E+00  0.74505805969E-08  0.10566000000E+00  0.10566000000E+00 0.  1.
     999900   -1    0    0    0    0 -0.00000000000E+00 -0.00000000000E+00 -0.74505805969E-08  0.93827000000E+00  0.93827000000E+00 0.  1.
     999902    2    1    2    0    0  0.21837089474E-01 -0.98069587558E-02 -0.45262269063E-02  0.10195677003E+01  0.10192765934E+01 0.  0.
     999903    2    3    3    0    0  0.57665552158E-01 -0.11064133884E+00  0.38408551398E-01  0.13204606894E+00  0.19852600204E-01 0.  0.
         14    1    1    2    0    0 -0.21837089474E-01  0.98069587558E-02  0.45262269063E-02  0.24362299702E-01  0.00000000000E+00 0.  1.
     999901    1    3    3    0    0 -0.35828462683E-01  0.10083438009E+00 -0.42934778304E-01  0.88752163136E+00  0.88000000000E+00 0.  1.
        -11    1    4    4    0    0  0.54631871187E-01 -0.91978430673E-01  0.28593078511E-01  0.11073616536E+00  0.51100000000E-03 0.  1.
         11    1    4    4    0    0  0.30336809707E-02 -0.18662908169E-01  0.98154728867E-02  0.21309903579E-01  0.51100000000E-03 0. -1.
</event>
<event>
 8    1  0.1088088E+005  0.1043930E+01  0.7957747E-01            NaN
         13   -1    0    0    0    0  0.00000000000E+00  0.00000000000E+00  0.74505805969E-08  0.10566000000E+00  0.10566000000E+00 0. -1.
     999900   -1    0    0    0    0 -0.00000000000E+00 -0.00000000000E+00 -0.74505805969E-08  0.93827000000E+00  0.93827000000E+00 0.  1.
     999902    2    1    2    0    0 -0.21165873383E-01  0.21938753330E-02  0.74560890975E-02  0.10213822607E+01  0.10211333516E+01 0.  0.
     999903    2    3    3    0    0  0.69466956711E-01  0.65021315488E-01  0.87650633808E-01  0.13088085014E+00  0.19842726215E-01 0.  0.
         14    1    1    2    0    0  0.21165873383E-01 -0.21938753330E-02 -0.74560890975E-02  0.22547739347E-01  0.00000000000E+00 0. -1.
     999901    1    3    3    0    0 -0.90632830093E-01 -0.62827440155E-01 -0.80194544710E-01  0.89050141051E+00  0.88000000000E+00 0.  1.
        -11    1    4    4    0    0  0.57010170874E-01  0.53709288646E-01  0.60654669722E-01  0.99066126149E-01  0.51100000000E-03 0.  1.
         11    1    4    4    0    0  0.12456785837E-01  0.11312026842E-01  0.26995964086E-01  0.31814723990E-01  0.51100000000E-03 0. -1.
</event>
<event>
 8    1  0.1088088E+005  0.1043930E+01  0.7957747E-01            NaN
         13   -1    0    0    0    0  0.00000000000E+00  0.00000000000E+00  0.74505805969E-08  0.10566000000E+00  0.10566000000E+00 0. -1.
     999900   -1    0    0    0    0 -0.00000000000E+00 -0.00000000000E+00 -0.74505805969E-08  0.93827000000E+00  0.93827000000E+00 0. -1.
     999902    2    1    2    0    0 -0.69248246049E-02 -0.21727827107E-01  0.75749806675E-02  0.10199001852E+01  0.10196170633E+01 0.  0.
     999903    2    3    3    0    0 -0.12403490117E+00 -0.26716998851E-01 -0.29096346568E-01  0.13137081141E+00  0.17698530206E-01 0.  0.
         14    1    1    2    0    0  0.69248246049E-02  0.21727827107E-01 -0.75749806675E-02  0.24029814787E-01  0.00000000000E+00 0. -1.
     999901    1    3    3    0    0  0.11711007656E+00  0.49891717442E-02  0.36671327236E-01  0.88852937380E+00  0.88000000000E+00 0.  1.
        -11    1    4    4    0    0 -0.83414420413E-01 -0.23030936018E-01 -0.26474164764E-01  0.90496033436E-01  0.51100000000E-03 0.  1.
         11    1    4    4    0    0 -0.40620480757E-01 -0.36860628330E-02 -0.26221818044E-02  0.40874777976E-01  0.51100000000E-03 0. -1.
</event>
<event>
 8    1  0.1088088E+005  0.1043930E+01  0.7957747E-01            NaN
         13   -1    0    0    0    0  0.00000000000E+00  0.00000000000E+00  0.74505805969E-08  0.10566000000E+00  0.10566000000E+00 0.  1.
     999900   -1    0    0    0    0 -0.00000000000E+00 -0.00000000000E+00 -0.74505805969E-08  0.93827000000E+00  0.93827000000E+00 0. -1.
     999902    2    1    2    0    0 -0.17720573328E-01 -0.50136437114E-02  0.14987760321E-01  0.10201857733E+01  0.10199094194E+01 0.  0.
     999903    2    3    3    0    0 -0.10917090702E+00  0.64598494561E-01  0.32674080178E-01  0.13253616943E+00  0.20173949844E-01 0.  0.
         14    1    1    2    0    0  0.17720573328E-01  0.50136437114E-02 -0.14987760321E-01  0.23744226704E-01  0.00000000000E+00 0. -1.
     999901    1    3    3    0    0  0.91450333697E-01 -0.69612138272E-01 -0.17686319857E-01  0.88764960386E+00  0.88000000000E+00 0.  1.
        -11    1    4    4    0    0 -0.70335812366E-01  0.38734980552E-01  0.10867711442E-01  0.81030201114E-01  0.51100000000E-03 0. -1.
         11    1    4    4    0    0 -0.38835094658E-01  0.25863514009E-01  0.21806368736E-01  0.51505968319E-01  0.51100000000E-03 0.  1.
</event>
<event>
 8    1  0.1088088E+005  0.1043930E+01  0.7957747E-01            NaN
         13   -1    0    0    0    0  0.00000000000E+00  0.00000000000E+00  0.74505805969E-08  0.10566000000E+00  0.10566000000E+00 0.  1.
     999900   -1    0    0    0    0 -0.00000000000E+00 -0.00000000000E+00 -0.74505805969E-08  0.93827000000E+00  0.93827000000E+00 0.  1.
     999902    2    1    2    0    0  0.77203568945E-02  0.18011190020E-01  0.11069579176E-01  0.10214235018E+01  0.10211755127E+01 0.  0.
     999903    2    3    3    0    0  0.78168744708E-01 -0.57946905100E-01 -0.84201067567E-01  0.13023939982E+00  0.20106840259E-01 0.  0.
         14    1    1    2    0    0 -0.77203568945E-02 -0.18011190020E-01 -0.11069579176E-01  0.22506498165E-01  0.00000000000E+00 0.  1.
     999901    1    3    3    0    0 -0.70448387813E-01  0.75958095120E-01  0.95270646744E-01  0.89118410202E+00  0.88000000000E+00 0. -1.
        -11    1    4    4    0    0  0.54508492436E-01 -0.30769888793E-01 -0.60852303001E-01  0.87299631760E-01  0.51100000000E-03 0.  1.
         11    1    4    4    0    0  0.23660252272E-01 -0.27177016307E-01 -0.23348764566E-01  0.42939768056E-01  0.51100000000E-03 0. -1.
</event>
<event>
 8    1  0.1088088E+005  0.1043930E+01  0.7957747E-01            NaN
         13   -1    0    0    0    0  0.00000000000E+00  0.00000000000E+00  0.74505805969E-08  0.10566000000E+00  0.10566000000E+00 0. -1.
     999900   -1    0    0    0    0 -0.00000000000E+00 -0.00000000000E+00 -0.74505805969E-08  0.93827000000E+00  0.93827000000E+00 0. -1.
     999902    2    1    2    0    0 -0.92387878551E-02  0.21553378087E-01 -0.18061296367E-02  0.10204105312E+01  0.10201394448E+01 0.  0.
     999903    2    3    3    0    0  0.75725967080E-01  0.10406459471E+00 -0.22729619625E-01  0.13222986103E+00  0.20105685199E-01 0.  0.
         14    1    1    2    0    0  0.92387878551E-02 -0.21553378087E-01  0.18061296367E-02  0.23519468792E-01  0.00000000000E+00 0.  1.
     999901    1    3    3    0    0 -0.84964754935E-01 -0.82511216619E-01  0.20923489989E-01  0.88818067018E+00  0.88000000000E+00 0. -1.
        -11    1    4    4    0    0  0.88277252082E-02  0.20649568209E-01 -0.98521240410E-02  0.24528735570E-01  0.51100000000E-03 0. -1.
         11    1    4    4    0    0  0.66898241872E-01  0.83415026498E-01 -0.12877495584E-01  0.10770112546E+00  0.51100000000E-03 0.  1.
</event>
<event>
 8    1  0.1088088E+005  0.1043930E+01  0.7957747E-01            NaN
         13   -1    0    0    0    0  0.00000000000E+00  0.00000000000E+00  0.74505805969E-08  0.10566000000E+00  0.10566000000E+00 0.  1.
     999900   -1    0    0    0    0 -0.00000000000E+00 -0.00000000000E+00 -0.74505805969E-08  0.93827000000E+00  0.93827000000E+00 0.  1.
     999902    2    1    2    0    0 -0.16588417855E-01 -0.16827026738E-01  0.92748760410E-02  0.10185459940E+01  0.10182296372E+01 0.  0.
     999903    2    3    3    0    0  0.71661861657E-01  0.10172433610E+00 -0.43052034888E-02  0.12611843053E+00  0.20101262916E-01 0.  0.
         14    1    1    2    0    0  0.16588417855E-01  0.16827026738E-01 -0.92748760410E-02  0.25384006014E-01  0.00000000000E+00 0.  1.
     999901    1    3    3    0    0 -0.88250279512E-01 -0.11855136283E+00  0.13580079530E-01  0.89242756346E+00  0.88000000000E+00 0.  1.
        -11    1    4    4    0    0  0.82606291285E-02  0.24578382606E-01 -0.41284403736E-02  0.26260998192E-01  0.51100000000E-03 0. -1.
         11    1    4    4    0    0  0.63401232529E-01  0.77145953490E-01 -0.17676311515E-03  0.99857432333E-01  0.51100000000E-03 0.  1.
</event>
<event>
 8    1  0.1088088E+005  0.1043930E+01  0.7957747E-01            NaN
         13   -1    0    0    0    0  0.00000000000E+00  0.00000000000E+00  0.74505805969E-08  0.10566000000E+00  0.10566000000E+00 0. -1.
     999900   -1    0    0    0    0 -0.00000000000E+00 -0.00000000000E+00 -0.74505805969E-08  0.93827000000E+00  0.93827000000E+00 0.  1.
     999902    2    1    2    0    0 -0.25686135880E-02  0.26261841561E-02 -0.23414746526E-01  0.10202288402E+01  0.10199534997E+01 0.  0.
     999903    2    3    3    0    0  0.13725210600E-01 -0.12293095876E+00 -0.39572512366E-01  0.13102067663E+00  0.17321430132E-01 0.  0.
         14    1    1    2    0    0  0.25686135880E-02 -0.26261841561E-02  0.23414746526E-01  0.23701159758E-01  0.00000000000E+00 0. -1.
     999901    1    3    3    0    0 -0.16293824188E-01  0.12555714291E+00  0.16157765841E-01  0.88920816362E+00  0.88000000000E+00 0. -1.
        -11    1    4    4    0    0  0.82840073681E-02 -0.29310886967E-01 -0.15601734944E-01  0.34226132225E-01  0.51100000000E-03 0. -1.
         11    1    4    4    0    0  0.54412032319E-02 -0.93620071791E-01 -0.23970777422E-01  0.96794544402E-01  0.51100000000E-03 0.  1.
</event>
<event>
 8    1  0.1088088E+005  0.1043930E+01  0.7957747E-01            NaN
         13   -1    0    0    0    0  0.00000000000E+00  0.00000000000E+00  0.74505805969E-08  0.10566000000E+00  0.10566000000E+00 0.  1.
     999900   -1    0    0    0    0 -0.00000000000E+00 -0.00000000000E+00 -0.74505805969E-08  0.93827000000E+00  0.93827000000E+00 0.  1.
     999902    2    1    2    0    0  0.51158875443E-02 -0.12830399250E-01 -0.18870783540E-01  0.10205441513E+01  0.10202761718E+01 0.  0.
     999903    2    3    3    0    0 -0.42700619081E-01 -0.12082772583E+00 -0.26067584172E-01  0.13262431546E+00  0.22068255624E-01 0.  0.
         14    1    1    2    0    0 -0.51158875443E-02  0.12830399250E-01  0.18870783540E-01  0.23385848749E-01  0.00000000000E+00 0.  1.
     999901    1    3    3    0    0  0.47816506625E-01  0.10799732658E+00  0.71968006322E-02  0.88791983579E+00  0.88000000000E+00 0.  1.
        -11    1    4    4    0    0 -0.39572308881E-01 -0.97398751284E-01 -0.28306563672E-01  0.10887610872E+00  0.51100000000E-03 0.  1.
         11    1    4    4    0    0 -0.31283101994E-02 -0.23428974550E-01  0.22389794994E-02  0.23748206740E-01  0.51100000000E-03 0. -1.
</event>
<event>
 8    1  0.1088088E+005  0.1043930E+01  0.7957747E-01            NaN
         13   -1    0    0    0    0  0.00000000000E+00  0.00000000000E+00  0.74505805969E-08  0.10566000000E+00  0.10566000000E+00 0. -1.
     999900   -1    0    0    0    0 -0.00000000000E+00 -0.00000000000E+00 -0.74505805969E-08  0.93827000000E+00  0.93827000000E+00 0.  1.
     999902    2    1    2    0    0 -0.89795424787E-02 -0.32321324612E-02  0.21694616093E-01  0.10202290458E+01  0.10199537100E+01 0.  0.
     999903    2    3    3    0    0  0.77236497630E-01  0.24185091467E-01  0.10218060474E+00  0.13193691810E+00  0.20398018453E-01 0.  0.
         14    1    1    2    0    0  0.89795424787E-02  0.32321324612E-02 -0.21694616093E-01  0.23700954217E-01  0.00000000000E+00 0.  1.
     999901    1    3    3    0    0 -0.86216040108E-01 -0.27417223928E-01 -0.80485988647E-01  0.88829212769E+00  0.88000000000E+00 0.  1.
        -11    1    4    4    0    0  0.27346183807E-01  0.10433401615E-01  0.52976887618E-01  0.60526699735E-01  0.51100000000E-03 0. -1.
         11    1    4    4    0    0  0.49890313822E-01  0.13751689851E-01  0.49203717122E-01  0.71410218363E-01  0.51100000000E-03 0.  1.
</event>
<event>
 8    1  0.1088088E+005  0.1043930E+01  0.7957747E-01            NaN
         13   -1    0    0    0    0  0.00000000000E+00  0.00000000000E+00  0.74505805969E-08  0.10566000000E+00  0.10566000000E+00 0. -1.
     999900   -1    0    0    0    0 -0.00000000000E+00 -0.00000000000E+00 -0.74505805969E-08  0.93827000000E+00  0.93827000000E+00 0.  1.
     999902    2    1    2    0    0 -0.16646516476E-03  0.86246861218E-03  0.22075511393E-01  0.10218370200E+01  0.10215981576E+01 0.  0.
     999903    2    3    3    0    0  0.12307987312E+00  0.42088189959E-01 -0.10706652251E-01  0.13168877938E+00  0.17528015032E-01 0.  0.
         14    1    1    2    0    0  0.16646516476E-03 -0.86246861218E-03 -0.22075511393E-01  0.22092980017E-01  0.00000000000E+00 0.  1.
     999901    1    3    3    0    0 -0.12324633828E+00 -0.41225721347E-01  0.32782163644E-01  0.89014824061E+00  0.88000000000E+00 0.  1.
        -11    1    4    4    0    0  0.85035027854E-01  0.33286231418E-01 -0.48631975810E-03  0.91320462066E-01  0.51100000000E-03 0. -1.
         11    1    4    4    0    0  0.38044845263E-01  0.88019585414E-02 -0.10220332493E-01  0.40368317311E-01  0.51100000000E-03 0.  1.
</event>
<event>
 8    1  0.1088088E+005  0.1043930E+01  0.7957747E-01            NaN
         13   -1    0    0    0    0  0.00000000000E+00  0.00000000000E+00  0.74505805969E-08  0.10566000000E+00  0.10566000000E+00 0. -1.
     999900   -1    0    0    0    0 -0.00000000000E+00 -0.00000000000E+00 -0.74505805969E-08  0.93827000000E+00  0.93827000000E+00 0. -1.
     999902    2    1    2    0    0 -0.23446311820E-01 -0.47515894961E-02 -0.23774306810E-02  0.10198892155E+01  0.10196058320E+01 0.  0.
     999903    2    3    3    0    0 -0.74273379360E-01  0.97925471780E-01  0.41556502117E-01  0.13137576029E+00  0.20657071898E-01 0.  0.
         14    1    1    2    0    0  0.23446311820E-01  0.47515894961E-02  0.23774306810E-02  0.24040784458E-01  0.00000000000E+00 0. -1.
     999901    1    3    3    0    0  0.50827067540E-01 -0.10267706128E+00 -0.43933932798E-01  0.88851345525E+00  0.88000000000E+00 0.  1.
        -11    1    4    4    0    0 -0.13568296172E-01  0.19512441486E-01  0.16968457987E-01  0.29206569829E-01  0.51100000000E-03 0. -1.
         11    1    4    4    0    0 -0.60705083188E-01  0.78413030295E-01  0.24588044130E-01  0.10216919046E+00  0.51100000000E-03 0.  1.
</event>
<event>
 7    1  0.1088088E+005  0.1043930E+01  0.7957747E-01            NaN
         13   -1    0    0    0    0  0.00000000000E+00  0.00000000000E+00  0.74505805969E-08  0.10566000000E+00  0.10566000000E+00 0.  1.
     999900   -1    0    0    0    0 -0.00000000000E+00 -0.00000000000E+00 -0.74505805969E-08  0.93827000000E+00  0.93827000000E+00 0.  1.
     999903    2    1    2    0    0 -0.63582018378E-01 -0.73844599831E-01 -0.22261242059E-01  0.10200915944E+00  0.20361918512E-01 0.  0.
         14    1    1    2    0    0 -0.21129093305E-01  0.43102834257E-01  0.31239623950E-01  0.57273091495E-01  0.00000000000E+00 0.  1.
     999901    1    1    2    0    0  0.84711111683E-01  0.30741765574E-01 -0.89783818901E-02  0.88464774907E+00  0.88000000000E+00 0. -1.
        -11    1    3    3    0    0 -0.16964192686E-01 -0.90813731783E-02 -0.84615418338E-02  0.21026506688E-01  0.51100000000E-03 0.  1.
         11    1    3    3    0    0 -0.46617825691E-01 -0.64763226652E-01 -0.13799700226E-01  0.80982652747E-01  0.51100000000E-03 0. -1.
</event>
<event>
 8    1  0.1088088E+005  0.1043930E+01  0.7957747E-01            NaN
         13   -1    0    0    0    0  0.00000000000E+00  0.00000000000E+00  0.74505805969E-08  0.10566000000E+00  0.10566000000E+00 0.  1.
     999900   -1    0    0    0    0 -0.00000000000E+00 -0.00000000000E+00 -0.74505805969E-08  0.93827000000E+00  0.93827000000E+00 0.  1.
     999902    2    1    2    0    0  0.39075142701E-02 -0.20647726839E-01 -0.12562980790E-01  0.10194468266E+01  0.10191527886E+01 0.  0.
     999903    2    3    3    0    0  0.42499451813E-01  0.31674920627E-01 -0.11799096469E+00  0.13077250110E+00  0.19237341179E-01 0.  0.
         14    1    1    2    0    0 -0.39075142701E-02  0.20647726839E-01  0.12562980790E-01  0.24483173359E-01  0.00000000000E+00 0.  1.
     999901    1    3    3    0    0 -0.38591937543E-01 -0.52322647466E-01  0.10542798390E+00  0.88867432554E+00  0.88000000000E+00 0. -1.
        -11    1    4    4    0    0  0.41924268106E-01  0.28189103634E-01 -0.11634577874E+00  0.12684191410E+00  0.51100000000E-03 0.  1.
         11    1    4    4    0    0  0.57518370641E-03  0.34858169929E-02 -0.16451859449E-02  0.39305870042E-02  0.51100000000E-03 0. -1.
</event>
<event>
 8    1  0.1088088E+005  0.1043930E+01  0.7957747E-01            NaN
         13   -1    0    0    0    0  0.00000000000E+00  0.00000000000E+00  0.74505805969E-08  0.10566000000E+00  0.10566000000E+00 0. -1.
     999900   -1    0    0    0    0 -0.00000000000E+00 -0.00000000000E+00 -0.74505805969E-08  0.93827000000E+00  0.93827000000E+00 0.  1.
     999902    2    1    2    0    0 -0.90332185863E-02  0.15923279889E-01 -0.15758654105E-01  0.10197745646E+01  0.10194884391E+01 0.  0.
     999903    2    3    3    0    0 -0.77693525575E-01  0.14757944588E-01 -0.10448261806E+00  0.13265138400E+00  0.20632289152E-01 0.  0.
         14    1    1    2    0    0  0.90332185863E-02 -0.15923279889E-01  0.15758654105E-01  0.24155435406E-01  0.00000000000E+00 0. -1.
     999901    1    3    3    0    0  0.68660306988E-01  0.11653353008E-02  0.88723963959E-01  0.88712318059E+00  0.88000000000E+00 0. -1.
        -11    1    4    4    0    0 -0.79098357469E-02  0.12184875602E-02 -0.23825871020E-01  0.25139281301E-01  0.51100000000E-03 0.  1.
         11    1    4    4    0    0 -0.69783689828E-01  0.13539457028E-01 -0.80656747044E-01  0.10751210270E+00  0.51100000000E-03 0. -1.
</event>
<event>
 8    1  0.1088088E+005  0.1043930E+01  0.7957747E-01            NaN
         13   -1    0    0    0    0  0.00000000000E+00  0.00000000000E+00  0.74505805969E-08  0.10566000000E+00  0.10566000000E+00 0. -1.
     999900   -1    0    0    0    0 -0.00000000000E+00 -0.00000000000E+00 -0.74505805969E-08  0.93827000000E+00  0.93827000000E+00 0.  1.
     999902    2    1    2    0    0 -0.16225237939E-01  0.14719084796E-01  0.10469058167E-01  0.10196501528E+01  0.10193610366E+01 0.  0.
     999903    2    3    3    0    0  0.30473617353E-01  0.10917585975E-01  0.12537780887E+00  0.13094364582E+00  0.19463000425E-01 0.  0.
         14    1    1    2    0    0  0.16225237939E-01 -0.14719084796E-01 -0.10469058167E-01  0.24279847247E-01  0.00000000000E+00 0. -1.
     999901    1    3    3    0    0 -0.46698855292E-01  0.38014988216E-02 -0.11490875070E+00  0.88870650693E+00  0.88000000000E+00 0.  1.
        -11    1    4    4    0    0  0.27499057232E-02 -0.28933492097E-03  0.46520817919E-01  0.46605721934E-01  0.51100000000E-03 0. -1.
         11    1    4    4    0    0  0.27723711629E-01  0.11206920896E-01  0.78856990950E-01  0.84337923885E-01  0.51100000000E-03 0.  1.
</event>
<event>
 8    1  0.1088088E+005  0.1043930E+01  0.7957747E-01            NaN
         13   -1    0    0    0    0  0.00000000000E+00  0.00000000000E+00  0.74505805969E-08  0.10566000000E+00  0.10566000000E+00 0.  1.
     999900   -1    0    0    0    0 -0.00000000000E+00 -0.00000000000E+00 -0.74505805969E-08  0.93827000000E+00  0.93827000000E+00 0. -1.
     999902    2    1    2    0    0  0.19995470209E-02  0.13919263187E-01  0.19548828640E-01  0.10198488709E+01  0.10195645241E+01 0.  0.
     999903    2    3    3    0    0 -0.10442617606E-01 -0.85709596011E-01 -0.91246599068E-01  0.12723678058E+00  0.20200826209E-01 0.  0.
         14    1    1    2    0    0 -0.19995470209E-02 -0.13919263187E-01 -0.19548828640E-01  0.24081129067E-01  0.00000000000E+00 0. -1.
     999901    1    3    3    0    0  0.12442164627E-01  0.99628859198E-01  0.11079542771E+00  0.89261209035E+00  0.88000000000E+00 0.  1.
        -11    1    4    4    0    0 -0.14992277464E-01 -0.64260355054E-01 -0.60909841572E-01  0.89802180021E-01  0.51100000000E-03 0. -1.
         11    1    4    4    0    0  0.45496598587E-02 -0.21449240957E-01 -0.30336757497E-01  0.37434600557E-01  0.51100000000E-03 0.  1.
</event>
<event>
 8    1  0.1088088E+005  0.1043930E+01  0.7957747E-01            NaN
         13   -1    0    0    0    0  0.00000000000E+00  0.00000000000E+00  0.74505805969E-08  0.10566000000E+00  0.10566000000E+00 0.  1.
     999900   -1    0    0    0    0 -0.00000000000E+00 -0.00000000000E+00 -0.74505805969E-08  0.93827000000E+00  0.93827000000E+00 0. -1.
     999902    2    1    2    0    0  0.20953665305E-01  0.46056152055E-03  0.12108501879E-01  0.10197249587E+01  0.10194376427E+01 0.  0.
     999903    2    3    3    0    0  0.44360125187E-01 -0.80237736629E-02 -0.11981794025E+00  0.12954271194E+00  0.19818520659E-01 0.  0.
         14    1    1    2    0    0 -0.20953665305E-01 -0.46056152055E-03 -0.12108501879E-01  0.24205041301E-01  0.00000000000E+00 0. -1.
     999901    1    3    3    0    0 -0.23406459882E-01  0.84843351834E-02  0.13192644213E+00  0.89018224676E+00  0.88000000000E+00 0.  1.
        -11    1    4    4    0    0  0.29113650333E-01 -0.14512461380E-01 -0.83754891093E-01  0.89851872957E-01  0.51100000000E-03 0. -1.
         11    1    4    4    0    0  0.15246474854E-01  0.64886877171E-02 -0.36063049158E-01  0.39690838985E-01  0.51100000000E-03 0.  1.
</event>
<event>
 8    1  0.1088088E+005  0.1043930E+01  0.7957747E-01            NaN
         13   -1    0    0    0    0  0.00000000000E+00  0.00000000000E+00  0.74505805969E-08  0.10566000000E+00  0.10566000000E+00 0. -1.
     999900   -1    0    0    0    0 -0.00000000000E+00 -0.00000000000E+00 -0.74505805969E-08  0.93827000000E+00  0.93827000000E+00 0. -1.
     999902    2    1    2    0    0 -0.10223474155E-01 -0.16682734769E-01  0.12706761635E-01  0.10205998724E+01  0.10203331832E+01 0.  0.
     999903    2    3    3    0    0  0.67204798796E-01  0.91737590736E-01  0.56742292115E-01  0.12948302686E+00  0.24776924658E-01 0.  0.
         14    1    1    2    0    0  0.10223474155E-01  0.16682734769E-01 -0.12706761635E-01  0.23330127612E-01  0.00000000000E+00 0. -1.
     999901    1    3    3    0    0 -0.77428272951E-01 -0.10842032551E+00 -0.44035530480E-01  0.89111684553E+00  0.88000000000E+00 0.  1.
        -11    1    4    4    0    0  0.36211499641E-01  0.61821429470E-01  0.45800481200E-01  0.85035916218E-01  0.51100000000E-03 0. -1.
         11    1    4    4    0    0  0.30993299156E-01  0.29916161267E-01  0.10941810915E-01  0.44447110644E-01  0.51100000000E-03 0.  1.
</event>
<event>
 8    1  0.1088088E+005  0.1043930E+01  0.7957747E-01            NaN
         13   -1    0    0    0    0  0.00000000000E+00  0.00000000000E+00  0.74505805969E-08  0.10566000000E+00  0.10566000000E+00 0.  1.
     999900   -1    0    0    0    0 -0.00000000000E+00 -0.00000000000E+00 -0.74505805969E-08  0.93827000000E+00  0.93827000000E+00 0. -1.
     999902    2    1    2    0    0  0.35897566363E-02 -0.18529942711E-01  0.68703049168E-02  0.10238440293E+01  0.10236469851E+01 0.  0.
     999903    2    3    3    0    0 -0.54577257182E-01  0.20951032911E-01  0.11925159462E+00  0.13391610906E+00  0.17174360667E-01 0.  0.
         14    1    1    2    0    0 -0.35897566363E-02  0.18529942711E-01 -0.68703049168E-02  0.20085970706E-01  0.00000000000E+00 0. -1.
     999901    1    3    3    0    0  0.58167013818E-01 -0.39480975622E-01 -0.11238128971E+00  0.88992792023E+00  0.88000000000E+00 0. -1.
        -11    1    4    4    0    0 -0.37199620136E-01  0.69888544974E-02  0.64332408225E-01  0.74642988247E-01  0.51100000000E-03 0. -1.
         11    1    4    4    0    0 -0.17377637045E-01  0.13962178414E-01  0.54919186399E-01  0.59273120814E-01  0.51100000000E-03 0.  1.
</event>
<event>
 8    1  0.1088088E+005  0.1043930E+01  0.7957747E-01            NaN
         13   -1    0    0    0    0  0.00000000000E+00  0.00000000000E+00  0.74505805969E-08  0.10566000000E+00  0.10566000000E+00 0.  1.
     999900   -1    0    0    0    0 -0.00000000000E+00 -0.00000000000E+00 -0.74505805969E-08  0.93827000000E+00  0.93827000000E+00 0.  1.
     999902    2    1    2    0    0  0.16972315814E-02 -0.21709890910E-01  0.83955291139E-02  0.10205915153E+01  0.10203246328E+01 0.  0.
     999903    2    3    3    0    0 -0.16467518980E-01  0.12105233491E+00 -0.30172198138E-01  0.12806785688E+00  0.23794273612E-01 0.  0.
         14    1    1    2    0    0 -0.16972315814E-02  0.21709890910E-01 -0.83955291139E-02  0.23338484686E-01  0.00000000000E+00 0. -1.
     999901    1    3    3    0    0  0.18164750562E-01 -0.14276222582E+00  0.38567727252E-01  0.89252365844E+00  0.88000000000E+00 0. -1.
        -11    1    4    4    0    0  0.91137240484E-03  0.73617291991E-01 -0.13389971920E-01  0.74832404403E-01  0.51100000000E-03 0.  1.
         11    1    4    4    0    0 -0.17378891385E-01  0.47435042917E-01 -0.16782226219E-01  0.53235452475E-01  0.51100000000E-03 0. -1.
</event>
<event>
 8    1  0.1088088E+005  0.1043930E+01  0.7957747E-01            NaN
         13   -1    0    0    0    0  0.00000000000E+00  0.00000000000E+00  0.74505805969E-08  0.10566000000E+00  0.10566000000E+00 0.  1.
     999900   -1    0    0    0    0 -0.00000000000E+00 -0.00000000000E+00 -0.74505805969E-08  0.93827000000E+00  0.93827000000E+00 0. -1.
     999902    2    1    2    0    0 -0.56473430761E-02 -0.22971944394E-01 -0.23864463343E-02  0.10201540071E+01  0.10198769045E+01 0.  0.
     999903    2    3    3    0    0 -0.99496411113E-01  0.76052491708E-01 -0.25509124930E-01  0.12934081411E+00  0.19869912427E-01 0.  0.
         14    1    1    2    0    0  0.56473430761E-02  0.22971944394E-01  0.23864463343E-02  0.23775992916E-01  0.00000000000E+00 0.  1.
     999901    1    3    3    0    0  0.93849068037E-01 -0.99024436101E-01  0.23122678595E-01  0.89081319298E+00  0.88000000000E+00 0. -1.
        -11    1    4    4    0    0 -0.74384176344E-01  0.66917304148E-01 -0.21001682553E-01  0.10223630997E+00  0.51100000000E-03 0.  1.
         11    1    4    4    0    0 -0.25112234769E-01  0.91351875597E-02 -0.45074423771E-02  0.27104504139E-01  0.51100000000E-03 0. -1.
</event>
<event>
 8    1  0.1088088E+005  0.1043930E+01  0.7957747E-01            NaN
         13   -1    0    0    0    0  0.00000000000E+00  0.00000000000E+00  0.74505805969E-08  0.10566000000E+00  0.10566000000E+00 0.  1.
     999900   -1    0    0    0    0 -0.00000000000E+00 -0.00000000000E+00 -0.74505805969E-08  0.93827000000E+00  0.93827000000E+00 0.  1.
     999902    2    1    2    0    0 -0.19257070228E-01  0.38112704107E-02  0.14157221451E-01  0.10197269536E+01  0.10194396855E+01 0.  0.
     999903    2    3    3    0    0 -0.12838029152E-01 -0.79031955530E-01 -0.98668560944E-01  0.12864117695E+00  0.20054986928E-01 0.  0.
         14    1    1    2    0    0  0.19257070228E-01 -0.38112704107E-02 -0.14157221451E-01  0.24203046402E-01  0.00000000000E+00 0. -1.
     999901    1    3    3    0    0 -0.64190410763E-02  0.82843225941E-01  0.11282578239E+00  0.89108577665E+00  0.88000000000E+00 0. -1.
        -11    1    4    4    0    0 -0.14190778055E-01 -0.40184884238E-01 -0.61748174428E-01  0.75028669648E-01  0.51100000000E-03 0. -1.
         11    1    4    4    0    0  0.13527489025E-02 -0.38847071293E-01 -0.36920386516E-01  0.53612507301E-01  0.51100000000E-03 0.  1.
</event>
<event>
 8    1  0.1088088E+005  0.1043930E+01  0.7957747E-01            NaN
         13   -1    0    0    0    0  0.00000000000E+00  0.00000000000E+00  0.74505805969E-08  0.10566000000E+00  0.10566000000E+00 0.  1.
     999900   -1    0    0    0    0 -0.00000000000E+00 -0.00000000000E+00 -0.74505805969E-08  0.93827000000E+00  0.93827000000E+00 0.  1.
     999902    2    1    2    0    0  0.11925885238E-01 -0.90935517269E-02  0.17846485329E-01  0.10206187053E+01  0.10203524514E+01 0.  0.
     999903    2    3    3    0    0 -0.64871630566E-01  0.81644609578E-01 -0.70977846647E-01  0.12819445961E+00  0.22842811461E-01 0.  0.
         14    1    1    2    0    0 -0.11925885238E-01  0.90935517269E-02 -0.17846485329E-01  0.23311294694E-01  0.00000000000E+00 0. -1.
     999901    1    3    3    0    0  0.76797515803E-01 -0.90738161305E-01  0.88824331976E-01  0.89242424569E+00  0.88000000000E+00 0. -1.
        -11    1    4    4    0    0 -0.15270644985E-01  0.32781225520E-01 -0.16336519305E-01  0.39685568270E-01  0.51100000000E-03 0.  1.
         11    1    4    4    0    0 -0.49600985580E-01  0.48863384057E-01 -0.54641327342E-01  0.88508891343E-01  0.51100000000E-03 0. -1.
</event>
<event>
 8    1  0.1088088E+005  0.1043930E+01  0.7957747E-01            NaN
         13   -1    0    0    0    0  0.00000000000E+00  0.00000000000E+00  0.74505805969E-08  0.10566000000E+00  0.10566000000E+00 0. -1.
     999900   -1    0    0    0    0 -0.00000000000E+00 -0.00000000000E+00 -0.74505805969E-08  0.93827000000E+00  0.93827000000E+00 0. -1.
     999902    2    1    2    0    0 -0.19766392531E-01  0.14247923996E-01  0.27358047858E-02  0.10194106558E+01  0.10191157378E+01 0.  0.
     999903    2    3    3    0    0 -0.93099138956E-01  0.91329110803E-01 -0.15377381903E-01  0.13281757632E+00  0.19889408018E-01 0.  0.
         14    1    1    2    0    0  0.19766392531E-01 -0.14247923996E-01 -0.27358047858E-02  0.24519344194E-01  0.00000000000E+00 0. -1.
     999901    1    3    3    0    0  0.73332746424E-01 -0.77081186807E-01  0.18113186689E-01  0.88659307948E+00  0.88000000000E+00 0.  1.
        -11    1    4    4    0    0 -0.54101316449E-01  0.50608215619E-01 -0.18457308576E-01  0.76348394158E-01  0.51100000000E-03 0. -1.
         11    1    4    4    0    0 -0.38997822506E-01  0.40720895184E-01  0.30799266736E-02  0.56469182163E-01  0.51100000000E-03 0.  1.
</event>
<event>
 8    1  0.1088088E+005  0.1043930E+01  0.7957747E-01            NaN
         13   -1    0    0    0    0  0.00000000000E+00  0.00000000000E+00  0.74505805969E-08  0.10566000000E+00  0.10566000000E+00 0.  1.
     999900   -1    0    0    0    0 -0.00000000000E+00 -0.00000000000E+00 -0.74505805969E-08  0.93827000000E+00  0.93827000000E+00 0.  1.
     999902    2    1    2    0    0 -0.21527828263E-01  0.11654059643E-01 -0.52063964467E-02  0.10189025938E+01  0.10185951721E+01 0.  0.
     999903    2    3    3    0    0 -0.29037359125E-01  0.92583414632E-01  0.85037408508E-01  0.13056150062E+00  0.20002192568E-01 0.  0.
         14    1    1    2    0    0  0.21527828263E-01 -0.11654059643E-01  0.52063964467E-02  0.25027406175E-01  0.00000000000E+00 0. -1.
     999901    1    3    3    0    0  0.75095308617E-02 -0.80929354989E-01 -0.90243804954E-01  0.88834109321E+00  0.88000000000E+00 0.  1.
        -11    1    4    4    0    0 -0.40442295665E-02  0.26480663115E-01  0.13495942982E-01  0.29999715162E-01  0.51100000000E-03 0. -1.
         11    1    4    4    0    0 -0.24993129558E-01  0.66102751517E-01  0.71541465525E-01  0.10056178545E+00  0.51100000000E-03 0.  1.
</event>
<event>
 8    1  0.1088088E+005  0.1043930E+01  0.7957747E-01            NaN
         13   -1    0    0    0    0  0.00000000000E+00  0.00000000000E+00  0.74505805969E-08  0.10566000000E+00  0.10566000000E+00 0. -1.
     999900   -1    0    0    0    0 -0.00000000000E+00 -0.00000000000E+00 -0.74505805969E-08  0.93827000000E+00  0.93827000000E+00 0. -1.
     999902    2    1    2    0    0 -0.91641705970E-02  0.21015949070E-01  0.57366537246E-02  0.10202960978E+01  0.10200223359E+01 0.  0.
     999903    2    3    3    0    0  0.10090250722E+00 -0.52859084590E-01 -0.55503964863E-01  0.12826324663E+00  0.19883951703E-01 0.  0.
         14    1    1    2    0    0  0.91641705970E-02 -0.21015949070E-01 -0.57366537246E-02  0.23633902217E-01  0.00000000000E+00 0.  1.
     999901    1    3    3    0    0 -0.11006667781E+00  0.73875033660E-01  0.61240618588E-01  0.89203285115E+00  0.88000000000E+00 0.  1.
        -11    1    4    4    0    0  0.19115602083E-01 -0.18655619922E-02 -0.10424276772E-01  0.21858939402E-01  0.51100000000E-03 0. -1.
         11    1    4    4    0    0  0.81786905134E-01 -0.50993522598E-01 -0.45079688092E-01  0.10640430723E+00  0.51100000000E-03 0.  1.
</event>
<event>
 8    1  0.1088088E+005  0.1043930E+01  0.7957747E-01            NaN
         13   -1    0    0    0    0  0.00000000000E+00  0.00000000000E+00  0.74505805969E-08  0.10566000000E+00  0.10566000000E+00 0. -1.
     999900   -1    0    0    0    0 -0.00000000000E+00 -0.00000000000E+00 -0.74505805969E-08  0.93827000000E+00  0.93827000000E+00 0. -1.
     999902    2    1    2    0    0  0.16264191393E-01  0.16622040584E-01 -0.96504013311E-03  0.10206545310E+01  0.10203891043E+01 0.  0.
     999903    2    3    3    0    0 -0.88450024341E-02 -0.67215588892E-03  0.12874702766E+00  0.13062375547E+00  0.20201051981E-01 0.  0.
         14    1    1    2    0    0 -0.16264191393E-01 -0.16622040584E-01  0.96504013311E-03  0.23275469003E-01  0.00000000000E+00 0. -1.
     999901    1    3    3    0    0  0.25109193827E-01  0.17294196473E-01 -0.12971206779E+00  0.89003077552E+00  0.88000000000E+00 0. -1.
        -11    1    4    4    0    0 -0.83156132838E-02 -0.96299563875E-02  0.86408907034E-01  0.87342119393E-01  0.51100000000E-03 0.  1.
         11    1    4    4    0    0 -0.52938915033E-03  0.89578004986E-02  0.42338120627E-01  0.43281636081E-01  0.51100000000E-03 0. -1.
</event>
<event>
 8    1  0.1088088E+005  0.1043930E+01  0.7957747E-01            NaN
         13   -1    0    0    0    0  0.00000000000E+00  0.00000000000E+00  0.74505805969E-08  0.10566000000E+00  0.10566000000E+00 0.  1.
     999900   -1    0    0    0    0 -0.00000000000E+00 -0.00000000000E+00 -0.74505805969E-08  0.93827000000E+00  0.93827000000E+00 0. -1.
     999902    2    1    2    0    0  0.12757372776E-01  0.14997956022E-01 -0.11379520763E-01  0.10211883480E+01  0.10209350906E+01 0.  0.
     999903    2    3    3    0    0 -0.40030951162E-01 -0.11034225070E+00  0.49082236101E-01  0.12869050560E+00  0.19346601545E-01 0.  0.
         14    1    1    2    0    0 -0.12757372776E-01 -0.14997956022E-01  0.11379520763E-01  0.22741652046E-01  0.00000000000E+00 0.  1.
     999901    1    3    3    0    0  0.52788323938E-01  0.12534020672E+00 -0.60461756864E-01  0.89249784235E+00  0.88000000000E+00 0.  1.
        -11    1    4    4    0    0 -0.80796987824E-02 -0.26830101980E-01  0.32534754313E-02  0.28213155231E-01  0.51100000000E-03 0. -1.
         11    1    4    4    0    0 -0.31951252379E-01 -0.83512148715E-01  0.45828760670E-01  0.10047735037E+00  0.51100000000E-03 0.  1.
</event>
<event>
 8    1  0.1088088E+005  0.1043930E+01  0.7957747E-01            NaN
         13   -1    0    0    0    0  0.00000000000E+00  0.00000000000E+00  0.74505805969E-08  0.10566000000E+00  0.10566000000E+00 0.  1.
     999900   -1    0    0    0    0 -0.00000000000E+00 -0.00000000000E+00 -0.74505805969E-08  0.93827000000E+00  0.93827000000E+00 0. -1.
     999902    2    1    2    0    0 -0.19111009559E-01  0.11523130174E-01  0.27381459889E-01  0.10086063881E+01  0.10079876430E+01 0.  0.
     999903    2    3    3    0    0  0.30263200359E-01 -0.85908960500E-01  0.77798322280E-01  0.12042133700E+00  0.12349439887E-01 0.  0.
         14    1    1    2    0    0  0.19111009559E-01 -0.11523130174E-01 -0.27381459889E-01  0.35323611947E-01  0.00000000000E+00 0. -1.
     999901    1    3    3    0    0 -0.49374209918E-01  0.97432090674E-01 -0.50416862391E-01  0.88818505105E+00  0.88000000000E+00 0. -1.
        -11    1    4    4    0    0  0.29617858213E-01 -0.84907761339E-01  0.74167066605E-01  0.11656569114E+00  0.51100000000E-03 0. -1.
         11    1    4    4    0    0  0.64534214591E-03 -0.10011991604E-02  0.36312556751E-02  0.38556458632E-02  0.51100000000E-03 0.  1.
</event>
<event>
 8    1  0.1088088E+005  0.1043930E+01  0.7957747E-01            NaN
         13   -1    0    0    0    0  0.00000000000E+00  0.00000000000E+00  0.74505805969E-08  0.10566000000E+00  0.10566000000E+00 0. -1.
     999900   -1    0    0    0    0 -0.00000000000E+00 -0.00000000000E+00 -0.74505805969E-08  0.93827000000E+00  0.93827000000E+00 0.  1.
     999902    2    1    2    0    0 -0.15584422373E-01 -0.88198465709E-02 -0.15280162670E-01  0.10203896668E+01  0.10201180936E+01 0.  0.
     999903    2    3    3    0    0 -0.22088864107E-01  0.12526724204E+00 -0.19322536774E-01  0.13019980176E+00  0.19970681168E-01 0.  0.
         14    1    1    2    0    0  0.15584422373E-01  0.88198465709E-02  0.15280162670E-01  0.23540333164E-01  0.00000000000E+00 0. -1.
     999901    1    3    3    0    0  0.65044417346E-02 -0.13408708861E+00  0.40423741041E-02  0.89018986507E+00  0.88000000000E+00 0. -1.
        -11    1    4    4    0    0  0.25144242359E-02  0.20937648979E-01 -0.73618121512E-02  0.22341997967E-01  0.51100000000E-03 0.  1.
         11    1    4    4    0    0 -0.24603288343E-01  0.10432959306E+00 -0.11960724623E-01  0.10785780379E+00  0.51100000000E-03 0. -1.
</event>
<event>
 8    1  0.1088088E+005  0.1043930E+01  0.7957747E-01            NaN
         13   -1    0    0    0    0  0.00000000000E+00  0.00000000000E+00  0.74505805969E-08  0.10566000000E+00  0.10566000000E+00 0.  1.
     999900   -1    0    0    0    0 -0.00000000000E+00 -0.00000000000E+00 -0.74505805969E-08  0.93827000000E+00  0.93827000000E+00 0. -1.
     999902    2    1    2    0    0  0.85461181961E-02  0.21716027295E-01  0.67474394111E-02  0.10196369986E+01  0.10193475654E+01 0.  0.
     999903    2    3    3    0    0  0.74483617277E-01 -0.88185104980E-01 -0.52206871231E-01  0.12840098980E+00  0.20900593183E-01 0.  0.
         14    1    1    2    0    0 -0.85461181961E-02 -0.21716027295E-01 -0.67474394111E-02  0.24293001385E-01  0.00000000000E+00 0.  1.
     999901    1    3    3    0    0 -0.65937499081E-01  0.10990113228E+00  0.58954310643E-01  0.89123600881E+00  0.88000000000E+00 0.  1.
        -11    1    4    4    0    0  0.63387775489E-01 -0.63275207584E-01 -0.44766020806E-01  0.10013001406E+00  0.51100000000E-03 0. -1.
         11    1    4    4    0    0  0.11095841788E-01 -0.24909897396E-01 -0.74408504257E-02  0.28270975740E-01  0.51100000000E-03 0.  1.
</event>
<event>
 8    1  0.1088088E+005  0.1043930E+01  0.7957747E-01            NaN
         13   -1    0    0    0    0  0.00000000000E+00  0.00000000000E+00  0.74505805969E-08  0.10566000000E+00  0.10566000000E+00 0.  1.
     999900   -1    0    0    0    0 -0.00000000000E+00 -0.00000000000E+00 -0.74505805969E-08  0.93827000000E+00  0.93827000000E+00 0.  1.
     999902    2    1    2    0    0  0.14597800701E-01 -0.53413370291E-02 -0.17744794337E-01  0.10203396759E+01  0.10200669345E+01 0.  0.
     999903    2    3    3    0    0  0.10699581677E+00 -0.46046787397E-01 -0.62177047243E-01  0.13345267508E+00  0.19370592346E-01 0.  0.
         14    1    1    2    0    0 -0.14597800701E-01  0.53413370291E-02  0.17744794337E-01  0.23590324131E-01  0.00000000000E+00 0.  1.
     999901    1    3    3    0    0 -0.92398016066E-01  0.40705450368E-01  0.44432252906E-01  0.88688700078E+00  0.88000000000E+00 0.  1.
        -11    1    4    4    0    0  0.83805679818E-01 -0.29706209062E-01 -0.40291536098E-01  0.97619259518E-01  0.51100000000E-03 0. -1.
         11    1    4    4    0    0  0.23190136949E-01 -0.16340578336E-01 -0.21885511145E-01  0.35833415566E-01  0.51100000000E-03 0.  1.
</event>
<event>
 8    1  0.1088088E+005  0.1043930E+01  0.7957747E-01            NaN
         13   -1    0    0    0    0  0.00000000000E+00  0.00000000000E+00  0.74505805969E-08  0.10566000000E+00  0.10566000000E+00 0. -1.
     999900   -1    0    0    0    0 -0.00000000000E+00 -0.00000000000E+00 -0.74505805969E-08  0.93827000000E+00  0.93827000000E+00 0.  1.
     999902    2    1    2    0    0  0.14802251958E-01  0.15978122772E-01 -0.83571264966E-02  0.10206008630E+01  0.10203341967E+01 0.  0.
     999903    2    3    3    0    0  0.10758391919E+00  0.76353188367E-01  0.46161614278E-02  0.13357104809E+00  0.20391343731E-01 0.  0.
         14    1    1    2    0    0 -0.14802251958E-01 -0.15978122772E-01  0.83571264966E-02  0.23329137010E-01  0.00000000000E+00 0. -1.
     999901    1    3    3    0    0 -0.92781667235E-01 -0.60375065596E-01 -0.12973287924E-01  0.88702981490E+00  0.88000000000E+00 0. -1.
        -11    1    4    4    0    0  0.69253457620E-01  0.51420839323E-01  0.12528673302E-01  0.87162910029E-01  0.51100000000E-03 0.  1.
         11    1    4    4    0    0  0.38330461573E-01  0.24932349045E-01 -0.79125118745E-02  0.46408138062E-01  0.51100000000E-03 0. -1.
</event>
<event>
 8    1  0.1088088E+005  0.1043930E+01  0.7957747E-01            NaN
         13   -1    0    0    0    0  0.00000000000E+00  0.00000000000E+00  0.74505805969E-08  0.10566000000E+00  0.10566000000E+00 0.  1.
     999900   -1    0    0    0    0 -0.00000000000E+00 -0.00000000000E+00 -0.74505805969E-08  0.93827000000E+00  0.93827000000E+00 0. -1.
     999902    2    1    2    0    0  0.21065796945E-03  0.18186905015E-01  0.14778745145E-01  0.10204945738E+01  0.10202254437E+01 0.  0.
     999903    2    3    3    0    0 -0.35694647136E-01 -0.61594026736E-01  0.10865694380E+00  0.13118736923E+00  0.18326550298E-01 0.  0.
         14    1    1    2    0    0 -0.21065796945E-03 -0.18186905015E-01 -0.14778745145E-01  0.23435426151E-01  0.00000000000E+00 0. -1.
     999901    1    3    3    0    0  0.35905305106E-01  0.79780931751E-01 -0.93878198654E-01  0.88930720462E+00  0.88000000000E+00 0. -1.
        -11    1    4    4    0    0 -0.16915476297E-02 -0.18260147009E-01  0.29865873913E-01  0.35050333062E-01  0.51100000000E-03 0.  1.
         11    1    4    4    0    0 -0.34003099507E-01 -0.43333879727E-01  0.78791069886E-01  0.96137036168E-01  0.51100000000E-03 0. -1.
</event>
<event>
 8    1  0.1088088E+005  0.1043930E+01  0.7957747E-01            NaN
         13   -1    0    0    0    0  0.00000000000E+00  0.00000000000E+00  0.74505805969E-08  0.10566000000E+00  0.10566000000E+00 0. -1.
     999900   -1    0    0    0    0 -0.00000000000E+00 -0.00000000000E+00 -0.74505805969E-08  0.93827000000E+00  0.93827000000E+00 0. -1.
     999902    2    1    2    0    0 -0.35142869774E-02  0.15949519043E-01 -0.17949986441E-01  0.10196619267E+01  0.10193730943E+01 0.  0.
     999903    2    3    3    0    0  0.20113272157E-01  0.69598023821E-01 -0.10883126901E+00  0.13304147170E+00  0.24644663544E-01 0.  0.
         14    1    1    2    0    0  0.35142869774E-02 -0.15949519043E-01  0.17949986441E-01  0.24268073346E-01  0.00000000000E+00 0. -1.
     999901    1    3    3    0    0 -0.23627559134E-01 -0.53648504778E-01  0.90881282573E-01  0.88662045495E+00  0.88000000000E+00 0.  1.
        -11    1    4    4    0    0  0.45729307653E-02  0.51894541632E-01 -0.65236299945E-01  0.83486472548E-01  0.51100000000E-03 0. -1.
         11    1    4    4    0    0  0.15540341392E-01  0.17703482189E-01 -0.43594969069E-01  0.49554999155E-01  0.51100000000E-03 0.  1.
</event>
<event>
 8    1  0.1088088E+005  0.1043930E+01  0.7957747E-01            NaN
         13   -1    0    0    0    0  0.00000000000E+00  0.00000000000E+00  0.74505805969E-08  0.10566000000E+00  0.10566000000E+00 0.  1.
     999900   -1    0    0    0    0 -0.00000000000E+00 -0.00000000000E+00 -0.74505805969E-08  0.93827000000E+00  0.93827000000E+00 0. -1.
     999902    2    1    2    0    0 -0.19518611214E-01  0.54114491153E-02 -0.12307436076E-01  0.10202290939E+01  0.10199537593E+01 0.  0.
     999903    2    3    3    0    0 -0.73311071630E-01  0.54225695462E-01 -0.95165295840E-01  0.13335712778E+00  0.20316267490E-01 0.  0.
         14    1    1    2    0    0  0.19518611214E-01 -0.54114491153E-02  0.12307436076E-01  0.23700906059E-01  0.00000000000E+00 0.  1.
     999901    1    3    3    0    0  0.53792460416E-01 -0.48814246346E-01  0.82857859764E-01  0.88687196616E+00  0.88000000000E+00 0.  1.
        -11    1    4    4    0    0 -0.31509365070E-01  0.12582590134E-01 -0.41399233329E-01  0.53528677387E-01  0.51100000000E-03 0. -1.
         11    1    4    4    0    0 -0.41801706560E-01  0.41643105328E-01 -0.53766062511E-01  0.79828450390E-01  0.51100000000E-03 0.  1.
</event>
<event>
 8    1  0.1088088E+005  0.1043930E+01  0.7957747E-01            NaN
         13   -1    0    0    0    0  0.00000000000E+00  0.00000000000E+00  0.74505805969E-08  0.10566000000E+00  0.10566000000E+00 0.  1.
     999900   -1    0    0    0    0 -0.00000000000E+00 -0.00000000000E+00 -0.74505805969E-08  0.93827000000E+00  0.93827000000E+00 0.  1.
     999902    2    1    2    0    0 -0.34603087961E-02 -0.90209274932E-02  0.20284775183E-01  0.10214617341E+01  0.10212145961E+01 0.  0.
     999903    2    3    3    0    0  0.11429909110E+00 -0.55377060268E-01  0.31071135905E-01  0.13234278090E+00  0.20452264883E-01 0.  0.
         14    1    1    2    0    0  0.34603087961E-02  0.90209274932E-02 -0.20284775183E-01  0.22468265933E-01  0.00000000000E+00 0. -1.
     999901    1    3    3    0    0 -0.11775939990E+00  0.46356132775E-01 -0.10786360721E-01  0.88911895317E+00  0.88000000000E+00 0.  1.
        -11    1    4    4    0    0  0.65500345799E-01 -0.31338552485E-01  0.73126432217E-02  0.72980381223E-01  0.51100000000E-03 0.  1.
         11    1    4    4    0    0  0.48798745301E-01 -0.24038507783E-01  0.23758492683E-01  0.59362399673E-01  0.51100000000E-03 0. -1.
</event>
<event>
 8    1  0.1088088E+005  0.1043930E+01  0.7957747E-01            NaN
         13   -1    0    0    0    0  0.00000000000E+00  0.00000000000E+00  0.74505805969E-08  0.10566000000E+00  0.10566000000E+00 0.  1.
     999900   -1    0    0    0    0 -0.00000000000E+00 -0.00000000000E+00 -0.74505805969E-08  0.93827000000E+00  0.93827000000E+00 0. -1.
     999902    2    1    2    0    0 -0.42390055718E-02  0.16347493924E-01  0.14539831955E-01  0.10216451074E+01  0.10214020310E+01 0.  0.
     999903    2    3    3    0    0  0.47117224961E-01  0.22247819675E-01  0.12152749756E+00  0.13365938855E+00  0.19516688149E-01 0.  0.
         14    1    1    2    0    0  0.42390055718E-02 -0.16347493924E-01 -0.14539831955E-01  0.22284892621E-01  0.00000000000E+00 0. -1.
     999901    1    3    3    0    0 -0.51356230533E-01 -0.59003257508E-02 -0.10698766560E+00  0.88798571883E+00  0.88000000000E+00 0. -1.
        -11    1    4    4    0    0  0.29488072361E-01  0.22755151617E-01  0.71678600940E-01  0.80780110736E-01  0.51100000000E-03 0. -1.
         11    1    4    4    0    0  0.17629152600E-01 -0.50733194195E-03  0.49848896616E-01  0.52879277812E-01  0.51100000000E-03 0.  1.
</event>
<event>
 8    1  0.1088088E+005  0.1043930E+01  0.7957747E-01            NaN
         13   -1    0    0    0    0  0.00000000000E+00  0.00000000000E+00  0.74505805969E-08  0.10566000000E+00  0.10566000000E+00 0.  1.
     999900   -1    0    0    0    0 -0.00000000000E+00 -0.00000000000E+00 -0.74505805969E-08  0.93827000000E+00  0.93827000000E+00 0. -1.
     999902    2    1    2    0    0  0.18874335010E-01 -0.11222992113E-01  0.72151193499E-02  0.10208160643E+01  0.10205543509E+01 0.  0.
     999903    2    3    3    0    0  0.11090685358E+00  0.82054464827E-02  0.71664943375E-01  0.13345975005E+00  0.17549394626E-01 0.  0.
         14    1    1    2    0    0 -0.18874335010E-01  0.11222992113E-01 -0.72151193499E-02  0.23113935651E-01  0.00000000000E+00 0. -1.
     999901    1    3    3    0    0 -0.92032518574E-01 -0.19428438595E-01 -0.64449824025E-01  0.88735631429E+00  0.88000000000E+00 0. -1.
        -11    1    4    4    0    0  0.59801955806E-01  0.12718376304E-01  0.35665515706E-01  0.70783622015E-01  0.51100000000E-03 0.  1.
         11    1    4    4    0    0  0.51104897779E-01 -0.45129298213E-02  0.35999427669E-01  0.62676128040E-01  0.51100000000E-03 0. -1.
</event>
<event>
 8    1  0.1088088E+005  0.1043930E+01  0.7957747E-01            NaN
         13   -1    0    0    0    0  0.00000000000E+00  0.00000000000E+00  0.74505805969E-08  0.10566000000E+00  0.10566000000E+00 0. -1.
     999900   -1    0    0    0    0 -0.00000000000E+00 -0.00000000000E+00 -0.74505805969E-08  0.93827000000E+00  0.93827000000E+00 0.  1.
     999902    2    1    2    0    0 -0.94999141658E-03 -0.23563101731E-01  0.10777884799E-02  0.10203231392E+01  0.10200500108E+01 0.  0.
     999903    2    3    3    0    0  0.79389314570E-01  0.92697524541E-01 -0.36844249871E-01  0.12824185466E+00  0.13891731867E-01 0.  0.
         14    1    1    2    0    0  0.94999141658E-03  0.23563101731E-01 -0.10777884799E-02  0.23606860759E-01  0.00000000000E+00 0.  1.
     999901    1    3    3    0    0 -0.80339305987E-01 -0.11626062627E+00  0.37922038351E-01  0.89208128458E+00  0.88000000000E+00 0. -1.
        -11    1    4    4    0    0  0.62623527298E-01  0.77551560815E-01 -0.25190550787E-01  0.10281427783E+00  0.51100000000E-03 0.  1.
         11    1    4    4    0    0  0.16765787272E-01  0.15145963726E-01 -0.11653699084E-01  0.25427576829E-01  0.51100000000E-03 0. -1.
</event>
<event>
 8    1  0.1088088E+005  0.1043930E+01  0.7957747E-01            NaN
         13   -1    0    0    0    0  0.00000000000E+00  0.00000000000E+00  0.74505805969E-08  0.10566000000E+00  0.10566000000E+00 0. -1.
     999900   -1    0    0    0    0 -0.00000000000E+00 -0.00000000000E+00 -0.74505805969E-08  0.93827000000E+00  0.93827000000E+00 0.  1.
     999902    2    1    2    0    0  0.24347968043E-02 -0.19505030870E-01 -0.11185440100E-01  0.10213138877E+01  0.10210634499E+01 0.  0.
     999903    2    3    3    0    0 -0.12413855167E-01 -0.13061248696E+00 -0.66052189758E-02  0.13419138902E+00  0.27385660817E-01 0.  0.
         14    1    1    2    0    0 -0.24347968043E-02  0.19505030870E-01  0.11185440100E-01  0.22616112287E-01  0.00000000000E+00 0.  1.
     999901    1    3    3    0    0  0.14848651971E-01  0.11110745609E+00 -0.45802211240E-02  0.88712249869E+00  0.88000000000E+00 0. -1.
        -11    1    4    4    0    0 -0.55812864063E-02 -0.11331522342E+00  0.24928331261E-02  0.11348112598E+00  0.51100000000E-03 0. -1.
         11    1    4    4    0    0 -0.68325687604E-02 -0.17297263547E-01 -0.90980521019E-02  0.20710263039E-01  0.51100000000E-03 0.  1.
</event>
<event>
 8    1  0.1088088E+005  0.1043930E+01  0.7957747E-01            NaN
         13   -1    0    0    0    0  0.00000000000E+00  0.00000000000E+00  0.74505805969E-08  0.10566000000E+00  0.10566000000E+00 0.  1.
     999900   -1    0    0    0    0 -0.00000000000E+00 -0.00000000000E+00 -0.74505805969E-08  0.93827000000E+00  0.93827000000E+00 0. -1.
     999902    2    1    2    0    0  0.19017650322E-01 -0.25624146915E-02  0.14590979597E-01  0.10198232856E+01  0.10195383270E+01 0.  0.
     999903    2    3    3    0    0 -0.10134067886E-01 -0.49248870246E-01  0.12017243136E+00  0.13180476624E+00  0.20073180920E-01 0.  0.
         14    1    1    2    0    0 -0.19017650322E-01  0.25624146915E-02 -0.14590979597E-01  0.24106714384E-01  0.00000000000E+00 0. -1.
     999901    1    3    3    0    0  0.29151718208E-01  0.46686455554E-01 -0.10558145176E+00  0.88801851938E+00  0.88000000000E+00 0. -1.
        -11    1    4    4    0    0 -0.11241193866E-01 -0.13374383276E-01  0.29549695007E-01  0.34331969992E-01  0.51100000000E-03 0.  1.
         11    1    4    4    0    0  0.11071259796E-02 -0.35874486969E-01  0.90622736349E-01  0.97472796244E-01  0.51100000000E-03 0. -1.
</event>
<event>
 8    1  0.1088088E+005  0.1043930E+01  0.7957747E-01            NaN
         13   -1    0    0    0    0  0.00000000000E+00  0.00000000000E+00  0.74505805969E-08  0.10566000000E+00  0.10566000000E+00 0.  1.
     999900   -1    0    0    0    0 -0.00000000000E+00 -0.00000000000E+00 -0.74505805969E-08  0.93827000000E+00  0.93827000000E+00 0.  1.
     999902    2    1    2    0    0 -0.10807885250E-01 -0.19993051619E-01  0.65915146661E-02  0.10202660916E+01  0.10199916260E+01 0.  0.
     999903    2    3    3    0    0 -0.44564682365E-01  0.81018986061E-02 -0.12019275717E+00  0.13009582743E+00  0.20663343459E-01 0.  0.
         14    1    1    2    0    0  0.10807885250E-01  0.19993051619E-01 -0.65915146661E-02  0.23663908430E-01  0.00000000000E+00 0.  1.
     999901    1    3    3    0    0  0.33756797115E-01 -0.28094950225E-01  0.12678427183E+00  0.89017026414E+00  0.88000000000E+00 0. -1.
        -11    1    4    4    0    0 -0.19791478097E-01 -0.96809666502E-03 -0.76743654369E-01  0.79262156313E-01  0.51100000000E-03 0.  1.
         11    1    4    4    0    0 -0.24773204268E-01  0.90699952711E-02 -0.43449102799E-01  0.50833671114E-01  0.51100000000E-03 0. -1.
</event>
<event>
 8    1  0.1088088E+005  0.1043930E+01  0.7957747E-01            NaN
         13   -1    0    0    0    0  0.00000000000E+00  0.00000000000E+00  0.74505805969E-08  0.10566000000E+00  0.10566000000E+00 0.  1.
     999900   -1    0    0    0    0 -0.00000000000E+00 -0.00000000000E+00 -0.74505805969E-08  0.93827000000E+00  0.93827000000E+00 0. -1.
     999902    2    1    2    0    0 -0.20646116221E-02  0.24020711484E-01  0.47338082754E-02  0.10193603817E+01  0.10190642383E+01 0.  0.
     999903    2    3    3    0    0 -0.54020987948E-01  0.55783138628E-01  0.10310937402E+00  0.13178724741E+00  0.26576491023E-01 0.  0.
         14    1    1    2    0    0  0.20646116221E-02 -0.24020711484E-01 -0.47338082754E-02  0.24569618274E-01  0.00000000000E+00 0.  1.
     999901    1    3    3    0    0  0.51956376325E-01 -0.31762427144E-01 -0.98375565748E-01  0.88757313431E+00  0.88000000000E+00 0.  1.
        -11    1    4    4    0    0 -0.17773291989E-01  0.13794218862E-01  0.13049467009E-01  0.26013844244E-01  0.51100000000E-03 0. -1.
         11    1    4    4    0    0 -0.36247695959E-01  0.41988919766E-01  0.90059907014E-01  0.10577340317E+00  0.51100000000E-03 0.  1.
</event>
<event>
 8    1  0.1088088E+005  0.1043930E+01  0.7957747E-01            NaN
         13   -1    0    0    0    0  0.00000000000E+00  0.00000000000E+00  0.74505805969E-08  0.10566000000E+00  0.10566000000E+00 0.  1.
     999900   -1    0    0    0    0 -0.00000000000E+00 -0.00000000000E+00 -0.74505805969E-08  0.93827000000E+00  0.93827000000E+00 0. -1.
     999902    2    1    2    0    0 -0.35944567858E-02 -0.22862836101E-01 -0.33863800331E-02  0.10205398960E+01  0.10202718179E+01 0.  0.
     999903    2    3    3    0    0  0.81911667094E-01  0.11980204455E-01  0.97941851011E-01  0.12992620587E+00  0.20860639637E-01 0.  0.
         14    1    1    2    0    0  0.35944567858E-02  0.22862836101E-01  0.33863800331E-02  0.23390103973E-01  0.00000000000E+00 0. -1.
     999901    1    3    3    0    0 -0.85506123880E-01 -0.34843040556E-01 -0.10132823104E+00  0.89061369016E+00  0.88000000000E+00 0. -1.
        -11    1    4    4    0    0  0.46555641209E-01  0.15331727179E-01  0.65588429927E-01  0.81881578197E-01  0.51100000000E-03 0. -1.
         11    1    4    4    0    0  0.35356025885E-01 -0.33515227239E-02  0.32353421084E-01  0.48044627669E-01  0.51100000000E-03 0.  1.
</event>
<event>
 8    1  0.1088088E+005  0.1043930E+01  0.7957747E-01            NaN
         13   -1    0    0    0    0  0.00000000000E+00  0.00000000000E+00  0.74505805969E-08  0.10566000000E+00  0.10566000000E+00 0.  1.
     999900   -1    0    0    0    0 -0.00000000000E+00 -0.00000000000E+00 -0.74505805969E-08  0.93827000000E+00  0.93827000000E+00 0.  1.
     999902    2    1    2    0    0 -0.10527155161E-01 -0.12683760919E-01 -0.18822920940E-01  0.10189099852E+01  0.10186027473E+01 0.  0.
     999903    2    3    3    0    0 -0.39074045696E-01  0.11905576336E+00 -0.21824851211E-01  0.12864079065E+00  0.19263256548E-01 0.  0.
         14    1    1    2    0    0  0.10527155161E-01  0.12683760919E-01  0.18822920940E-01  0.25020014779E-01  0.00000000000E+00 0. -1.
     999901    1    3    3    0    0  0.28546890534E-01 -0.13173952428E+00  0.30019302709E-02  0.89026919457E+00  0.88000000000E+00 0.  1.
        -11    1    4    4    0    0 -0.34451522166E-02  0.30114673287E-01  0.25399988871E-03  0.30316468427E-01  0.51100000000E-03 0.  1.
         11    1    4    4    0    0 -0.35628893479E-01  0.88941090072E-01 -0.22078851100E-01  0.98324322223E-01  0.51100000000E-03 0. -1.
</event>
<event>
 8    1  0.1088088E+005  0.1043930E+01  0.7957747E-01            NaN
         13   -1    0    0    0    0  0.00000000000E+00  0.00000000000E+00  0.74505805969E-08  0.10566000000E+00  0.10566000000E+00 0. -1.
     999900   -1    0    0    0    0 -0.00000000000E+00 -0.00000000000E+00 -0.74505805969E-08  0.93827000000E+00  0.93827000000E+00 0.  1.
     999902    2    1    2    0    0 -0.24966048106E-01  0.16712516197E-01  0.17726485842E-01  0.10090467654E+01  0.10084436200E+01 0.  0.
     999903    2    3    3    0    0 -0.67699333216E-01  0.10105931990E+00 -0.93680395205E-02  0.12356687842E+00  0.19617018630E-01 0.  0.
         14    1    1    2    0    0  0.24966048106E-01 -0.16712516197E-01 -0.17726485842E-01  0.34883234597E-01  0.00000000000E+00 0.  1.
     999901    1    3    3    0    0  0.42733285111E-01 -0.84346803706E-01  0.27094525362E-01  0.88547988699E+00  0.88000000000E+00 0. -1.
        -11    1    4    4    0    0 -0.51958674228E-01  0.86589841376E-01 -0.13188389190E-01  0.10184153960E+00  0.51100000000E-03 0.  1.
         11    1    4    4    0    0 -0.15740658988E-01  0.14469478528E-01  0.38203496693E-02  0.21725338820E-01  0.51100000000E-03 0. -1.
</event>
<event>
 8    1  0.1088088E+005  0.1043930E+01  0.7957747E-01            NaN
         13   -1    0    0    0    0  0.00000000000E+00  0.00000000000E+00  0.74505805969E-08  0.10566000000E+00  0.10566000000E+00 0. -1.
     999900   -1    0    0    0    0 -0.00000000000E+00 -0.00000000000E+00 -0.74505805969E-08  0.93827000000E+00  0.93827000000E+00 0. -1.
     999902    2    1    2    0    0  0.15855994779E-01  0.19613675678E-02 -0.19973139220E-01  0.10183529434E+01  0.10180316948E+01 0.  0.
     999903    2    3    3    0    0 -0.87761491178E-01  0.38327238084E-02 -0.92790139204E-01  0.12928466659E+00  0.19691266504E-01 0.  0.
         14    1    1    2    0    0 -0.15855994779E-01 -0.19613675678E-02  0.19973139220E-01  0.25577056583E-01  0.00000000000E+00 0. -1.
     999901    1    3    3    0    0  0.10361748596E+00 -0.18713562406E-02  0.72816999984E-01  0.88906827683E+00  0.88000000000E+00 0.  1.
        -11    1    4    4    0    0 -0.49569390717E-01  0.86413221563E-02 -0.62870992517E-01  0.80528378636E-01  0.51100000000E-03 0.  1.
         11    1    4    4    0    0 -0.38192100462E-01 -0.48085983479E-02 -0.29919146687E-01  0.48756287956E-01  0.51100000000E-03 0. -1.
</event>
<event>
 8    1  0.1088088E+005  0.1043930E+01  0.7957747E-01            NaN
         13   -1    0    0    0    0  0.00000000000E+00  0.00000000000E+00  0.74505805969E-08  0.10566000000E+00  0.10566000000E+00 0.  1.
     999900   -1    0    0    0    0 -0.00000000000E+00 -0.00000000000E+00 -0.74505805969E-08  0.93827000000E+00  0.93827000000E+00 0. -1.
     999902    2    1    2    0    0  0.11953461151E-01  0.82389458074E-02  0.19323097995E-01  0.10197608548E+01  0.10194744006E+01 0.  0.
     999903    2    3    3    0    0  0.19050707279E-01 -0.11296537974E+00  0.59221136973E-01  0.13052932540E+00  0.20165695118E-01 0.  0.
         14    1    1    2    0    0 -0.11953461151E-01 -0.82389458074E-02 -0.19323097995E-01  0.24169145157E-01  0.00000000000E+00 0. -1.
     999901    1    3    3    0    0 -0.70972461279E-02  0.12120432554E+00 -0.39898038978E-01  0.88923152944E+00  0.88000000000E+00 0. -1.
        -11    1    4    4    0    0  0.15810527548E-01 -0.36529273352E-01  0.19541200958E-01  0.44345013799E-01  0.51100000000E-03 0. -1.
         11    1    4    4    0    0  0.32401797315E-02 -0.76436106384E-01  0.39679936015E-01  0.86184311606E-01  0.51100000000E-03 0.  1.
</event>
<event>
 8    1  0.1088088E+005  0.1043930E+01  0.7957747E-01            NaN
         13   -1    0    0    0    0  0.00000000000E+00  0.00000000000E+00  0.74505805969E-08  0.10566000000E+00  0.10566000000E+00 0. -1.
     999900   -1    0    0    0    0 -0.00000000000E+00 -0.00000000000E+00 -0.74505805969E-08  0.93827000000E+00  0.93827000000E+00 0. -1.
     999902    2    1    2    0    0 -0.15397174328E-01 -0.16701837909E-01  0.84497469454E-03  0.10211981204E+01  0.10209450831E+01 0.  0.
     999903    2    3    3    0    0  0.11640177576E+00  0.43546406979E-01  0.27239126490E-01  0.12895517957E+00  0.21019166613E-01 0.  0.
         14    1    1    2    0    0  0.15397174328E-01  0.16701837909E-01 -0.84497469454E-03  0.22731879576E-01  0.00000000000E+00 0. -1.
     999901    1    3    3    0    0 -0.13179895009E+00 -0.60248244889E-01 -0.26394151796E-01  0.89224294085E+00  0.88000000000E+00 0. -1.
        -11    1    4    4    0    0  0.67056317378E-01  0.14869053553E-01  0.10572113695E-01  0.69495821189E-01  0.51100000000E-03 0.  1.
         11    1    4    4    0    0  0.49345458381E-01  0.28677353427E-01  0.16667012795E-01  0.59459358380E-01  0.51100000000E-03 0. -1.
</event>
<event>
 8    1  0.1088088E+005  0.1043930E+01  0.7957747E-01            NaN
         13   -1    0    0    0    0  0.00000000000E+00  0.00000000000E+00  0.74505805969E-08  0.10566000000E+00  0.10566000000E+00 0. -1.
     999900   -1    0    0    0    0 -0.00000000000E+00 -0.00000000000E+00 -0.74505805969E-08  0.93827000000E+00  0.93827000000E+00 0. -1.
     999902    2    1    2    0    0 -0.89903965407E-02 -0.11211318583E-01 -0.17382567974E-01  0.10213761852E+01  0.10211271405E+01 0.  0.
     999903    2    3    3    0    0  0.12402150060E+00  0.30942250860E-01 -0.16152623018E-01  0.13038202078E+00  0.19995214735E-01 0.  0.
         14    1    1    2    0    0  0.89903965407E-02  0.11211318583E-01  0.17382567974E-01  0.22553814837E-01  0.00000000000E+00 0. -1.
     999901    1    3    3    0    0 -0.13301189714E+00 -0.42153569443E-01 -0.12299449564E-02  0.89099416438E+00  0.88000000000E+00 0. -1.
        -11    1    4    4    0    0  0.67567601645E-01  0.70744857777E-02 -0.54136966170E-02  0.68154224910E-01  0.51100000000E-03 0. -1.
         11    1    4    4    0    0  0.56453898958E-01  0.23867765082E-01 -0.10738926401E-01  0.62227795870E-01  0.51100000000E-03 0.  1.
</event>
<event>
 7    1  0.1088088E+005  0.1043930E+01  0.7957747E-01            NaN
         13   -1    0    0    0    0  0.00000000000E+00  0.00000000000E+00  0.74505805969E-08  0.10566000000E+00  0.10566000000E+00 0.  1.
     999900   -1    0    0    0    0 -0.00000000000E+00 -0.00000000000E+00 -0.74505805969E-08  0.93827000000E+00  0.93827000000E+00 0.  1.
     999903    2    1    2    0    0  0.86701368862E-01  0.36780878535E-01  0.50512384453E-01  0.10876265783E+00  0.20195404579E-01 0.  0.
         14    1    1    2    0    0  0.27628832262E-01  0.17024834767E-01  0.27755420073E-01  0.42703169840E-01  0.00000000000E+00 0.  1.
     999901    1    1    2    0    0 -0.11433020112E+00 -0.53805713302E-01 -0.78267804526E-01  0.89246417233E+00  0.88000000000E+00 0.  1.
        -11    1    3    3    0    0  0.68248659308E-01  0.35359381559E-01  0.34374989253E-01  0.84202531843E-01  0.51100000000E-03 0.  1.
         11    1    3    3    0    0  0.18452709554E-01  0.14214969764E-02  0.16137395199E-01  0.24560125984E-01  0.51100000000E-03 0. -1.
</event>
<event>
 8    1  0.1088088E+005  0.1043930E+01  0.7957747E-01            NaN
         13   -1    0    0    0    0  0.00000000000E+00  0.00000000000E+00  0.74505805969E-08  0.10566000000E+00  0.10566000000E+00 0. -1.
     999900   -1    0    0    0    0 -0.00000000000E+00 -0.00000000000E+00 -0.74505805969E-08  0.93827000000E+00  0.93827000000E+00 0.  1.
     999902    2    1    2    0    0 -0.82105075914E-02  0.21400775961E-01 -0.73977793742E-02  0.10198440542E+01  0.10195595922E+01 0.  0.
     999903    2    3    3    0    0 -0.88394641664E-01 -0.89989951763E-01 -0.17783404289E-01  0.12914474982E+00  0.21220575956E-01 0.  0.
         14    1    1    2    0    0  0.82105075914E-02 -0.21400775961E-01  0.73977793742E-02  0.24085945825E-01  0.00000000000E+00 0. -1.
     999901    1    3    3    0    0  0.80184134073E-01  0.11139072772E+00  0.10385624915E-01  0.89069930436E+00  0.88000000000E+00 0. -1.
        -11    1    4    4    0    0 -0.54986305148E-01 -0.54917625518E-01 -0.51065033914E-03  0.77717187488E-01  0.51100000000E-03 0. -1.
         11    1    4    4    0    0 -0.33408336517E-01 -0.35072326245E-01 -0.17272753950E-01  0.51427562328E-01  0.51100000000E-03 0.  1.
</event>
<event>
 8    1  0.1088088E+005  0.1043930E+01  0.7957747E-01            NaN
         13   -1    0    0    0    0  0.00000000000E+00  0.00000000000E+00  0.74505805969E-08  0.10566000000E+00  0.10566000000E+00 0. -1.
     999900   -1    0    0    0    0 -0.00000000000E+00 -0.00000000000E+00 -0.74505805969E-08  0.93827000000E+00  0.93827000000E+00 0.  1.
     999902    2    1    2    0    0  0.81230238157E-02 -0.21840793730E-01 -0.74490116860E-02  0.10194659128E+01  0.10191723386E+01 0.  0.
     999903    2    3    3    0    0  0.55236592034E-01  0.17605157106E-01  0.11294984469E+00  0.12914487186E+00  0.23658145695E-01 0.  0.
         14    1    1    2    0    0 -0.81230238157E-02  0.21840793730E-01  0.74490116860E-02  0.24464087185E-01  0.00000000000E+00 0. -1.
     999901    1    3    3    0    0 -0.47113568218E-01 -0.39445950836E-01 -0.12039885637E+00  0.89032104095E+00  0.88000000000E+00 0.  1.
        -11    1    4    4    0    0  0.22849528590E-01 -0.17347758076E-02  0.59153331086E-01  0.63438853264E-01  0.51100000000E-03 0. -1.
         11    1    4    4    0    0  0.32387063444E-01  0.19339932913E-01  0.53796513599E-01  0.65706018598E-01  0.51100000000E-03 0.  1.
</event>
<event>
 8    1  0.1088088E+005  0.1043930E+01  0.7957747E-01            NaN
         13   -1    0    0    0    0  0.00000000000E+00  0.00000000000E+00  0.74505805969E-08  0.10566000000E+00  0.10566000000E+00 0.  1.
     999900   -1    0    0    0    0 -0.00000000000E+00 -0.00000000000E+00 -0.74505805969E-08  0.93827000000E+00  0.93827000000E+00 0. -1.
     999902    2    1    2    0    0  0.41011551658E-02 -0.21058214919E-01 -0.12435375966E-01  0.10191326924E+01  0.10188309665E+01 0.  0.
     999903    2    3    3    0    0  0.90804239197E-01 -0.51690293395E-01 -0.77997037659E-01  0.13191564989E+00  0.20022600125E-01 0.  0.
         14    1    1    2    0    0 -0.41011551658E-02  0.21058214919E-01  0.12435375966E-01  0.24797307610E-01  0.00000000000E+00 0. -1.
     999901    1    3    3    0    0 -0.86703084032E-01  0.30632078476E-01  0.65561661694E-01  0.88721704250E+00  0.88000000000E+00 0. -1.
        -11    1    4    4    0    0  0.41683258469E-01 -0.16647022863E-01 -0.23794331319E-01  0.50804022781E-01  0.51100000000E-03 0. -1.
         11    1    4    4    0    0  0.49120980728E-01 -0.35043270532E-01 -0.54202706340E-01  0.81111627113E-01  0.51100000000E-03 0.  1.
</event>
<event>
 8    1  0.1088088E+005  0.1043930E+01  0.7957747E-01            NaN
         13   -1    0    0    0    0  0.00000000000E+00  0.00000000000E+00  0.74505805969E-08  0.10566000000E+00  0.10566000000E+00 0.  1.
     999900   -1    0    0    0    0 -0.00000000000E+00 -0.00000000000E+00 -0.74505805969E-08  0.93827000000E+00  0.93827000000E+00 0.  1.
     999902    2    1    2    0    0  0.38957840034E-02 -0.12520172013E-01 -0.19510328325E-01  0.10204228787E+01  0.10201520801E+01 0.  0.
     999903    2    3    3    0    0  0.57144321430E-01 -0.85887151549E-01  0.77274425343E-01  0.13048725802E+00  0.20334980206E-01 0.  0.
         14    1    1    2    0    0 -0.38957840034E-02  0.12520172013E-01  0.19510328325E-01  0.23507121295E-01  0.00000000000E+00 0.  1.
     999901    1    3    3    0    0 -0.53248537427E-01  0.73366979536E-01 -0.96784753669E-01  0.88993562069E+00  0.88000000000E+00 0.  1.
        -11    1    4    4    0    0  0.47908971931E-01 -0.55190987084E-01  0.53762781426E-01  0.90730438302E-01  0.51100000000E-03 0. -1.
         11    1    4    4    0    0  0.92353494990E-02 -0.30696164465E-01  0.23511643917E-01  0.39756819716E-01  0.51100000000E-03 0.  1.
</event>
<event>
 8    1  0.1088088E+005  0.1043930E+01  0.7957747E-01            NaN
         13   -1    0    0    0    0  0.00000000000E+00  0.00000000000E+00  0.74505805969E-08  0.10566000000E+00  0.10566000000E+00 0. -1.
     999900   -1    0    0    0    0 -0.00000000000E+00 -0.00000000000E+00 -0.74505805969E-08  0.93827000000E+00  0.93827000000E+00 0.  1.
     999902    2    1    2    0    0 -0.46810809252E-02 -0.26644601621E-01 -0.98292997333E-02  0.10151469764E+01  0.10147388439E+01 0.  0.
     999903    2    3    3    0    0 -0.47246426312E-02 -0.12328713080E+00 -0.34302296127E-01  0.12951798642E+00  0.19396453770E-01 0.  0.
         14    1    1    2    0    0  0.46810809252E-02  0.26644601621E-01  0.98292997333E-02  0.28783023598E-01  0.00000000000E+00 0. -1.
     999901    1    3    3    0    0  0.43561705979E-04  0.96642529176E-01  0.24472996393E-01  0.88562898998E+00  0.88000000000E+00 0. -1.
        -11    1    4    4    0    0 -0.11756000488E-01 -0.87822716856E-01 -0.21695411972E-01  0.91224915265E-01  0.51100000000E-03 0. -1.
         11    1    4    4    0    0  0.70313578565E-02 -0.35464413940E-01 -0.12606884155E-01  0.38293071156E-01  0.51100000000E-03 0.  1.
</event>
<event>
 8    1  0.1088088E+005  0.1043930E+01  0.7957747E-01            NaN
         13   -1    0    0    0    0  0.00000000000E+00  0.00000000000E+00  0.74505805969E-08  0.10566000000E+00  0.10566000000E+00 0.  1.
     999900   -1    0    0    0    0 -0.00000000000E+00 -0.00000000000E+00 -0.74505805969E-08  0.93827000000E+00  0.93827000000E+00 0. -1.
     999902    2    1    2    0    0 -0.20246230449E-01 -0.92113120353E-02  0.56706086106E-02  0.10209753944E+01  0.10207173174E+01 0.  0.
     999903    2    3    3    0    0  0.23394896544E-01 -0.12772876458E+00  0.11457578472E-01  0.13193972382E+00  0.20368017368E-01 0.  0.
         14    1    1    2    0    0  0.20246230449E-01  0.92113120353E-02 -0.56706086106E-02  0.22954605612E-01  0.00000000000E+00 0.  1.
     999901    1    3    3    0    0 -0.43641126992E-01  0.11851745255E+00 -0.57869698611E-02  0.88903567057E+00  0.88000000000E+00 0. -1.
        -11    1    4    4    0    0  0.39758433616E-02 -0.44439161669E-01  0.12748287822E-01  0.46405025414E-01  0.51100000000E-03 0.  1.
         11    1    4    4    0    0  0.19419053182E-01 -0.83289602911E-01 -0.12907093506E-02  0.85534698405E-01  0.51100000000E-03 0. -1.
</event>
<event>
 8    1  0.1088088E+005  0.1043930E+01  0.7957747E-01            NaN
         13   -1    0    0    0    0  0.00000000000E+00  0.00000000000E+00  0.74505805969E-08  0.10566000000E+00  0.10566000000E+00 0.  1.
     999900   -1    0    0    0    0 -0.00000000000E+00 -0.00000000000E+00 -0.74505805969E-08  0.93827000000E+00  0.93827000000E+00 0.  1.
     999902    2    1    2    0    0  0.20070429626E-01 -0.12738631764E-01  0.52871142601E-02  0.10195774137E+01  0.10192865416E+01 0.  0.
     999903    2    3    3    0    0 -0.47453557220E-01 -0.11281101880E+00 -0.39526222056E-01  0.13020560920E+00  0.20322706020E-01 0.  0.
         14    1    1    2    0    0 -0.20070429626E-01  0.12738631764E-01 -0.52871142601E-02  0.24352586348E-01  0.00000000000E+00 0. -1.
     999901    1    3    3    0    0  0.67523986847E-01  0.10007238704E+00  0.44813336316E-01  0.88937180445E+00  0.88000000000E+00 0. -1.
        -11    1    4    4    0    0 -0.21451591445E-01 -0.47014239230E-01 -0.27163671776E-01  0.58383522086E-01  0.51100000000E-03 0.  1.
         11    1    4    4    0    0 -0.26001965775E-01 -0.65796779574E-01 -0.12362550280E-01  0.71822087111E-01  0.51100000000E-03 0. -1.
</event>
<event>
 8    1  0.1088088E+005  0.1043930E+01  0.7957747E-01            NaN
         13   -1    0    0    0    0  0.00000000000E+00  0.00000000000E+00  0.74505805969E-08  0.10566000000E+00  0.10566000000E+00 0.  1.
     999900   -1    0    0    0    0 -0.00000000000E+00 -0.00000000000E+00 -0.74505805969E-08  0.93827000000E+00  0.93827000000E+00 0. -1.
     999902    2    1    2    0    0  0.14356817105E-01  0.16816390815E-01 -0.60211026783E-02  0.10210135676E+01  0.10207563580E+01 0.  0.
     999903    2    3    3    0    0  0.71008701621E-01  0.10743928325E+00 -0.31568579453E-01  0.13417952548E+00  0.20545913419E-01 0.  0.
         14    1    1    2    0    0 -0.14356817105E-01 -0.16816390815E-01  0.60211026783E-02  0.22916432421E-01  0.00000000000E+00 0.  1.
     999901    1    3    3    0    0 -0.56651884516E-01 -0.90622892437E-01  0.25547476775E-01  0.88683404210E+00  0.88000000000E+00 0. -1.
        -11    1    4    4    0    0  0.22986085046E-01  0.49265374364E-01 -0.68475806763E-02  0.54795873011E-01  0.51100000000E-03 0.  1.
         11    1    4    4    0    0  0.48022616575E-01  0.58173908888E-01 -0.24720998777E-01  0.79383652471E-01  0.51100000000E-03 0. -1.
</event>
<event>
 8    1  0.1088088E+005  0.1043930E+01  0.7957747E-01            NaN
         13   -1    0    0    0    0  0.00000000000E+00  0.00000000000E+00  0.74505805969E-08  0.10566000000E+00  0.10566000000E+00 0. -1.
     999900   -1    0    0    0    0 -0.00000000000E+00 -0.00000000000E+00 -0.74505805969E-08  0.93827000000E+00  0.93827000000E+00 0.  1.
     999902    2    1    2    0    0  0.19421981655E-01 -0.88775234983E-02  0.72926444792E-02  0.10213643966E+01  0.10211150886E+01 0.  0.
     999903    2    3    3    0    0 -0.70560670375E-02 -0.87440610807E-01 -0.95618401303E-01  0.13149703055E+00  0.21282431159E-01 0.  0.
         14    1    1    2    0    0 -0.19421981655E-01  0.88775234983E-02 -0.72926444792E-02  0.22565603435E-01  0.00000000000E+00 0.  1.
     999901    1    3    3    0    0  0.26478048693E-01  0.78563087309E-01  0.10291104578E+00  0.88986736601E+00  0.88000000000E+00 0.  1.
        -11    1    4    4    0    0 -0.78638359466E-02 -0.54953617802E-01 -0.73808635664E-01  0.92356460764E-01  0.51100000000E-03 0.  1.
         11    1    4    4    0    0  0.80776890909E-03 -0.32486993005E-01 -0.21809765639E-01  0.39140569789E-01  0.51100000000E-03 0. -1.
</event>
<event>
 8    1  0.1088088E+005  0.1043930E+01  0.7957747E-01            NaN
         13   -1    0    0    0    0  0.00000000000E+00  0.00000000000E+00  0.74505805969E-08  0.10566000000E+00  0.10566000000E+00 0.  1.
     999900   -1    0    0    0    0 -0.00000000000E+00 -0.00000000000E+00 -0.74505805969E-08  0.93827000000E+00  0.93827000000E+00 0.  1.
     999902    2    1    2    0    0  0.19599512073E-01  0.50079591268E-02 -0.11773650881E-01  0.10205240310E+01  0.10202555849E+01 0.  0.
     999903    2    3    3    0    0 -0.39049515036E-01  0.10257928075E+00  0.66183616574E-01  0.12977310809E+00  0.20332609674E-01 0.  0.
         14    1    1    2    0    0 -0.19599512073E-01 -0.50079591268E-02  0.11773650881E-01  0.23405968965E-01  0.00000000000E+00 0.  1.
     999901    1    3    3    0    0  0.58649027110E-01 -0.97571321622E-01 -0.77957267455E-01  0.89075092295E+00  0.88000000000E+00 0.  1.
        -11    1    4    4    0    0 -0.53559796103E-02  0.40838279380E-01  0.27089546619E-01  0.49300671774E-01  0.51100000000E-03 0. -1.
         11    1    4    4    0    0 -0.33693535426E-01  0.61741001369E-01  0.39094069955E-01  0.80472436313E-01  0.51100000000E-03 0.  1.
</event>
<event>
 8    1  0.1088088E+005  0.1043930E+01  0.7957747E-01            NaN
         13   -1    0    0    0    0  0.00000000000E+00  0.00000000000E+00  0.74505805969E-08  0.10566000000E+00  0.10566000000E+00 0. -1.
     999900   -1    0    0    0    0 -0.00000000000E+00 -0.00000000000E+00 -0.74505805969E-08  0.93827000000E+00  0.93827000000E+00 0.  1.
     999902    2    1    2    0    0 -0.97453749837E-02  0.18793593467E-01  0.74797907059E-02  0.10214774109E+01  0.10212306215E+01 0.  0.
     999903    2    3    3    0    0  0.70817296593E-01 -0.42235709996E-01  0.99668321229E-01  0.13090812942E+00  0.20105208169E-01 0.  0.
         14    1    1    2    0    0  0.97453749837E-02 -0.18793593467E-01 -0.74797907059E-02  0.22452589115E-01  0.00000000000E+00 0.  1.
     999901    1    3    3    0    0 -0.80562671576E-01  0.61029303463E-01 -0.92188530523E-01  0.89056928147E+00  0.88000000000E+00 0.  1.
        -11    1    4    4    0    0  0.76569076251E-02 -0.12057694952E-01  0.11595751942E-01  0.18404858762E-01  0.51100000000E-03 0. -1.
         11    1    4    4    0    0  0.63160388968E-01 -0.30178015044E-01  0.88072569286E-01  0.11250327066E+00  0.51100000000E-03 0.  1.
</event>
<event>
 8    1  0.1088088E+005  0.1043930E+01  0.7957747E-01            NaN
         13   -1    0    0    0    0  0.00000000000E+00  0.00000000000E+00  0.74505805969E-08  0.10566000000E+00  0.10566000000E+00 0.  1.
     999900   -1    0    0    0    0 -0.00000000000E+00 -0.00000000000E+00 -0.74505805969E-08  0.93827000000E+00  0.93827000000E+00 0.  1.
     999902    2    1    2    0    0  0.10180086103E-01 -0.20384290455E-01  0.60364556618E-02  0.10203589956E+01  0.10200867060E+01 0.  0.
     999903    2    3    3    0    0 -0.95853404507E-01  0.47660718688E-01  0.68797906378E-01  0.12917314290E+00  0.22206522977E-01 0.  0.
         14    1    1    2    0    0 -0.10180086103E-01  0.20384290455E-01 -0.60364556618E-02  0.23571004378E-01  0.00000000000E+00 0. -1.
     999901    1    3    3    0    0  0.10603349061E+00 -0.68045009143E-01 -0.62761450717E-01  0.89118585272E+00  0.88000000000E+00 0. -1.
        -11    1    4    4    0    0 -0.50244002229E-01  0.37029712478E-01  0.41675733658E-01  0.75051897132E-01  0.51100000000E-03 0. -1.
         11    1    4    4    0    0 -0.45609402278E-01  0.10631006209E-01  0.27122172720E-01  0.54121245766E-01  0.51100000000E-03 0.  1.
</event>
<event>
 8    1  0.1088088E+005  0.1043930E+01  0.7957747E-01            NaN
         13   -1    0    0    0    0  0.00000000000E+00  0.00000000000E+00  0.74505805969E-08  0.10566000000E+00  0.10566000000E+00 0. -1.
     999900   -1    0    0    0    0 -0.00000000000E+00 -0.00000000000E+00 -0.74505805969E-08  0.93827000000E+00  0.93827000000E+00 0.  1.
     999902    2    1    2    0    0  0.15258089820E-01  0.12181570869E-01 -0.12522432724E-01  0.10207349295E+01  0.10204713543E+01 0.  0.
     999903    2    3    3    0    0  0.24112255391E-01  0.12554004292E+00  0.28551638189E-01  0.13246941811E+00  0.19779976133E-01 0.  0.
         14    1    1    2    0    0 -0.15258089820E-01 -0.12181570869E-01  0.12522432724E-01  0.23195070491E-01  0.00000000000E+00 0.  1.
     999901    1    3    3    0    0 -0.88541655710E-02 -0.11335847205E+00 -0.41074070913E-01  0.88826551140E+00  0.88000000000E+00 0. -1.
        -11    1    4    4    0    0  0.35507412474E-03  0.32167519429E-01  0.72088078662E-03  0.32181612358E-01  0.51100000000E-03 0. -1.
         11    1    4    4    0    0  0.23757181266E-01  0.93372523490E-01  0.27830757402E-01  0.10028780576E+00  0.51100000000E-03 0.  1.
</event>
<event>
 8    1  0.1088088E+005  0.1043930E+01  0.7957747E-01            NaN
         13   -1    0    0    0    0  0.00000000000E+00  0.00000000000E+00  0.74505805969E-08  0.10566000000E+00  0.10566000000E+00 0.  1.
     999900   -1    0    0    0    0 -0.00000000000E+00 -0.00000000000E+00 -0.74505805969E-08  0.93827000000E+00  0.93827000000E+00 0.  1.
     999902    2    1    2    0    0 -0.13034015496E-01  0.17156897610E-01 -0.20149055071E-01  0.10144303540E+01  0.10140013382E+01 0.  0.
     999903    2    3    3    0    0  0.61369043426E-01 -0.51956202669E-01 -0.94266137227E-01  0.12549516079E+00  0.19932994443E-01 0.  0.
         14    1    1    2    0    0  0.13034015496E-01 -0.17156897610E-01  0.20149055071E-01  0.29499646029E-01  0.00000000000E+00 0. -1.
     999901    1    3    3    0    0 -0.74403058922E-01  0.69113100279E-01  0.74117082156E-01  0.88893519318E+00  0.88000000000E+00 0. -1.
        -11    1    4    4    0    0  0.34042695616E-01 -0.17672430038E-01 -0.36280446519E-01  0.52799165039E-01  0.51100000000E-03 0. -1.
         11    1    4    4    0    0  0.27326347810E-01 -0.34283772631E-01 -0.57985690708E-01  0.72695995752E-01  0.51100000000E-03 0.  1.
</event>
<event>
 8    1  0.1088088E+005  0.1043930E+01  0.7957747E-01            NaN
         13   -1    0    0    0    0  0.00000000000E+00  0.00000000000E+00  0.74505805969E-08  0.10566000000E+00  0.10566000000E+00 0.  1.
     999900   -1    0    0    0    0 -0.00000000000E+00 -0.00000000000E+00 -0.74505805969E-08  0.93827000000E+00  0.93827000000E+00 0. -1.
     999902    2    1    2    0    0  0.23421151743E-01  0.53776992775E-03  0.52896537122E-02  0.10199129231E+01  0.10196301049E+01 0.  0.
     999903    2    3    3    0    0  0.12191249072E+00  0.37035912392E-01 -0.31961977105E-01  0.13288398207E+00  0.20056682417E-01 0.  0.
         14    1    1    2    0    0 -0.23421151743E-01 -0.53776992775E-03 -0.52896537122E-02  0.24017076880E-01  0.00000000000E+00 0.  1.
     999901    1    3    3    0    0 -0.98491338982E-01 -0.36498142464E-01  0.37251630817E-01  0.88702894105E+00  0.88000000000E+00 0.  1.
        -11    1    4    4    0    0  0.58921723421E-01  0.14880399229E-01 -0.53777850913E-02  0.61011289657E-01  0.51100000000E-03 0.  1.
         11    1    4    4    0    0  0.62990767304E-01  0.22155513163E-01 -0.26584192014E-01  0.71872692415E-01  0.51100000000E-03 0. -1.
</event>
<event>
 8    1  0.1088088E+005  0.1043930E+01  0.7957747E-01            NaN
         13   -1    0    0    0    0  0.00000000000E+00  0.00000000000E+00  0.74505805969E-08  0.10566000000E+00  0.10566000000E+00 0. -1.
     999900   -1    0    0    0    0 -0.00000000000E+00 -0.00000000000E+00 -0.74505805969E-08  0.93827000000E+00  0.93827000000E+00 0.  1.
     999902    2    1    2    0    0 -0.18240341876E-02 -0.17450105465E-01  0.13798559638E-01  0.10216088547E+01  0.10213649780E+01 0.  0.
     999903    2    3    3    0    0  0.95456249979E-01  0.58000599126E-01  0.66024007686E-01  0.13150562472E+00  0.21414821588E-01 0.  0.
         14    1    1    2    0    0  0.18240341876E-02  0.17450105465E-01 -0.13798559638E-01  0.22321145346E-01  0.00000000000E+00 0.  1.
     999901    1    3    3    0    0 -0.97280284167E-01 -0.75450704591E-01 -0.52225448048E-01  0.89010322993E+00  0.88000000000E+00 0.  1.
        -11    1    4    4    0    0  0.51116956362E-01  0.18904993228E-01  0.28772769824E-01  0.61631772658E-01  0.51100000000E-03 0. -1.
         11    1    4    4    0    0  0.44339293617E-01  0.39095605899E-01  0.37251237862E-01  0.69873852064E-01  0.51100000000E-03 0.  1.
</event>
<event>
 8    1  0.1088088E+005  0.1043930E+01  0.7957747E-01            NaN
         13   -1    0    0    0    0  0.00000000000E+00  0.00000000000E+00  0.74505805969E-08  0.10566000000E+00  0.10566000000E+00 0.  1.
     999900   -1    0    0    0    0 -0.00000000000E+00 -0.00000000000E+00 -0.74505805969E-08  0.93827000000E+00  0.93827000000E+00 0.  1.
     999902    2    1    2    0    0  0.16191113759E-01  0.48774270485E-02  0.16218426330E-01  0.10204997031E+01  0.10202306922E+01 0.  0.
     999903    2    3    3    0    0 -0.46589273768E-01  0.10097992891E-01 -0.11730874067E+00  0.12820034993E+00  0.20036446640E-01 0.  0.
         14    1    1    2    0    0 -0.16191113759E-01 -0.48774270485E-02 -0.16218426330E-01  0.23430296882E-01  0.00000000000E+00 0. -1.
     999901    1    3    3    0    0  0.62780387527E-01 -0.52205658428E-02  0.13352716700E+00  0.89229935318E+00  0.88000000000E+00 0. -1.
        -11    1    4    4    0    0 -0.32037593974E-01  0.12740784268E-01 -0.61973430503E-01  0.70920393546E-01  0.51100000000E-03 0.  1.
         11    1    4    4    0    0 -0.14551679795E-01 -0.26427913765E-02 -0.55335310170E-01  0.57279956387E-01  0.51100000000E-03 0. -1.
</event>
<event>
 7    1  0.1088088E+005  0.1043930E+01  0.7957747E-01            NaN
         13   -1    0    0    0    0  0.00000000000E+00  0.00000000000E+00  0.74505805969E-08  0.10566000000E+00  0.10566000000E+00 0.  1.
     999900   -1    0    0    0    0 -0.00000000000E+00 -0.00000000000E+00 -0.74505805969E-08  0.93827000000E+00  0.93827000000E+00 0.  1.
     999902    2    1    2    0    0 -0.58417655732E-02 -0.60965964471E-02  0.21484154700E-01  0.10208461611E+01  0.10205851366E+01 0.  0.
         14    1    1    2    0    0  0.58417655732E-02  0.60965964471E-02 -0.21484154700E-01  0.23083838858E-01  0.00000000000E+00 0. -1.
     999901    1    3    3    0    0 -0.32311650720E-01  0.11913480959E+00 -0.11158582913E-01  0.88868535467E+00  0.88000000000E+00 0. -1.
        -11    1    3    3    0    0  0.14446933982E-01 -0.77603739638E-01  0.20563162313E-01  0.81573029076E-01  0.51100000000E-03 0. -1.
         11    1    3    3    0    0  0.12022951165E-01 -0.47627666402E-01  0.12079575300E-01  0.50587777397E-01  0.51100000000E-03 0.  1.
</event>
<event>
 8    1  0.1088088E+005  0.1043930E+01  0.7957747E-01            NaN
         13   -1    0    0    0    0  0.00000000000E+00  0.00000000000E+00  0.74505805969E-08  0.10566000000E+00  0.10566000000E+00 0.  1.
     999900   -1    0    0    0    0 -0.00000000000E+00 -0.00000000000E+00 -0.74505805969E-08  0.93827000000E+00  0.93827000000E+00 0. -1.
     999902    2    1    2    0    0  0.89249427341E-02 -0.72794757375E-02 -0.20378939283E-01  0.10205217421E+01  0.10202532429E+01 0.  0.
     999903    2    3    3    0    0  0.15790117115E-01 -0.15720573918E-01  0.12490992145E+00  0.12854235011E+00  0.20595704683E-01 0.  0.
         14    1    1    2    0    0 -0.89249427341E-02  0.72794757375E-02  0.20378939283E-01  0.23408257861E-01  0.00000000000E+00 0.  1.
     999901    1    3    3    0    0 -0.68651743806E-02  0.84410981803E-02 -0.14528886073E+00  0.89197939203E+00  0.88000000000E+00 0. -1.
        -11    1    4    4    0    0  0.10609274273E-01 -0.15223727552E-01  0.48146857334E-01  0.51601352437E-01  0.51100000000E-03 0. -1.
         11    1    4    4    0    0  0.51808428413E-02 -0.49684636597E-03  0.76763064116E-01  0.76940997669E-01  0.51100000000E-03 0.  1.
</event>
<event>
 8    1  0.1088088E+005  0.1043930E+01  0.7957747E-01            NaN
         13   -1    0    0    0    0  0.00000000000E+00  0.00000000000E+00  0.74505805969E-08  0.10566000000E+00  0.10566000000E+00 0. -1.
     999900   -1    0    0    0    0 -0.00000000000E+00 -0.00000000000E+00 -0.74505805969E-08  0.93827000000E+00  0.93827000000E+00 0. -1.
     999902    2    1    2    0    0  0.76576792585E-02 -0.18821762120E-01 -0.86059035738E-02  0.10218628217E+01  0.10216245230E+01 0.  0.
     999903    2    3    3    0    0  0.39203204370E-01 -0.50317610117E-01 -0.11634936536E+00  0.13417156787E+00  0.19901801035E-01 0.  0.
         14    1    1    2    0    0 -0.76576792585E-02  0.18821762120E-01  0.86059035738E-02  0.22067178280E-01  0.00000000000E+00 0.  1.
     999901    1    3    3    0    0 -0.31545525112E-01  0.31495847997E-01  0.10774346179E+00  0.88769125385E+00  0.88000000000E+00 0.  1.
        -11    1    4    4    0    0  0.25057330861E-01 -0.19979840669E-01 -0.70072640903E-01  0.77055174953E-01  0.51100000000E-03 0. -1.
         11    1    4    4    0    0  0.14145873510E-01 -0.30337769448E-01 -0.46276724461E-01  0.57116392921E-01  0.51100000000E-03 0.  1.
</event>
<event>
 8    1  0.1088088E+005  0.1043930E+01  0.7957747E-01            NaN
         13   -1    0    0    0    0  0.00000000000E+00  0.00000000000E+00  0.74505805969E-08  0.10566000000E+00  0.10566000000E+00 0. -1.
     999900   -1    0    0    0    0 -0.00000000000E+00 -0.00000000000E+00 -0.74505805969E-08  0.93827000000E+00  0.93827000000E+00 0. -1.
     999902    2    1    2    0    0 -0.10949510380E-01  0.16231905564E-01 -0.13550418711E-01  0.10201186501E+01  0.10198407130E+01 0.  0.
     999903    2    3    3    0    0  0.91800055467E-01  0.29163638356E-01  0.83321299363E-01  0.12876640058E+00  0.18988917966E-01 0.  0.
         14    1    1    2    0    0  0.10949510380E-01 -0.16231905564E-01  0.13550418711E-01  0.23811349879E-01  0.00000000000E+00 0. -1.
     999901    1    3    3    0    0 -0.10274956585E+00 -0.12931732792E-01 -0.96871718074E-01  0.89135224954E+00  0.88000000000E+00 0.  1.
        -11    1    4    4    0    0  0.74008169222E-01  0.20770639362E-01  0.75014941099E-01  0.10740638287E+00  0.51100000000E-03 0. -1.
         11    1    4    4    0    0  0.17791886246E-01  0.83929989934E-02  0.83063582638E-02  0.21360017718E-01  0.51100000000E-03 0.  1.
</event>
<event>
 8    1  0.1173455E+005  0.1043930E+01  0.7957747E-01            NaN
         13   -1    0    0    0    0  0.00000000000E+00  0.00000000000E+00  0.74505805969E-08  0.10566000000E+00  0.10566000000E+00 0. -1.
     999900   -1    0    0    0    0 -0.00000000000E+00 -0.00000000000E+00 -0.74505805969E-08  0.93827000000E+00  0.93827000000E+00 0. -1.
     999902    2    1    2    0    0  0.18135632119E-01  0.13603139540E-01  0.68759942403E-02  0.10202397941E+01  0.10199647110E+01 0.  0.
     999903    2    3    3    0    0 -0.42602443603E-01  0.12205000143E+00  0.13256952783E-01  0.13148192365E+00  0.20014454799E-01 0.  0.
         14    1    1    2    0    0 -0.18135632119E-01 -0.13603139540E-01 -0.68759942403E-02  0.23690205877E-01  0.00000000000E+00 0.  1.
     999901    1    3    3    0    0  0.60738075721E-01 -0.10844686189E+00 -0.63809585423E-02  0.88875787047E+00  0.88000000000E+00 0.  1.
        -11    1    4    4    0    0 -0.13325723857E-01  0.51218590040E-01  0.14320758281E-01  0.54829409268E-01  0.51100000000E-03 0. -1.
         11    1    4    4    0    0 -0.29276719745E-01  0.70831411386E-01 -0.10638054987E-02  0.76652514382E-01  0.51100000000E-03 0.  1.
</event>
<event>
 8    1  0.1088088E+005  0.1043930E+01  0.7957747E-01            NaN
         13   -1    0    0    0    0  0.00000000000E+00  0.00000000000E+00  0.74505805969E-08  0.10566000000E+00  0.10566000000E+00 0. -1.
     999900   -1    0    0    0    0 -0.00000000000E+00 -0.00000000000E+00 -0.74505805969E-08  0.93827000000E+00  0.93827000000E+00 0.  1.
     999902    2    1    2    0    0 -0.90947563741E-02  0.21141711482E-01  0.95624467464E-02  0.10190075815E+01  0.10187027654E+01 0.  0.
     999903    2    3    3    0    0  0.11173946098E+00 -0.38116535072E-01 -0.43418297873E-01  0.12720075980E+00  0.18876104384E-01 0.  0.
         14    1    1    2    0    0  0.90947563741E-02 -0.21141711482E-01 -0.95624467464E-02  0.24922418535E-01  0.00000000000E+00 0. -1.
     999901    1    3    3    0    0 -0.12083421736E+00  0.59258246554E-01  0.52980744619E-01  0.89180682167E+00  0.88000000000E+00 0. -1.
        -11    1    4    4    0    0  0.28038607596E-01 -0.18338404772E-01 -0.13778889738E-01  0.36229539452E-01  0.51100000000E-03 0.  1.
         11    1    4    4    0    0  0.83700853387E-01 -0.19778130300E-01 -0.29639408135E-01  0.90971220347E-01  0.51100000000E-03 0. -1.
</event>
<event>
 8    1  0.1088088E+005  0.1043930E+01  0.7957747E-01            NaN
         13   -1    0    0    0    0  0.00000000000E+00  0.00000000000E+00  0.74505805969E-08  0.10566000000E+00  0.10566000000E+00 0.  1.
     999900   -1    0    0    0    0 -0.00000000000E+00 -0.00000000000E+00 -0.74505805969E-08  0.93827000000E+00  0.93827000000E+00 0. -1.
     999902    2    1    2    0    0 -0.16934423584E-01  0.92122014954E-02  0.10297287178E-01  0.10220742575E+01  0.10218405523E+01 0.  0.
     999903    2    3    3    0    0 -0.77496137507E-01 -0.78522712468E-01 -0.69621718352E-01  0.13204494123E+00  0.20425844787E-01 0.  0.
         14    1    1    2    0    0  0.16934423584E-01 -0.92122014954E-02 -0.10297287178E-01  0.21855742534E-01  0.00000000000E+00 0. -1.
     999901    1    3    3    0    0  0.60561713923E-01  0.87734913963E-01  0.79919005530E-01  0.89002931624E+00  0.88000000000E+00 0.  1.
        -11    1    4    4    0    0 -0.67908933821E-01 -0.66721192341E-01 -0.67454529389E-01  0.11667782761E+00  0.51100000000E-03 0.  1.
         11    1    4    4    0    0 -0.95872036855E-02 -0.11801520127E-01 -0.21671889626E-02  0.15367113614E-01  0.51100000000E-03 0. -1.
</event>
<event>
 8    1  0.1088088E+005  0.1043930E+01  0.7957747E-01            NaN
         13   -1    0    0    0    0  0.00000000000E+00  0.00000000000E+00  0.74505805969E-08  0.10566000000E+00  0.10566000000E+00 0. -1.
     999900   -1    0    0    0    0 -0.00000000000E+00 -0.00000000000E+00 -0.74505805969E-08  0.93827000000E+00  0.93827000000E+00 0. -1.
     999902    2    1    2    0    0  0.21283851493E-01  0.99081500233E-02  0.24872233404E-02  0.10203215259E+01  0.10200483597E+01 0.  0.
     999903    2    3    3    0    0  0.74023105553E-01 -0.10460165647E+00 -0.19533553739E-01  0.13106406071E+00  0.19372702376E-01 0.  0.
         14    1    1    2    0    0 -0.21283851493E-01 -0.99081500233E-02 -0.24872233404E-02  0.23608474140E-01  0.00000000000E+00 0.  1.
     999901    1    3    3    0    0 -0.52739254060E-01  0.11450980649E+00  0.22020777079E-01  0.88925746515E+00  0.88000000000E+00 0.  1.
        -11    1    4    4    0    0  0.26879736410E-01 -0.26628432671E-01  0.16674217748E-03  0.37840224364E-01  0.51100000000E-03 0. -1.
         11    1    4    4    0    0  0.47143369144E-01 -0.77973223794E-01 -0.19700295916E-01  0.93223836347E-01  0.51100000000E-03 0.  1.
</event>
<event>
 8    1  0.1088088E+005  0.1043930E+01  0.7957747E-01            NaN
         13   -1    0    0    0    0  0.00000000000E+00  0.00000000000E+00  0.74505805969E-08  0.10566000000E+00  0.10566000000E+00 0.  1.
     999900   -1    0    0    0    0 -0.00000000000E+00 -0.00000000000E+00 -0.74505805969E-08  0.93827000000E+00  0.93827000000E+00 0. -1.
     999902    2    1    2    0    0  0.13095507946E-01 -0.12549923375E-01  0.19088770831E-01  0.10175980028E+01  0.10172572542E+01 0.  0.
     999903    2    3    3    0    0  0.12382566870E+00 -0.28627383273E-01  0.21951439975E-01  0.13050846498E+00  0.19956713476E-01 0.  0.
         14    1    1    2    0    0 -0.13095507946E-01  0.12549923375E-01 -0.19088770831E-01  0.26331997207E-01  0.00000000000E+00 0. -1.
     999901    1    3    3    0    0 -0.11073016076E+00  0.16077459899E-01 -0.28626691434E-02  0.88708953781E+00  0.88000000000E+00 0. -1.
        -11    1    4    4    0    0  0.83672441283E-01 -0.28791098144E-01  0.15545688921E-01  0.89843944302E-01  0.51100000000E-03 0. -1.
         11    1    4    4    0    0  0.40153227418E-01  0.16371487100E-03  0.64057510542E-02  0.40664520681E-01  0.51100000000E-03 0.  1.
</event>
<event>
 8    1  0.1088088E+005  0.1043930E+01  0.7957747E-01            NaN
         13   -1    0    0    0    0  0.00000000000E+00  0.00000000000E+00  0.74505805969E-08  0.10566000000E+00  0.10566000000E+00 0. -1.
     999900   -1    0    0    0    0 -0.00000000000E+00 -0.00000000000E+00 -0.74505805969E-08  0.93827000000E+00  0.93827000000E+00 0.  1.
     999902    2    1    2    0    0 -0.21698274174E-01 -0.29037006329E-02  0.45598357743E-02  0.10215684553E+01  0.10213236853E+01 0.  0.
     999903    2    3    3    0    0  0.10850303535E+00 -0.46538058288E-03  0.68150939555E-01  0.12971524153E+00  0.20208118778E-01 0.  0.
         14    1    1    2    0    0  0.21698274174E-01  0.29037006329E-02 -0.45598357743E-02  0.22361544710E-01  0.00000000000E+00 0.  1.
     999901    1    3    3    0    0 -0.13020130953E+00 -0.24383200500E-02 -0.63591103781E-01  0.89185321376E+00  0.88000000000E+00 0.  1.
        -11    1    4    4    0    0  0.73227283788E-01 -0.34295774474E-02  0.35088337444E-01  0.81273917330E-01  0.51100000000E-03 0.  1.
         11    1    4    4    0    0  0.35275751563E-01  0.29641968646E-02  0.33062602111E-01  0.48441324205E-01  0.51100000000E-03 0. -1.
</event>
<event>
 8    1  0.1088088E+005  0.1043930E+01  0.7957747E-01            NaN
         13   -1    0    0    0    0  0.00000000000E+00  0.00000000000E+00  0.74505805969E-08  0.10566000000E+00  0.10566000000E+00 0.  1.
     999900   -1    0    0    0    0 -0.00000000000E+00 -0.00000000000E+00 -0.74505805969E-08  0.93827000000E+00  0.93827000000E+00 0.  1.
     999902    2    1    2    0    0  0.74652352352E-02 -0.19070361440E-01  0.11909190919E-01  0.10202395536E+01  0.10199644648E+01 0.  0.
     999903    2    3    3    0    0 -0.16962196771E-02 -0.13064291525E+00 -0.13696375573E-01  0.13277799834E+00  0.19286204189E-01 0.  0.
         14    1    1    2    0    0 -0.74652352352E-02  0.19070361440E-01 -0.11909190919E-01  0.23690446406E-01  0.00000000000E+00 0. -1.
     999901    1    3    3    0    0  0.91614549123E-02  0.11157255381E+00  0.25605566492E-01  0.88746155526E+00  0.88000000000E+00 0. -1.
        -11    1    4    4    0    0 -0.41922562682E-03 -0.93355179560E-01 -0.18450468966E-01  0.95163260909E-01  0.51100000000E-03 0. -1.
         11    1    4    4    0    0 -0.12769940503E-02 -0.37287735693E-01  0.47540933927E-02  0.37614737430E-01  0.51100000000E-03 0.  1.
</event>
<event>
 8    1  0.1088088E+005  0.1043930E+01  0.7957747E-01            NaN
         13   -1    0    0    0    0  0.00000000000E+00  0.00000000000E+00  0.74505805969E-08  0.10566000000E+00  0.10566000000E+00 0. -1.
     999900   -1    0    0    0    0 -0.00000000000E+00 -0.00000000000E+00 -0.74505805969E-08  0.93827000000E+00  0.93827000000E+00 0. -1.
     999902    2    1    2    0    0 -0.13719809976E-01  0.18407425921E-01  0.78161914780E-02  0.10196780029E+01  0.10193895576E+01 0.  0.
     999903    2    3    3    0    0  0.60527704321E-01 -0.10351157685E+00  0.38440540404E-01  0.12764953509E+00  0.20939893276E-01 0.  0.
         14    1    1    2    0    0  0.13719809976E-01 -0.18407425921E-01 -0.78161914780E-02  0.24251997114E-01  0.00000000000E+00 0.  1.
     999901    1    3    3    0    0 -0.74247514296E-01  0.12191900277E+00 -0.30624348926E-01  0.89202846780E+00  0.88000000000E+00 0. -1.
        -11    1    4    4    0    0  0.30541014165E-01 -0.64904788736E-01  0.14371784748E-01  0.73158693707E-01  0.51100000000E-03 0. -1.
         11    1    4    4    0    0  0.29986690155E-01 -0.38606788109E-01  0.24068755656E-01  0.54490841381E-01  0.51100000000E-03 0.  1.
</event>
<event>
 8    1  0.1088088E+005  0.1043930E+01  0.7957747E-01            NaN
         13   -1    0    0    0    0  0.00000000000E+00  0.00000000000E+00  0.74505805969E-08  0.10566000000E+00  0.10566000000E+00 0. -1.
     999900   -1    0    0    0    0 -0.00000000000E+00 -0.00000000000E+00 -0.74505805969E-08  0.93827000000E+00  0.93827000000E+00 0.  1.
     999902    2    1    2    0    0 -0.11151877913E-01  0.20513652704E-01 -0.82996517752E-02  0.10191497952E+01  0.10188484905E+01 0.  0.
     999903    2    3    3    0    0  0.15361450247E-01  0.83832794397E-01 -0.98784116259E-01  0.13185068638E+00  0.19036551781E-01 0.  0.
         14    1    1    2    0    0  0.11151877913E-01 -0.20513652704E-01  0.82996517752E-02  0.24780204758E-01  0.00000000000E+00 0.  1.
     999901    1    3    3    0    0 -0.26513328160E-01 -0.63319141693E-01  0.90484464484E-01  0.88729910886E+00  0.88000000000E+00 0. -1.
        -11    1    4    4    0    0  0.63609363039E-02  0.57348409346E-01 -0.77878869071E-01  0.96926162279E-01  0.51100000000E-03 0. -1.
         11    1    4    4    0    0  0.90005139426E-02  0.26484385050E-01 -0.20905247188E-01  0.34924524101E-01  0.51100000000E-03 0.  1.
</event>
<event>
 8    1  0.1088088E+005  0.1043930E+01  0.7957747E-01            NaN
         13   -1    0    0    0    0  0.00000000000E+00  0.00000000000E+00  0.74505805969E-08  0.10566000000E+00  0.10566000000E+00 0.  1.
     999900   -1    0    0    0    0 -0.00000000000E+00 -0.00000000000E+00 -0.74505805969E-08  0.93827000000E+00  0.93827000000E+00 0. -1.
     999902    2    1    2    0    0  0.25902958884E-02 -0.97789305519E-02  0.79625409556E-02  0.10310560273E+01  0.10309756506E+01 0.  0.
     999903    2    3    3    0    0  0.91546896850E-02 -0.13369555271E+00  0.41465502559E-01  0.14171870715E+00  0.20161718612E-01 0.  0.
         14    1    1    2    0    0 -0.25902958884E-02  0.97789305519E-02 -0.79625409556E-02  0.12873972736E-01  0.00000000000E+00 0.  1.
     999901    1    3    3    0    0 -0.65643937966E-02  0.12391662215E+00 -0.33502961604E-01  0.88933732011E+00  0.88000000000E+00 0. -1.
        -11    1    4    4    0    0  0.14705308693E-02 -0.33749717578E-01  0.15477090955E-02  0.33821035201E-01  0.51100000000E-03 0.  1.
         11    1    4    4    0    0  0.76841588157E-02 -0.99945835128E-01  0.39917793464E-01  0.10789767195E+00  0.51100000000E-03 0. -1.
</event>
<event>
 8    1  0.1088088E+005  0.1043930E+01  0.7957747E-01            NaN
         13   -1    0    0    0    0  0.00000000000E+00  0.00000000000E+00  0.74505805969E-08  0.10566000000E+00  0.10566000000E+00 0. -1.
     999900   -1    0    0    0    0 -0.00000000000E+00 -0.00000000000E+00 -0.74505805969E-08  0.93827000000E+00  0.93827000000E+00 0.  1.
     999902    2    1    2    0    0 -0.19925300043E-01 -0.78502414269E-03 -0.16544753363E-01  0.10180193321E+01  0.10176895391E+01 0.  0.
     999903    2    3    3    0    0  0.40163290868E-01 -0.11532487039E+00  0.29821977696E-01  0.12735671988E+00  0.20432035682E-01 0.  0.
         14    1    1    2    0    0  0.19925300043E-01  0.78502414269E-03  0.16544753363E-01  0.25910667852E-01  0.00000000000E+00 0. -1.
     999901    1    3    3    0    0 -0.60088590910E-01  0.11453984625E+00 -0.46366731059E-01  0.89066261226E+00  0.88000000000E+00 0.  1.
        -11    1    4    4    0    0  0.10872887227E-01 -0.62233481411E-01  0.15056847585E-01  0.64947637874E-01  0.51100000000E-03 0.  1.
         11    1    4    4    0    0  0.29290403641E-01 -0.53091388979E-01  0.14765130111E-01  0.62409082010E-01  0.51100000000E-03 0. -1.
</event>
<event>
 8    1  0.1088088E+005  0.1043930E+01  0.7957747E-01            NaN
         13   -1    0    0    0    0  0.00000000000E+00  0.00000000000E+00  0.74505805969E-08  0.10566000000E+00  0.10566000000E+00 0.  1.
     999900   -1    0    0    0    0 -0.00000000000E+00 -0.00000000000E+00 -0.74505805969E-08  0.93827000000E+00  0.93827000000E+00 0. -1.
     999902    2    1    2    0    0 -0.23240201041E-01  0.76367134598E-03 -0.25527408510E-02  0.10205375520E+01  0.10202694195E+01 0.  0.
     999903    2    3    3    0    0 -0.70978171821E-01 -0.22579201456E-02  0.10966567470E+00  0.13212266205E+00  0.19668211413E-01 0.  0.
         14    1    1    2    0    0  0.23240201041E-01 -0.76367134598E-03  0.25527408510E-02  0.23392448016E-01  0.00000000000E+00 0.  1.
     999901    1    3    3    0    0  0.47737970780E-01  0.30215914915E-02 -0.11221841555E+00  0.88841488994E+00  0.88000000000E+00 0. -1.
        -11    1    4    4    0    0 -0.27453673519E-01 -0.10261386014E-01  0.47375475369E-01  0.55710833956E-01  0.51100000000E-03 0. -1.
         11    1    4    4    0    0 -0.43524498302E-01  0.80034658680E-02  0.62290199334E-01  0.76411828092E-01  0.51100000000E-03 0.  1.
</event>
<event>
 8    1  0.1088088E+005  0.1043930E+01  0.7957747E-01            NaN
         13   -1    0    0    0    0  0.00000000000E+00  0.00000000000E+00  0.74505805969E-08  0.10566000000E+00  0.10566000000E+00 0.  1.
     999900   -1    0    0    0    0 -0.00000000000E+00 -0.00000000000E+00 -0.74505805969E-08  0.93827000000E+00  0.93827000000E+00 0.  1.
     999902    2    1    2    0    0  0.46324619578E-02  0.11557359716E-01 -0.16956472269E-01  0.10228930273E+01  0.10226766797E+01 0.  0.
     999903    2    3    3    0    0  0.63263972555E-01  0.91794301652E-01 -0.75402235013E-01  0.13537315258E+00  0.14555732751E-01 0.  0.
         14    1    1    2    0    0 -0.46324619578E-02 -0.11557359716E-01  0.16956472269E-01  0.21036972672E-01  0.00000000000E+00 0.  1.
     999901    1    3    3    0    0 -0.58631510597E-01 -0.80236941936E-01  0.58445762744E-01  0.88751987475E+00  0.88000000000E+00 0. -1.
        -11    1    4    4    0    0  0.17490877014E-01  0.20497480856E-01 -0.11752822892E-01  0.29401827614E-01  0.51100000000E-03 0.  1.
         11    1    4    4    0    0  0.45773095541E-01  0.71296820796E-01 -0.63649412121E-01  0.10597132497E+00  0.51100000000E-03 0. -1.
</event>
<event>
 8    1  0.1088088E+005  0.1043930E+01  0.7957747E-01            NaN
         13   -1    0    0    0    0  0.00000000000E+00  0.00000000000E+00  0.74505805969E-08  0.10566000000E+00  0.10566000000E+00 0.  1.
     999900   -1    0    0    0    0 -0.00000000000E+00 -0.00000000000E+00 -0.74505805969E-08  0.93827000000E+00  0.93827000000E+00 0. -1.
     999902    2    1    2    0    0 -0.32259812650E-02 -0.62080699776E-02 -0.21775737114E-01  0.10210579687E+01  0.10208017661E+01 0.  0.
     999903    2    3    3    0    0  0.65974490255E-02  0.96845835333E-01  0.82245153286E-01  0.12890498138E+00  0.20726476555E-01 0.  0.
         14    1    1    2    0    0  0.32259812650E-02  0.62080699776E-02  0.21775737114E-01  0.22872031279E-01  0.00000000000E+00 0.  1.
     999901    1    3    3    0    0 -0.98234302905E-02 -0.10305390531E+00 -0.10402089040E+00  0.89215298734E+00  0.88000000000E+00 0. -1.
        -11    1    4    4    0    0  0.90574951174E-02  0.67336427552E-01  0.67678589958E-01  0.95900392871E-01  0.51100000000E-03 0.  1.
         11    1    4    4    0    0 -0.24600460919E-02  0.29509407781E-01  0.14566563328E-01  0.33004588508E-01  0.51100000000E-03 0. -1.
</event>
<event>
 8    1  0.1088088E+005  0.1043930E+01  0.7957747E-01            NaN
         13   -1    0    0    0    0  0.00000000000E+00  0.00000000000E+00  0.74505805969E-08  0.10566000000E+00  0.10566000000E+00 0. -1.
     999900   -1    0    0    0    0 -0.00000000000E+00 -0.00000000000E+00 -0.74505805969E-08  0.93827000000E+00  0.93827000000E+00 0.  1.
     999902    2    1    2    0    0  0.22452036456E-01 -0.42006182765E-02 -0.36630566937E-02  0.10207965368E+01  0.10205343759E+01 0.  0.
     999903    2    3    3    0    0  0.10095392749E-01 -0.11930138794E+00  0.50832388625E-01  0.13154368897E+00  0.19623258037E-01 0.  0.
         14    1    1    2    0    0 -0.22452036456E-01  0.42006182765E-02  0.36630566937E-02  0.23133463192E-01  0.00000000000E+00 0. -1.
     999901    1    3    3    0    0  0.12356643707E-01  0.11510076966E+00 -0.54495445319E-01  0.88925284783E+00  0.88000000000E+00 0.  1.
        -11    1    4    4    0    0 -0.20081656965E-02 -0.73783525379E-01  0.25721147289E-01  0.78165720656E-01  0.51100000000E-03 0.  1.
         11    1    4    4    0    0  0.12103558445E-01 -0.45517862563E-01  0.25111241336E-01  0.53377968318E-01  0.51100000000E-03 0. -1.
</event>
<event>
 8    1  0.1088088E+005  0.1043930E+01  0.7957747E-01            NaN
         13   -1    0    0    0    0  0.00000000000E+00  0.00000000000E+00  0.74505805969E-08  0.10566000000E+00  0.10566000000E+00 0. -1.
     999900   -1    0    0    0    0 -0.00000000000E+00 -0.00000000000E+00 -0.74505805969E-08  0.93827000000E+00  0.93827000000E+00 0.  1.
     999902    2    1    2    0    0  0.17051938539E-01  0.13915253708E-01  0.16650551226E-01  0.10163321061E+01  0.10159573348E+01 0.  0.
     999903    2    3    3    0    0 -0.14528680292E-01 -0.82988153003E-01 -0.88571777243E-01  0.12422261495E+00  0.22094846727E-01 0.  0.
         14    1    1    2    0    0 -0.17051938539E-01 -0.13915253708E-01 -0.16650551226E-01  0.27597893938E-01  0.00000000000E+00 0.  1.
     999901    1    3    3    0    0  0.31580618831E-01  0.96903406711E-01  0.10522232847E+00  0.89210949111E+00  0.88000000000E+00 0. -1.
        -11    1    4    4    0    0 -0.71397894813E-03 -0.39948673701E-01 -0.28678598179E-01  0.49184646090E-01  0.51100000000E-03 0. -1.
         11    1    4    4    0    0 -0.13814701344E-01 -0.43039479302E-01 -0.59893179064E-01  0.75037968863E-01  0.51100000000E-03 0.  1.
</event>
<event>
 8    1  0.1088088E+005  0.1043930E+01  0.7957747E-01            NaN
         13   -1    0    0    0    0  0.00000000000E+00  0.00000000000E+00  0.74505805969E-08  0.10566000000E+00  0.10566000000E+00 0. -1.
     999900   -1    0    0    0    0 -0.00000000000E+00 -0.00000000000E+00 -0.74505805969E-08  0.93827000000E+00  0.93827000000E+00 0. -1.
     999902    2    1    2    0    0 -0.10314903202E-01 -0.22020237224E-01  0.38580389854E-02  0.10193094285E+01  0.10190120404E+01 0.  0.
     999903    2    3    3    0    0 -0.10571861962E+00  0.39700613761E-01 -0.60605778334E-01  0.12966516461E+00  0.19683223307E-01 0.  0.
         14    1    1    2    0    0  0.10314903202E-01  0.22020237224E-01 -0.38580389854E-02  0.24620571485E-01  0.00000000000E+00 0. -1.
     999901    1    3    3    0    0  0.95403716414E-01 -0.61720850984E-01  0.64463817319E-01  0.88964426390E+00  0.88000000000E+00 0.  1.
        -11    1    4    4    0    0 -0.58482506734E-01  0.16270162641E-01 -0.23079933875E-01  0.64945101854E-01  0.51100000000E-03 0. -1.
         11    1    4    4    0    0 -0.47236112883E-01  0.23430451120E-01 -0.37525844459E-01  0.64720062757E-01  0.51100000000E-03 0.  1.
</event>
<event>
 8    1  0.1088088E+005  0.1043930E+01  0.7957747E-01            NaN
         13   -1    0    0    0    0  0.00000000000E+00  0.00000000000E+00  0.74505805969E-08  0.10566000000E+00  0.10566000000E+00 0. -1.
     999900   -1    0    0    0    0 -0.00000000000E+00 -0.00000000000E+00 -0.74505805969E-08  0.93827000000E+00  0.93827000000E+00 0. -1.
     999902    2    1    2    0    0  0.70908925754E-02  0.23268965787E-01  0.62558530701E-02  0.10188130491E+01  0.10185033960E+01 0.  0.
     999903    2    3    3    0    0  0.83419090125E-02 -0.95057763996E-01 -0.80312537492E-01  0.12668252820E+00  0.22198948873E-01 0.  0.
         14    1    1    2    0    0 -0.70908925754E-02 -0.23268965787E-01 -0.62558530701E-02  0.25116950929E-01  0.00000000000E+00 0.  1.
     999901    1    3    3    0    0 -0.12510164372E-02  0.11832672978E+00  0.86568390562E-01  0.89213052087E+00  0.88000000000E+00 0.  1.
        -11    1    4    4    0    0  0.57004836586E-02 -0.84738416581E-01 -0.60816919427E-01  0.10446077526E+00  0.51100000000E-03 0.  1.
         11    1    4    4    0    0  0.26414253539E-02 -0.10319347415E-01 -0.19495618065E-01  0.22221752940E-01  0.51100000000E-03 0. -1.
</event>
<event>
 8    1  0.1088088E+005  0.1043930E+01  0.7957747E-01            NaN
         13   -1    0    0    0    0  0.00000000000E+00  0.00000000000E+00  0.74505805969E-08  0.10566000000E+00  0.10566000000E+00 0.  1.
     999900   -1    0    0    0    0 -0.00000000000E+00 -0.00000000000E+00 -0.74505805969E-08  0.93827000000E+00  0.93827000000E+00 0.  1.
     999902    2    1    2    0    0  0.23074865267E-01 -0.39176672470E-02 -0.20512965873E-02  0.10204352061E+01  0.10201646948E+01 0.  0.
     999903    2    3    3    0    0  0.11805048308E+00  0.54889138958E-01  0.19546521831E-01  0.13311053371E+00  0.19687903323E-01 0.  0.
         14    1    1    2    0    0 -0.23074865267E-01  0.39176672470E-02  0.20512965873E-02  0.23494793922E-01  0.00000000000E+00 0. -1.
     999901    1    3    3    0    0 -0.94975617814E-01 -0.58806806205E-01 -0.21597818418E-01  0.88732467237E+00  0.88000000000E+00 0. -1.
        -11    1    4    4    0    0  0.95978983295E-01  0.51473462817E-01  0.12196518731E-01  0.10959242127E+00  0.51100000000E-03 0. -1.
         11    1    4    4    0    0  0.22071499786E-01  0.34156761411E-02  0.73500031002E-02  0.23518112443E-01  0.51100000000E-03 0.  1.
</event>
<event>
 8    1  0.1088088E+005  0.1043930E+01  0.7957747E-01            NaN
         13   -1    0    0    0    0  0.00000000000E+00  0.00000000000E+00  0.74505805969E-08  0.10566000000E+00  0.10566000000E+00 0. -1.
     999900   -1    0    0    0    0 -0.00000000000E+00 -0.00000000000E+00 -0.74505805969E-08  0.93827000000E+00  0.93827000000E+00 0.  1.
     999902    2    1    2    0    0 -0.94326111256E-02  0.94740170826E-02  0.19216070547E-01  0.10205208454E+01  0.10202523253E+01 0.  0.
     999903    2    3    3    0    0  0.34548170596E-01 -0.12237948585E+00  0.16925863069E-01  0.12960844765E+00  0.18481077163E-01 0.  0.
         14    1    1    2    0    0  0.94326111256E-02 -0.94740170826E-02 -0.19216070547E-01  0.23409154611E-01  0.00000000000E+00 0.  1.
     999901    1    3    3    0    0 -0.43980781721E-01  0.13185350293E+00  0.22902074781E-02  0.89091239774E+00  0.88000000000E+00 0. -1.
        -11    1    4    4    0    0  0.16553686251E-01 -0.82587182689E-01  0.17018894998E-01  0.85933527689E-01  0.51100000000E-03 0.  1.
         11    1    4    4    0    0  0.17994484345E-01 -0.39792303160E-01 -0.93031928828E-04  0.43674919960E-01  0.51100000000E-03 0. -1.
</event>
<event>
 8    1  0.1088088E+005  0.1043930E+01  0.7957747E-01            NaN
         13   -1    0    0    0    0  0.00000000000E+00  0.00000000000E+00  0.74505805969E-08  0.10566000000E+00  0.10566000000E+00 0. -1.
     999900   -1    0    0    0    0 -0.00000000000E+00 -0.00000000000E+00 -0.74505805969E-08  0.93827000000E+00  0.93827000000E+00 0. -1.
     999902    2    1    2    0    0 -0.75558656984E-02  0.28846384771E-02 -0.22411951944E-01  0.10201033797E+01  0.10198250818E+01 0.  0.
     999903    2    3    3    0    0  0.42360273464E-01 -0.78346680038E-01  0.89498738776E-01  0.12790712843E+00  0.20435611570E-01 0.  0.
         14    1    1    2    0    0  0.75558656984E-02 -0.28846384771E-02  0.22411951944E-01  0.23826620313E-01  0.00000000000E+00 0. -1.
     999901    1    3    3    0    0 -0.49916139163E-01  0.81231318515E-01 -0.11191069072E+00  0.89219625126E+00  0.88000000000E+00 0. -1.
        -11    1    4    4    0    0  0.67147323671E-02 -0.19866435776E-01  0.10848804759E-01  0.23616108632E-01  0.51100000000E-03 0. -1.
         11    1    4    4    0    0  0.35645541097E-01 -0.58480244261E-01  0.78649934017E-01  0.10429101980E+00  0.51100000000E-03 0.  1.
</event>
<event>
 8    1  0.1088088E+005  0.1043930E+01  0.7957747E-01            NaN
         13   -1    0    0    0    0  0.00000000000E+00  0.00000000000E+00  0.74505805969E-08  0.10566000000E+00  0.10566000000E+00 0.  1.
     999900   -1    0    0    0    0 -0.00000000000E+00 -0.00000000000E+00 -0.74505805969E-08  0.93827000000E+00  0.93827000000E+00 0.  1.
     999902    2    1    2    0    0  0.12371762153E-02  0.17077084093E-01 -0.10905147612E-01  0.10236302549E+01  0.10234289517E+01 0.  0.
     999903    2    3    3    0    0 -0.11505779890E+00  0.13475336705E-01 -0.65467781642E-01  0.13429647345E+00  0.18155730778E-01 0.  0.
         14    1    1    2    0    0 -0.12371762153E-02 -0.17077084093E-01  0.10905147612E-01  0.20299745086E-01  0.00000000000E+00 0.  1.
     999901    1    3    3    0    0  0.11629497512E+00  0.36017473879E-02  0.54562634030E-01  0.88933378146E+00  0.88000000000E+00 0. -1.
        -11    1    4    4    0    0 -0.70138189588E-01  0.39089115411E-02 -0.30567063943E-01  0.76611041941E-01  0.51100000000E-03 0.  1.
         11    1    4    4    0    0 -0.44919609314E-01  0.95664251643E-02 -0.34900717699E-01  0.57685431508E-01  0.51100000000E-03 0. -1.
</event>
<event>
 8    1  0.1088088E+005  0.1043930E+01  0.7957747E-01            NaN
         13   -1    0    0    0    0  0.00000000000E+00  0.00000000000E+00  0.74505805969E-08  0.10566000000E+00  0.10566000000E+00 0.  1.
     999900   -1    0    0    0    0 -0.00000000000E+00 -0.00000000000E+00 -0.74505805969E-08  0.93827000000E+00  0.93827000000E+00 0.  1.
     999902    2    1    2    0    0 -0.10320340774E-01 -0.15064520758E-01 -0.14557176671E-01  0.10205770428E+01  0.10203098253E+01 0.  0.
     999903    2    3    3    0    0 -0.11924408780E+00  0.18527329319E-01 -0.51041779324E-01  0.13247574150E+00  0.19548515107E-01 0.  0.
         14    1    1    2    0    0  0.10320340774E-01  0.15064520758E-01  0.14557176671E-01  0.23352957242E-01  0.00000000000E+00 0.  1.
     999901    1    3    3    0    0  0.10892374703E+00 -0.33591850076E-01  0.36484602654E-01  0.88810130125E+00  0.88000000000E+00 0.  1.
        -11    1    4    4    0    0 -0.73513963129E-01  0.18457551069E-01 -0.24814468885E-01  0.79755896042E-01  0.51100000000E-03 0. -1.
         11    1    4    4    0    0 -0.45730124673E-01  0.69778250185E-04 -0.26227310440E-01  0.52719845462E-01  0.51100000000E-03 0.  1.
</event>
<event>
 8    1  0.1088088E+005  0.1043930E+01  0.7957747E-01            NaN
         13   -1    0    0    0    0  0.00000000000E+00  0.00000000000E+00  0.74505805969E-08  0.10566000000E+00  0.10566000000E+00 0.  1.
     999900   -1    0    0    0    0 -0.00000000000E+00 -0.00000000000E+00 -0.74505805969E-08  0.93827000000E+00  0.93827000000E+00 0. -1.
     999902    2    1    2    0    0 -0.14763678240E-01  0.55669237903E-02  0.18425372820E-01  0.10196719869E+01  0.10193833968E+01 0.  0.
     999903    2    3    3    0    0 -0.80465560203E-01  0.96046592193E-01 -0.29269735641E-01  0.13131500289E+00  0.26215611910E-01 0.  0.
         14    1    1    2    0    0  0.14763678240E-01 -0.55669237903E-02 -0.18425372820E-01  0.24258013092E-01  0.00000000000E+00 0. -1.
     999901    1    3    3    0    0  0.65701881964E-01 -0.90479668403E-01  0.47695108460E-01  0.88835698402E+00  0.88000000000E+00 0. -1.
        -11    1    4    4    0    0 -0.50273146801E-01  0.74099693008E-01 -0.28520182262E-01  0.93977740505E-01  0.51100000000E-03 0. -1.
         11    1    4    4    0    0 -0.30192413402E-01  0.21946899185E-01 -0.74955337927E-03  0.37337262382E-01  0.51100000000E-03 0.  1.
</event>
<event>
 8    1  0.1088088E+005  0.1043930E+01  0.7957747E-01            NaN
         13   -1    0    0    0    0  0.00000000000E+00  0.00000000000E+00  0.74505805969E-08  0.10566000000E+00  0.10566000000E+00 0.  1.
     999900   -1    0    0    0    0 -0.00000000000E+00 -0.00000000000E+00 -0.74505805969E-08  0.93827000000E+00  0.93827000000E+00 0.  1.
     999902    2    1    2    0    0 -0.62383000070E-02 -0.19166744595E-01  0.12586657360E-01  0.10201664896E+01  0.10198896813E+01 0.  0.
     999903    2    3    3    0    0 -0.69218908943E-01 -0.26543212981E-01 -0.10504019163E+00  0.13007826640E+00  0.19776602862E-01 0.  0.
         14    1    1    2    0    0  0.62383000070E-02  0.19166744595E-01 -0.12586657360E-01  0.23763510449E-01  0.00000000000E+00 0.  1.
     999901    1    3    3    0    0  0.62980608936E-01  0.73764683857E-02  0.11762684899E+00  0.89008822315E+00  0.88000000000E+00 0. -1.
        -11    1    4    4    0    0 -0.22209101824E-01  0.52728975692E-03 -0.35489676248E-01  0.41872431020E-01  0.51100000000E-03 0.  1.
         11    1    4    4    0    0 -0.47009807118E-01 -0.27070502737E-01 -0.69550515385E-01  0.88205835380E-01  0.51100000000E-03 0. -1.
</event>
<event>
 8    1  0.1088088E+005  0.1043930E+01  0.7957747E-01            NaN
         13   -1    0    0    0    0  0.00000000000E+00  0.00000000000E+00  0.74505805969E-08  0.10566000000E+00  0.10566000000E+00 0.  1.
     999900   -1    0    0    0    0 -0.00000000000E+00 -0.00000000000E+00 -0.74505805969E-08  0.93827000000E+00  0.93827000000E+00 0.  1.
     999902    2    1    2    0    0 -0.13510872521E-01  0.14531775868E-01  0.13400757567E-01  0.10199863894E+01  0.10197053192E+01 0.  0.
     999903    2    3    3    0    0 -0.12296162240E+00  0.64898356271E-02  0.44978817030E-01  0.13260748875E+00  0.19999338494E-01 0.  0.
         14    1    1    2    0    0  0.13510872521E-01 -0.14531775868E-01 -0.13400757567E-01  0.23943610620E-01  0.00000000000E+00 0. -1.
     999901    1    3    3    0    0  0.10945074988E+00  0.80419402405E-02 -0.31578059463E-01  0.88737890063E+00  0.88000000000E+00 0.  1.
        -11    1    4    4    0    0 -0.10610836125E+00  0.11376205758E-01  0.42540837737E-01  0.11488423034E+00  0.51100000000E-03 0. -1.
         11    1    4    4    0    0 -0.16853261153E-01 -0.48863701305E-02  0.24379792934E-02  0.17723258407E-01  0.51100000000E-03 0.  1.
</event>
<event>
 8    1  0.1088088E+005  0.1043930E+01  0.7957747E-01            NaN
         13   -1    0    0    0    0  0.00000000000E+00  0.00000000000E+00  0.74505805969E-08  0.10566000000E+00  0.10566000000E+00 0.  1.
     999900   -1    0    0    0    0 -0.00000000000E+00 -0.00000000000E+00 -0.74505805969E-08  0.93827000000E+00  0.93827000000E+00 0. -1.
     999902    2    1    2    0    0  0.15893342435E-01  0.10209548220E-01  0.17140149981E-01  0.10184227863E+01  0.10181033119E+01 0.  0.
     999903    2    3    3    0    0  0.10725776834E+00  0.91246401091E-02  0.73644200013E-01  0.13188945755E+00  0.19592674422E-01 0.  0.
         14    1    1    2    0    0 -0.15893342435E-01 -0.10209548220E-01 -0.17140149981E-01  0.25507213685E-01  0.00000000000E+00 0. -1.
     999901    1    3    3    0    0 -0.91364425901E-01  0.10849081106E-02 -0.56504050032E-01  0.88653332877E+00  0.88000000000E+00 0.  1.
        -11    1    4    4    0    0  0.33234489491E-01  0.96070711112E-02  0.16278613459E-01  0.38237174114E-01  0.51100000000E-03 0. -1.
         11    1    4    4    0    0  0.74023278846E-01 -0.48243100212E-03  0.57365586553E-01  0.93652283434E-01  0.51100000000E-03 0.  1.
</event>
<event>
 8    1  0.1088088E+005  0.1043930E+01  0.7957747E-01            NaN
         13   -1    0    0    0    0  0.00000000000E+00  0.00000000000E+00  0.74505805969E-08  0.10566000000E+00  0.10566000000E+00 0.  1.
     999900   -1    0    0    0    0 -0.00000000000E+00 -0.00000000000E+00 -0.74505805969E-08  0.93827000000E+00  0.93827000000E+00 0.  1.
     999902    2    1    2    0    0 -0.95027880039E-02 -0.17942837967E-01  0.11574986247E-01  0.10205584634E+01  0.10202908157E+01 0.  0.
     999903    2    3    3    0    0  0.26473621365E-01  0.11911450035E+00  0.36186502365E-01  0.12888321834E+00  0.20305274997E-01 0.  0.
         14    1    1    2    0    0  0.95027880039E-02  0.17942837967E-01 -0.11574986247E-01  0.23371536552E-01  0.00000000000E+00 0. -1.
     999901    1    3    3    0    0 -0.35976409369E-01 -0.13705733832E+00 -0.24611516117E-01  0.89167524511E+00  0.88000000000E+00 0. -1.
        -11    1    4    4    0    0  0.11304915328E-01  0.21683077036E-01  0.20878109779E-02  0.24547444184E-01  0.51100000000E-03 0. -1.
         11    1    4    4    0    0  0.15168706037E-01  0.97431423319E-01  0.34098691387E-01  0.10433577415E+00  0.51100000000E-03 0.  1.
</event>
<event>
 8    1  0.1088088E+005  0.1043930E+01  0.7957747E-01            NaN
         13   -1    0    0    0    0  0.00000000000E+00  0.00000000000E+00  0.74505805969E-08  0.10566000000E+00  0.10566000000E+00 0.  1.
     999900   -1    0    0    0    0 -0.00000000000E+00 -0.00000000000E+00 -0.74505805969E-08  0.93827000000E+00  0.93827000000E+00 0. -1.
     999902    2    1    2    0    0  0.21097845241E-01  0.17815900537E-02 -0.12228856593E-01  0.10194792726E+01  0.10191860229E+01 0.  0.
     999903    2    3    3    0    0  0.70865843305E-01  0.78399597353E-01 -0.77139729554E-01  0.13237127799E+00  0.20078663997E-01 0.  0.
         14    1    1    2    0    0 -0.21097845241E-01 -0.17815900537E-02  0.12228856593E-01  0.24450727402E-01  0.00000000000E+00 0.  1.
     999901    1    3    3    0    0 -0.49767998064E-01 -0.76618007300E-01  0.64910872960E-01  0.88710799461E+00  0.88000000000E+00 0.  1.
        -11    1    4    4    0    0  0.42785107288E-01  0.46216141215E-01 -0.33629036797E-01  0.71397971620E-01  0.51100000000E-03 0.  1.
         11    1    4    4    0    0  0.28080736016E-01  0.32183456138E-01 -0.43510692757E-01  0.60973306368E-01  0.51100000000E-03 0. -1.
</event>
<event>
 8    1  0.1088088E+005  0.1043930E+01  0.7957747E-01            NaN
         13   -1    0    0    0    0  0.00000000000E+00  0.00000000000E+00  0.74505805969E-08  0.10566000000E+00  0.10566000000E+00 0.  1.
     999900   -1    0    0    0    0 -0.00000000000E+00 -0.00000000000E+00 -0.74505805969E-08  0.93827000000E+00  0.93827000000E+00 0. -1.
     999902    2    1    2    0    0 -0.57744827190E-02 -0.11685052126E-01  0.20042409110E-01  0.10200221926E+01  0.10197419723E+01 0.  0.
     999903    2    3    3    0    0 -0.12112263668E+00  0.40917893286E-01  0.20186947678E-01  0.13093710811E+00  0.19800159517E-01 0.  0.
         14    1    1    2    0    0  0.57744827190E-02  0.11685052126E-01 -0.20042409110E-01  0.23907807444E-01  0.00000000000E+00 0. -1.
     999901    1    3    3    0    0  0.11534815396E+00 -0.52602945412E-01 -0.14453856811E-03  0.88908508444E+00  0.88000000000E+00 0.  1.
        -11    1    4    4    0    0 -0.84178246135E-01  0.20031117680E-01  0.86959813898E-02  0.86966108406E-01  0.51100000000E-03 0.  1.
         11    1    4    4    0    0 -0.36944390545E-01  0.20886775606E-01  0.11490966288E-01  0.43970999707E-01  0.51100000000E-03 0. -1.
</event>
<event>
 8    1  0.1088088E+005  0.1043930E+01  0.7957747E-01            NaN
         13   -1    0    0    0    0  0.00000000000E+00  0.00000000000E+00  0.74505805969E-08  0.10566000000E+00  0.10566000000E+00 0.  1.
     999900   -1    0    0    0    0 -0.00000000000E+00 -0.00000000000E+00 -0.74505805969E-08  0.93827000000E+00  0.93827000000E+00 0. -1.
     999902    2    1    2    0    0 -0.11104878767E-01  0.71411952982E-02 -0.20758521949E-01  0.10193285522E+01  0.10190316315E+01 0.  0.
     999903    2    3    3    0    0 -0.36002680590E-01  0.12347362876E+00  0.11767294468E-01  0.13072793076E+00  0.20233453791E-01 0.  0.
         14    1    1    2    0    0  0.11104878767E-01 -0.71411952982E-02  0.20758521949E-01  0.24601447848E-01  0.00000000000E+00 0.  1.
     999901    1    3    3    0    0  0.24897801824E-01 -0.11633243346E+00 -0.32525816418E-01  0.88860062140E+00  0.88000000000E+00 0. -1.
        -11    1    4    4    0    0 -0.31124799129E-01  0.79571134811E-01  0.19041722286E-02  0.85464645373E-01  0.51100000000E-03 0.  1.
         11    1    4    4    0    0 -0.48778814612E-02  0.43902493948E-01  0.98631222396E-02  0.45263285383E-01  0.51100000000E-03 0. -1.
</event>
<event>
 8    1  0.1088088E+005  0.1043930E+01  0.7957747E-01            NaN
         13   -1    0    0    0    0  0.00000000000E+00  0.00000000000E+00  0.74505805969E-08  0.10566000000E+00  0.10566000000E+00 0. -1.
     999900   -1    0    0    0    0 -0.00000000000E+00 -0.00000000000E+00 -0.74505805969E-08  0.93827000000E+00  0.93827000000E+00 0.  1.
     999902    2    1    2    0    0 -0.15503662803E-01  0.18551875954E-01 -0.11916845302E-01  0.10169754667E+01  0.10166181943E+01 0.  0.
     999903    2    3    3    0    0 -0.97697456302E-01 -0.80060244276E-01  0.48025250317E-02  0.12750387793E+00  0.16725398607E-01 0.  0.
         14    1    1    2    0    0  0.15503662803E-01 -0.18551875954E-01  0.11916845302E-01  0.26954533268E-01  0.00000000000E+00 0.  1.
     999901    1    3    3    0    0  0.82193793499E-01  0.98612120229E-01 -0.16719370334E-01  0.88947158880E+00  0.88000000000E+00 0.  1.
        -11    1    4    4    0    0 -0.17588052867E-01 -0.16353076397E-01 -0.54676374333E-02  0.24635723887E-01  0.51100000000E-03 0.  1.
         11    1    4    4    0    0 -0.80109403435E-01 -0.63707167878E-01  0.10270162465E-01  0.10286815404E+00  0.51100000000E-03 0. -1.
</event>
<event>
 8    1  0.1088088E+005  0.1043930E+01  0.7957747E-01            NaN
         13   -1    0    0    0    0  0.00000000000E+00  0.00000000000E+00  0.74505805969E-08  0.10566000000E+00  0.10566000000E+00 0.  1.
     999900   -1    0    0    0    0 -0.00000000000E+00 -0.00000000000E+00 -0.74505805969E-08  0.93827000000E+00  0.93827000000E+00 0. -1.
     999902    2    1    2    0    0 -0.13838494191E-01 -0.19369413621E-01 -0.22257695395E-02  0.10200211699E+01  0.10197409254E+01 0.  0.
     999903    2    3    3    0    0  0.73677636461E-01  0.88563815944E-01 -0.51895781570E-01  0.12773435210E+00  0.18733631599E-01 0.  0.
         14    1    1    2    0    0  0.13838494191E-01  0.19369413621E-01  0.22257695395E-02  0.23908830074E-01  0.00000000000E+00 0. -1.
     999901    1    3    3    0    0 -0.87516130652E-01 -0.10793322956E+00  0.49670012031E-01  0.89228681782E+00  0.88000000000E+00 0.  1.
        -11    1    4    4    0    0  0.53388731229E-01  0.50382077684E-01 -0.34740840725E-01  0.81215131036E-01  0.51100000000E-03 0. -1.
         11    1    4    4    0    0  0.20288905233E-01  0.38181738260E-01 -0.17154940845E-01  0.46519221065E-01  0.51100000000E-03 0.  1.
</event>
<event>
 8    1  0.1088088E+005  0.1043930E+01  0.7957747E-01            NaN
         13   -1    0    0    0    0  0.00000000000E+00  0.00000000000E+00  0.74505805969E-08  0.10566000000E+00  0.10566000000E+00 0. -1.
     999900   -1    0    0    0    0 -0.00000000000E+00 -0.00000000000E+00 -0.74505805969E-08  0.93827000000E+00  0.93827000000E+00 0. -1.
     999902    2    1    2    0    0  0.12162800868E-01 -0.16696050416E-01  0.12759530090E-01  0.10196504318E+01  0.10193613224E+01 0.  0.
     999903    2    3    3    0    0  0.52804177252E-01  0.10643453807E+00 -0.44132104802E-01  0.12833145330E+00  0.20117832955E-01 0.  0.
         14    1    1    2    0    0 -0.12162800868E-01  0.16696050416E-01 -0.12759530090E-01  0.24279568212E-01  0.00000000000E+00 0. -1.
     999901    1    3    3    0    0 -0.40641376384E-01 -0.12313058848E+00  0.56891634892E-01  0.89131897849E+00  0.88000000000E+00 0.  1.
        -11    1    4    4    0    0  0.14357454355E-01  0.13563488965E-01 -0.10253020709E-01  0.22259611028E-01  0.51100000000E-03 0. -1.
         11    1    4    4    0    0  0.38446722898E-01  0.92871049102E-01 -0.33879084093E-01  0.10607184227E+00  0.51100000000E-03 0.  1.
</event>
<event>
 8    1  0.1088088E+005  0.1043930E+01  0.7957747E-01            NaN
         13   -1    0    0    0    0  0.00000000000E+00  0.00000000000E+00  0.74505805969E-08  0.10566000000E+00  0.10566000000E+00 0. -1.
     999900   -1    0    0    0    0 -0.00000000000E+00 -0.00000000000E+00 -0.74505805969E-08  0.93827000000E+00  0.93827000000E+00 0.  1.
     999902    2    1    2    0    0 -0.91494286651E-02 -0.18336290683E-01  0.11139246724E-01  0.10206058833E+01  0.10203393331E+01 0.  0.
     999903    2    3    3    0    0 -0.82413085902E-01  0.66666318216E-01  0.74650414814E-01  0.13120907905E+00  0.20169860701E-01 0.  0.
         14    1    1    2    0    0  0.91494286651E-02  0.18336290683E-01 -0.11139246724E-01  0.23324116671E-01  0.00000000000E+00 0.  1.
     999901    1    3    3    0    0  0.73263657236E-01 -0.85002608899E-01 -0.63511168090E-01  0.88939680428E+00  0.88000000000E+00 0.  1.
        -11    1    4    4    0    0 -0.65529744849E-01  0.42111859035E-01  0.57539249394E-01  0.96843081700E-01  0.51100000000E-03 0. -1.
         11    1    4    4    0    0 -0.16883341053E-01  0.24554459180E-01  0.17111165420E-01  0.34365997348E-01  0.51100000000E-03 0.  1.
</event>
<event>
 7    1  0.1273634E+005  0.1043930E+01  0.7957747E-01            NaN
         13   -1    0    0    0    0  0.00000000000E+00  0.00000000000E+00  0.74505805969E-08  0.10566000000E+00  0.10566000000E+00 0.  1.
     999900   -1    0    0    0    0 -0.00000000000E+00 -0.00000000000E+00 -0.74505805969E-08  0.93827000000E+00  0.93827000000E+00 0. -1.
     999903    2    1    2    0    0 -0.17237915830E-01  0.15672653040E-01  0.10943397830E+00  0.11367523293E+00  0.20086940517E-01 0.  0.
         14    1    1    2    0    0  0.30457175383E-01  0.25582183904E-01  0.10308171187E-01  0.41089488423E-01  0.00000000000E+00 0. -1.
     999901    1    1    2    0    0 -0.13219259553E-01 -0.41254836944E-01 -0.11974214948E+00  0.88916527865E+00  0.88000000000E+00 0. -1.
        -11    1    3    3    0    0 -0.20029267058E-01  0.10282224766E-01  0.64249781268E-01  0.68082238499E-01  0.51100000000E-03 0.  1.
         11    1    3    3    0    0  0.27913512280E-02  0.53904282735E-02  0.45184197030E-01  0.45592994428E-01  0.51100000000E-03 0. -1.
</event>
<event>
 8    1  0.1088088E+005  0.1043930E+01  0.7957747E-01            NaN
         13   -1    0    0    0    0  0.00000000000E+00  0.00000000000E+00  0.74505805969E-08  0.10566000000E+00  0.10566000000E+00 0.  1.
     999900   -1    0    0    0    0 -0.00000000000E+00 -0.00000000000E+00 -0.74505805969E-08  0.93827000000E+00  0.93827000000E+00 0.  1.
     999902    2    1    2    0    0  0.12430393125E-01  0.56959822558E-02 -0.20925674108E-01  0.10189331457E+01  0.10186264834E+01 0.  0.
     999903    2    3    3    0    0  0.12783454069E+00  0.87866213300E-02  0.18475859781E-01  0.13051874343E+00  0.16580424698E-01 0.  0.
         14    1    1    2    0    0 -0.12430393125E-01 -0.56959822558E-02  0.20925674108E-01  0.24996854281E-01  0.00000000000E+00 0.  1.
     999901    1    3    3    0    0 -0.11540414757E+00 -0.30906390742E-02 -0.39401533889E-01  0.88841440229E+00  0.88000000000E+00 0.  1.
        -11    1    4    4    0    0  0.85343317912E-01 -0.12998117590E-02  0.15425399008E-01  0.86737393772E-01  0.51100000000E-03 0.  1.
         11    1    4    4    0    0  0.42491222779E-01  0.10086433089E-01  0.30504607735E-02  0.43781349656E-01  0.51100000000E-03 0. -1.
</event>
<event>
 8    1  0.1088088E+005  0.1043930E+01  0.7957747E-01            NaN
         13   -1    0    0    0    0  0.00000000000E+00  0.00000000000E+00  0.74505805969E-08  0.10566000000E+00  0.10566000000E+00 0.  1.
     999900   -1    0    0    0    0 -0.00000000000E+00 -0.00000000000E+00 -0.74505805969E-08  0.93827000000E+00  0.93827000000E+00 0.  1.
     999902    2    1    2    0    0  0.11699966738E-02 -0.24041342504E-01  0.89828280141E-03  0.10198434487E+01  0.10195589723E+01 0.  0.
     999903    2    3    3    0    0 -0.48073380003E-01 -0.66001317541E-01  0.10139035391E+00  0.13176450738E+00  0.20363147030E-01 0.  0.
         14    1    1    2    0    0 -0.11699966738E-02  0.24041342504E-01 -0.89828280141E-03  0.24086551301E-01  0.00000000000E+00 0. -1.
     999901    1    3    3    0    0  0.49243376677E-01  0.41959975037E-01 -0.10049207111E+00  0.88807894132E+00  0.88000000000E+00 0. -1.
        -11    1    4    4    0    0 -0.12275527487E-01 -0.31317469837E-01  0.32894153573E-01  0.47050599915E-01  0.51100000000E-03 0. -1.
         11    1    4    4    0    0 -0.35797852516E-01 -0.34683847704E-01  0.68496200341E-01  0.84713907468E-01  0.51100000000E-03 0.  1.
</event>
<event>
 8    1  0.1088088E+005  0.1043930E+01  0.7957747E-01            NaN
         13   -1    0    0    0    0  0.00000000000E+00  0.00000000000E+00  0.74505805969E-08  0.10566000000E+00  0.10566000000E+00 0.  1.
     999900   -1    0    0    0    0 -0.00000000000E+00 -0.00000000000E+00 -0.74505805969E-08  0.93827000000E+00  0.93827000000E+00 0. -1.
     999902    2    1    2    0    0 -0.85984105038E-02  0.85217884317E-02  0.20638076370E-01  0.10200033676E+01  0.10197227006E+01 0.  0.
     999903    2    3    3    0    0 -0.82061669432E-01  0.16382268288E-01 -0.96195919210E-01  0.12921224727E+00  0.20967919955E-01 0.  0.
         14    1    1    2    0    0  0.85984105038E-02 -0.85217884317E-02 -0.20638076370E-01  0.23926632390E-01  0.00000000000E+00 0.  1.
     999901    1    3    3    0    0  0.73463258928E-01 -0.78604798562E-02  0.11683399558E+00  0.89079112034E+00  0.88000000000E+00 0.  1.
        -11    1    4    4    0    0 -0.50192161518E-01  0.14990667049E-02 -0.65428714598E-01  0.82478349243E-01  0.51100000000E-03 0. -1.
         11    1    4    4    0    0 -0.31869507914E-01  0.14883201583E-01 -0.30767204612E-01  0.46733898025E-01  0.51100000000E-03 0.  1.
</event>
<event>
 8    1  0.1088088E+005  0.1043930E+01  0.7957747E-01            NaN
         13   -1    0    0    0    0  0.00000000000E+00  0.00000000000E+00  0.74505805969E-08  0.10566000000E+00  0.10566000000E+00 0. -1.
     999900   -1    0    0    0    0 -0.00000000000E+00 -0.00000000000E+00 -0.74505805969E-08  0.93827000000E+00  0.93827000000E+00 0. -1.
     999902    2    1    2    0    0 -0.76107692798E-04  0.22847299568E-01  0.20395593690E-02  0.10209917199E+01  0.10207340141E+01 0.  0.
     999903    2    3    3    0    0 -0.11214216978E+00  0.31996316863E-01 -0.58098576648E-01  0.13180158155E+00  0.19914360552E-01 0.  0.
         14    1    1    2    0    0  0.76107692798E-04 -0.22847299568E-01 -0.20395593690E-02  0.22938280065E-01  0.00000000000E+00 0. -1.
     999901    1    3    3    0    0  0.11206606209E+00 -0.91490172951E-02  0.60138136017E-01  0.88919013838E+00  0.88000000000E+00 0.  1.
        -11    1    4    4    0    0 -0.16582092545E-01  0.12444798864E-01 -0.91499841977E-02  0.22667645306E-01  0.51100000000E-03 0. -1.
         11    1    4    4    0    0 -0.95560077235E-01  0.19551517999E-01 -0.48948592450E-01  0.10913393625E+00  0.51100000000E-03 0.  1.
</event>
<event>
 8    1  0.1088088E+005  0.1043930E+01  0.7957747E-01            NaN
         13   -1    0    0    0    0  0.00000000000E+00  0.00000000000E+00  0.74505805969E-08  0.10566000000E+00  0.10566000000E+00 0. -1.
     999900   -1    0    0    0    0 -0.00000000000E+00 -0.00000000000E+00 -0.74505805969E-08  0.93827000000E+00  0.93827000000E+00 0. -1.
     999902    2    1    2    0    0 -0.12328283145E-01 -0.13691792035E-01  0.19700541274E-01  0.10169566231E+01  0.10165988443E+01 0.  0.
     999903    2    3    3    0    0 -0.93432288946E-01  0.69153130970E-01  0.49448009970E-01  0.12885412175E+00  0.25426971141E-01 0.  0.
         14    1    1    2    0    0  0.12328283145E-01  0.13691792035E-01 -0.19700541274E-01  0.26973376891E-01  0.00000000000E+00 0. -1.
     999901    1    3    3    0    0  0.81104005801E-01 -0.82844923006E-01 -0.29747468696E-01  0.88810250136E+00  0.88000000000E+00 0. -1.
        -11    1    4    4    0    0 -0.76759338854E-01  0.43383597561E-01  0.34133744552E-01  0.94548962325E-01  0.51100000000E-03 0.  1.
         11    1    4    4    0    0 -0.16672950092E-01  0.25769533409E-01  0.15314265418E-01  0.34305159425E-01  0.51100000000E-03 0. -1.
</event>
<event>
 8    1  0.1088088E+005  0.1043930E+01  0.7957747E-01            NaN
         13   -1    0    0    0    0  0.00000000000E+00  0.00000000000E+00  0.74505805969E-08  0.10566000000E+00  0.10566000000E+00 0. -1.
     999900   -1    0    0    0    0 -0.00000000000E+00 -0.00000000000E+00 -0.74505805969E-08  0.93827000000E+00  0.93827000000E+00 0.  1.
     999902    2    1    2    0    0  0.18603830407E-01 -0.85261860680E-03  0.14428265032E-01  0.10203714708E+01  0.10200994727E+01 0.  0.
     999903    2    3    3    0    0 -0.11034650016E+00 -0.16785741267E-01 -0.58759359093E-01  0.12782540454E+00  0.20701704177E-01 0.  0.
         14    1    1    2    0    0 -0.18603830407E-01  0.85261860680E-03 -0.14428265032E-01  0.23558529159E-01  0.00000000000E+00 0.  1.
     999901    1    3    3    0    0  0.12895033057E+00  0.15933122660E-01  0.73187624125E-01  0.89254606631E+00  0.88000000000E+00 0. -1.
        -11    1    4    4    0    0 -0.32391891870E-01 -0.82465660144E-02 -0.78845715747E-02  0.34346296742E-01  0.51100000000E-03 0. -1.
         11    1    4    4    0    0 -0.77954608292E-01 -0.85391752529E-02 -0.50874787518E-01  0.93479107794E-01  0.51100000000E-03 0.  1.
</event>
<event>
 8    1  0.1088088E+005  0.1043930E+01  0.7957747E-01            NaN
         13   -1    0    0    0    0  0.00000000000E+00  0.00000000000E+00  0.74505805969E-08  0.10566000000E+00  0.10566000000E+00 0.  1.
     999900   -1    0    0    0    0 -0.00000000000E+00 -0.00000000000E+00 -0.74505805969E-08  0.93827000000E+00  0.93827000000E+00 0.  1.
     999902    2    1    2    0    0  0.70555122529E-02 -0.98731276499E-02  0.19635691783E-01  0.10208471212E+01  0.10205861186E+01 0.  0.
     999903    2    3    3    0    0 -0.35798480972E-01  0.89155207825E-01 -0.82813928366E-01  0.12835678475E+00  0.19675749969E-01 0.  0.
         14    1    1    2    0    0 -0.70555122529E-02  0.98731276499E-02 -0.19635691783E-01  0.23082878818E-01  0.00000000000E+00 0. -1.
     999901    1    3    3    0    0  0.42853993225E-01 -0.99028335475E-01  0.10244962015E+00  0.89249033644E+00  0.88000000000E+00 0. -1.
        -11    1    4    4    0    0 -0.27361563319E-01  0.42428578584E-01 -0.45487243241E-01  0.67957264855E-01  0.51100000000E-03 0.  1.
         11    1    4    4    0    0 -0.84369176535E-02  0.46726629241E-01 -0.37326685125E-01  0.60399519892E-01  0.51100000000E-03 0. -1.
</event>
<event>
 8    1  0.1088088E+005  0.1043930E+01  0.7957747E-01            NaN
         13   -1    0    0    0    0  0.00000000000E+00  0.00000000000E+00  0.74505805969E-08  0.10566000000E+00  0.10566000000E+00 0.  1.
     999900   -1    0    0    0    0 -0.00000000000E+00 -0.00000000000E+00 -0.74505805969E-08  0.93827000000E+00  0.93827000000E+00 0. -1.
     999902    2    1    2    0    0 -0.12263872454E-01 -0.86440490610E-02 -0.18728701998E-01  0.10199323662E+01  0.10196500111E+01 0.  0.
     999903    2    3    3    0    0  0.98666975958E-01  0.18718169027E-01 -0.80504761595E-01  0.13039842883E+00  0.20909127332E-01 0.  0.
         14    1    1    2    0    0  0.12263872454E-01  0.86440490610E-02  0.18728701998E-01  0.23997633847E-01  0.00000000000E+00 0.  1.
     999901    1    3    3    0    0 -0.11093084841E+00 -0.27362218088E-01  0.61776059598E-01  0.88953393732E+00  0.88000000000E+00 0. -1.
        -11    1    4    4    0    0  0.65506959339E-01  0.22492097503E-02 -0.52048753542E-01  0.83699190753E-01  0.51100000000E-03 0.  1.
         11    1    4    4    0    0  0.33160016618E-01  0.16468959277E-01 -0.28456008053E-01  0.46699238079E-01  0.51100000000E-03 0. -1.
</event>
<event>
 8    1  0.1088088E+005  0.1043930E+01  0.7957747E-01            NaN
         13   -1    0    0    0    0  0.00000000000E+00  0.00000000000E+00  0.74505805969E-08  0.10566000000E+00  0.10566000000E+00 0. -1.
     999900   -1    0    0    0    0 -0.00000000000E+00 -0.00000000000E+00 -0.74505805969E-08  0.93827000000E+00  0.93827000000E+00 0. -1.
     999902    2    1    2    0    0  0.20762228897E-01 -0.79590916905E-02 -0.19445152280E-01  0.10143913603E+01  0.10139611928E+01 0.  0.
     999903    2    3    3    0    0 -0.44761965072E-01 -0.51058385554E-01 -0.10532775403E+00  0.12673895623E+00  0.18927097105E-01 0.  0.
         14    1    1    2    0    0 -0.20762228897E-01  0.79590916905E-02  0.19445152280E-01  0.29538639720E-01  0.00000000000E+00 0. -1.
     999901    1    3    3    0    0  0.65524193970E-01  0.43099293864E-01  0.85882601753E-01  0.88765240405E+00  0.88000000000E+00 0.  1.
        -11    1    4    4    0    0 -0.35408087608E-01 -0.30320813849E-01 -0.80776531978E-01  0.93264107029E-01  0.51100000000E-03 0. -1.
         11    1    4    4    0    0 -0.93538774646E-02 -0.20737571705E-01 -0.24551222055E-01  0.33474849204E-01  0.51100000000E-03 0.  1.
</event>
<event>
 8    1  0.1088088E+005  0.1043930E+01  0.7957747E-01            NaN
         13   -1    0    0    0    0  0.00000000000E+00  0.00000000000E+00  0.74505805969E-08  0.10566000000E+00  0.10566000000E+00 0. -1.
     999900   -1    0    0    0    0 -0.00000000000E+00 -0.00000000000E+00 -0.74505805969E-08  0.93827000000E+00  0.93827000000E+00 0. -1.
     999902    2    1    2    0    0  0.42599747937E-03  0.42560799641E-02  0.23981959043E-01  0.10195695803E+01  0.10192785188E+01 0.  0.
     999903    2    3    3    0    0  0.86771854845E-01 -0.26906041701E-01 -0.84737797645E-01  0.12814001467E+00  0.31401897016E-01 0.  0.
         14    1    1    2    0    0 -0.42599747937E-03 -0.42560799641E-02 -0.23981959043E-01  0.24360419743E-01  0.00000000000E+00 0.  1.
     999901    1    3    3    0    0 -0.86345857366E-01  0.31162121665E-01  0.10871975669E+00  0.89142956559E+00  0.88000000000E+00 0.  1.
        -11    1    4    4    0    0  0.32022223042E-01 -0.21665538621E-01 -0.21178842421E-01  0.44086537850E-01  0.51100000000E-03 0.  1.
         11    1    4    4    0    0  0.54749631803E-01 -0.52405030797E-02 -0.63558955224E-01  0.84053476819E-01  0.51100000000E-03 0. -1.
</event>
<event>
 8    1  0.1088088E+005  0.1043930E+01  0.7957747E-01            NaN
         13   -1    0    0    0    0  0.00000000000E+00  0.00000000000E+00  0.74505805969E-08  0.10566000000E+00  0.10566000000E+00 0. -1.
     999900   -1    0    0    0    0 -0.00000000000E+00 -0.00000000000E+00 -0.74505805969E-08  0.93827000000E+00  0.93827000000E+00 0. -1.
     999902    2    1    2    0    0 -0.48437557115E-02  0.25551196162E-01  0.37062988838E-02  0.10176609641E+01  0.10173218643E+01 0.  0.
     999903    2    3    3    0    0 -0.54728315315E-01  0.72885857982E-01 -0.90413008332E-01  0.12997437332E+00  0.20280257710E-01 0.  0.
         14    1    1    2    0    0  0.48437557115E-02 -0.25551196162E-01 -0.37062988838E-02  0.26269035881E-01  0.00000000000E+00 0. -1.
     999901    1    3    3    0    0  0.49884559604E-01 -0.47334661820E-01  0.94119307216E-01  0.88768659080E+00  0.88000000000E+00 0.  1.
        -11    1    4    4    0    0 -0.42645131039E-01  0.48789246038E-01 -0.52219621326E-01  0.83223480477E-01  0.51100000000E-03 0. -1.
         11    1    4    4    0    0 -0.12083184276E-01  0.24096611944E-01 -0.38193387006E-01  0.46750892841E-01  0.51100000000E-03 0.  1.
</event>
<event>
 8    1  0.1088088E+005  0.1043930E+01  0.7957747E-01            NaN
         13   -1    0    0    0    0  0.00000000000E+00  0.00000000000E+00  0.74505805969E-08  0.10566000000E+00  0.10566000000E+00 0.  1.
     999900   -1    0    0    0    0 -0.00000000000E+00 -0.00000000000E+00 -0.74505805969E-08  0.93827000000E+00  0.93827000000E+00 0. -1.
     999902    2    1    2    0    0  0.31174346974E-02  0.18280144464E-01 -0.12964309477E-01  0.10213035685E+01  0.10210528996E+01 0.  0.
     999903    2    3    3    0    0 -0.37707302069E-02 -0.10674169094E+00 -0.71707894185E-01  0.13050128133E+00  0.21921572679E-01 0.  0.
         14    1    1    2    0    0 -0.31174346974E-02 -0.18280144464E-01  0.12964309477E-01  0.22626431467E-01  0.00000000000E+00 0.  1.
     999901    1    3    3    0    0  0.68881649042E-02  0.12502183541E+00  0.58743584708E-01  0.89080228720E+00  0.88000000000E+00 0.  1.
        -11    1    4    4    0    0 -0.11861526767E-01 -0.84896205008E-01 -0.55614615836E-01  0.10218271898E+00  0.51100000000E-03 0. -1.
         11    1    4    4    0    0  0.80907965603E-02 -0.21845485933E-01 -0.16093278349E-01  0.28318562352E-01  0.51100000000E-03 0.  1.
</event>
<event>
 8    1  0.1088088E+005  0.1043930E+01  0.7957747E-01            NaN
         13   -1    0    0    0    0  0.00000000000E+00  0.00000000000E+00  0.74505805969E-08  0.10566000000E+00  0.10566000000E+00 0. -1.
     999900   -1    0    0    0    0 -0.00000000000E+00 -0.00000000000E+00 -0.74505805969E-08  0.93827000000E+00  0.93827000000E+00 0.  1.
     999902    2    1    2    0    0 -0.24720255206E-01 -0.15970543617E-02  0.48488668651E-02  0.10186881080E+01  0.10183753278E+01 0.  0.
     999903    2    3    3    0    0 -0.86766567330E-02 -0.94482963496E-01 -0.84799359885E-01  0.12912529759E+00  0.21911099424E-01 0.  0.
         14    1    1    2    0    0  0.24720255206E-01  0.15970543617E-02 -0.48488668651E-02  0.25241891965E-01  0.00000000000E+00 0. -1.
     999901    1    3    3    0    0 -0.16043598473E-01  0.92885909134E-01  0.89648226750E-01  0.88956281045E+00  0.88000000000E+00 0. -1.
        -11    1    4    4    0    0  0.59087214286E-02 -0.11309080788E-01 -0.13773102217E-01  0.18782112844E-01  0.51100000000E-03 0. -1.
         11    1    4    4    0    0 -0.14585378162E-01 -0.83173882708E-01 -0.71026257667E-01  0.11034318475E+00  0.51100000000E-03 0.  1.
</event>
<event>
 8    1  0.1088088E+005  0.1043930E+01  0.7957747E-01            NaN
         13   -1    0    0    0    0  0.00000000000E+00  0.00000000000E+00  0.74505805969E-08  0.10566000000E+00  0.10566000000E+00 0.  1.
     999900   -1    0    0    0    0 -0.00000000000E+00 -0.00000000000E+00 -0.74505805969E-08  0.93827000000E+00  0.93827000000E+00 0.  1.
     999902    2    1    2    0    0  0.11270383590E-01  0.23571725977E-01 -0.66900200913E-02  0.10169595684E+01  0.10166018688E+01 0.  0.
     999903    2    3    3    0    0 -0.72162022999E-01  0.90212792370E-01  0.52707538377E-01  0.12851707271E+00  0.19820391154E-01 0.  0.
         14    1    1    2    0    0 -0.11270383590E-01 -0.23571725977E-01  0.66900200913E-02  0.26970431599E-01  0.00000000000E+00 0. -1.
     999901    1    3    3    0    0  0.83432406589E-01 -0.66641066393E-01 -0.59397558468E-01  0.88844249569E+00  0.88000000000E+00 0.  1.
        -11    1    4    4    0    0 -0.10995355621E-01  0.21197341219E-01  0.39805531038E-02  0.24214273559E-01  0.51100000000E-03 0. -1.
         11    1    4    4    0    0 -0.61166667379E-01  0.69015451151E-01  0.48726985273E-01  0.10430279915E+00  0.51100000000E-03 0.  1.
</event>
<event>
 8    1  0.1088088E+005  0.1043930E+01  0.7957747E-01            NaN
         13   -1    0    0    0    0  0.00000000000E+00  0.00000000000E+00  0.74505805969E-08  0.10566000000E+00  0.10566000000E+00 0.  1.
     999900   -1    0    0    0    0 -0.00000000000E+00 -0.00000000000E+00 -0.74505805969E-08  0.93827000000E+00  0.93827000000E+00 0.  1.
     999902    2    1    2    0    0  0.79033084968E-03  0.39988277685E-02 -0.24330299528E-01  0.10192606117E+01  0.10189620286E+01 0.  0.
     999903    2    3    3    0    0 -0.63945643636E-01 -0.73102191686E-01 -0.86153450081E-01  0.13136567669E+00  0.20038669641E-01 0.  0.
         14    1    1    2    0    0 -0.79033084968E-03 -0.39988277685E-02  0.24330299528E-01  0.24669388349E-01  0.00000000000E+00 0.  1.
     999901    1    3    3    0    0  0.64735974486E-01  0.77101019454E-01  0.61823150553E-01  0.88789493497E+00  0.88000000000E+00 0. -1.
        -11    1    4    4    0    0 -0.21806485573E-01 -0.12721802935E-01 -0.26467182734E-01  0.36580595482E-01  0.51100000000E-03 0.  1.
         11    1    4    4    0    0 -0.42139158063E-01 -0.60380388750E-01 -0.59686267347E-01  0.94785081203E-01  0.51100000000E-03 0. -1.
</event>
<event>
 8    1  0.1088088E+005  0.1043930E+01  0.7957747E-01            NaN
         13   -1    0    0    0    0  0.00000000000E+00  0.00000000000E+00  0.74505805969E-08  0.10566000000E+00  0.10566000000E+00 0.  1.
     999900   -1    0    0    0    0 -0.00000000000E+00 -0.00000000000E+00 -0.74505805969E-08  0.93827000000E+00  0.93827000000E+00 0. -1.
     999902    2    1    2    0    0  0.20657324980E-02 -0.15128802430E-01 -0.17895770830E-01  0.10204054059E+01  0.10201341999E+01 0.  0.
     999903    2    3    3    0    0 -0.85691450221E-01  0.56035039703E-01 -0.79147922388E-01  0.13107001270E+00  0.20784712987E-01 0.  0.
         14    1    1    2    0    0 -0.20657324980E-02  0.15128802430E-01  0.17895770830E-01  0.23524594095E-01  0.00000000000E+00 0.  1.
     999901    1    3    3    0    0  0.87757182719E-01 -0.71163842133E-01  0.61252151558E-01  0.88933539321E+00  0.88000000000E+00 0.  1.
        -11    1    4    4    0    0 -0.36594561889E-01  0.14724849909E-01 -0.38438016503E-01  0.55079264686E-01  0.51100000000E-03 0. -1.
         11    1    4    4    0    0 -0.49096888332E-01  0.41310189795E-01 -0.40709905885E-01  0.75990748009E-01  0.51100000000E-03 0.  1.
</event>
<event>
 8    1  0.1088088E+005  0.1043930E+01  0.7957747E-01            NaN
         13   -1    0    0    0    0  0.00000000000E+00  0.00000000000E+00  0.74505805969E-08  0.10566000000E+00  0.10566000000E+00 0. -1.
     999900   -1    0    0    0    0 -0.00000000000E+00 -0.00000000000E+00 -0.74505805969E-08  0.93827000000E+00  0.93827000000E+00 0.  1.
     999902    2    1    2    0    0 -0.39546785133E-02  0.21207962616E-01 -0.10016245514E-01  0.10201446614E+01  0.10198673383E+01 0.  0.
     999903    2    3    3    0    0  0.64430833461E-01 -0.44238248971E-01  0.99981118967E-01  0.12825946411E+00  0.18598683076E-01 0.  0.
         14    1    1    2    0    0  0.39546785133E-02 -0.21207962616E-01  0.10016245514E-01  0.23785338649E-01  0.00000000000E+00 0. -1.
     999901    1    3    3    0    0 -0.68385511974E-01  0.65446211587E-01 -0.10999736448E+00  0.89188519724E+00  0.88000000000E+00 0.  1.
        -11    1    4    4    0    0  0.14113349205E-01 -0.14245592389E-01  0.15016879025E-01  0.25057759376E-01  0.51100000000E-03 0.  1.
         11    1    4    4    0    0  0.50317484256E-01 -0.29992656582E-01  0.84964239942E-01  0.10320170474E+00  0.51100000000E-03 0. -1.
</event>
<event>
 8    1  0.1088088E+005  0.1043930E+01  0.7957747E-01            NaN
         13   -1    0    0    0    0  0.00000000000E+00  0.00000000000E+00  0.74505805969E-08  0.10566000000E+00  0.10566000000E+00 0.  1.
     999900   -1    0    0    0    0 -0.00000000000E+00 -0.00000000000E+00 -0.74505805969E-08  0.93827000000E+00  0.93827000000E+00 0.  1.
     999902    2    1    2    0    0 -0.18345491434E-01  0.63536108380E-02  0.12929904032E-01  0.10206038806E+01  0.10203372841E+01 0.  0.
     999903    2    3    3    0    0  0.83124107203E-01 -0.62478945477E-01 -0.71909524351E-01  0.12806159655E+00  0.20385215056E-01 0.  0.
         14    1    1    2    0    0  0.18345491434E-01 -0.63536108380E-02 -0.12929904032E-01  0.23326119371E-01  0.00000000000E+00 0. -1.
     999901    1    3    3    0    0 -0.10146959864E+00  0.68832556315E-01  0.84839428383E-01  0.89254228408E+00  0.88000000000E+00 0. -1.
        -11    1    4    4    0    0  0.15450193294E-01 -0.22411543457E-01 -0.16180752967E-01  0.31671179967E-01  0.51100000000E-03 0.  1.
         11    1    4    4    0    0  0.67673913909E-01 -0.40067402020E-01 -0.55728771384E-01  0.96390416585E-01  0.51100000000E-03 0. -1.
</event>
<event>
 8    1  0.1088088E+005  0.1043930E+01  0.7957747E-01            NaN
         13   -1    0    0    0    0  0.00000000000E+00  0.00000000000E+00  0.74505805969E-08  0.10566000000E+00  0.10566000000E+00 0.  1.
     999900   -1    0    0    0    0 -0.00000000000E+00 -0.00000000000E+00 -0.74505805969E-08  0.93827000000E+00  0.93827000000E+00 0. -1.
     999902    2    1    2    0    0  0.24941675254E-02 -0.10536467509E-01  0.21319345309E-01  0.10200186532E+01  0.10197383490E+01 0.  0.
     999903    2    3    3    0    0  0.19344271199E-01 -0.12193952820E+00 -0.38576244330E-01  0.13081561142E+00  0.19523017150E-01 0.  0.
         14    1    1    2    0    0 -0.24941675254E-02  0.10536467509E-01 -0.21319345309E-01  0.23911346755E-01  0.00000000000E+00 0. -1.
     999901    1    3    3    0    0 -0.16850103673E-01  0.11140306070E+00  0.59895589639E-01  0.88920304182E+00  0.88000000000E+00 0.  1.
        -11    1    4    4    0    0 -0.26616313192E-02 -0.57319165311E-02 -0.43494913694E-02  0.76888454641E-02  0.51100000000E-03 0. -1.
         11    1    4    4    0    0  0.22005902518E-01 -0.11620761167E+00 -0.34226752961E-01  0.12312676596E+00  0.51100000000E-03 0.  1.
</event>
<event>
 8    1  0.1088088E+005  0.1043930E+01  0.7957747E-01            NaN
         13   -1    0    0    0    0  0.00000000000E+00  0.00000000000E+00  0.74505805969E-08  0.10566000000E+00  0.10566000000E+00 0. -1.
     999900   -1    0    0    0    0 -0.00000000000E+00 -0.00000000000E+00 -0.74505805969E-08  0.93827000000E+00  0.93827000000E+00 0. -1.
     999902    2    1    2    0    0 -0.17449574805E-02  0.23095160149E-01 -0.90627984667E-02  0.10190590206E+01  0.10187554770E+01 0.  0.
     999903    2    3    3    0    0  0.11266660267E+00  0.31567668682E-01 -0.54310586157E-01  0.13045947596E+00  0.19487278789E-01 0.  0.
         14    1    1    2    0    0  0.17449574805E-02 -0.23095160149E-01  0.90627984667E-02  0.24870979373E-01  0.00000000000E+00 0. -1.
     999901    1    3    3    0    0 -0.11441156015E+00 -0.84725085330E-02  0.45247787690E-01  0.88859954467E+00  0.88000000000E+00 0. -1.
        -11    1    4    4    0    0  0.18543781969E-01  0.41329790850E-02 -0.17190218814E-01  0.25626511852E-01  0.51100000000E-03 0.  1.
         11    1    4    4    0    0  0.94122820703E-01  0.27434689597E-01 -0.37120367343E-01  0.10483296411E+00  0.51100000000E-03 0. -1.
</event>
<event>
 8    1  0.1088088E+005  0.1043930E+01  0.7957747E-01            NaN
         13   -1    0    0    0    0  0.00000000000E+00  0.00000000000E+00  0.74505805969E-08  0.10566000000E+00  0.10566000000E+00 0.  1.
     999900   -1    0    0    0    0 -0.00000000000E+00 -0.00000000000E+00 -0.74505805969E-08  0.93827000000E+00  0.93827000000E+00 0. -1.
     999902    2    1    2    0    0  0.29244618324E-02  0.18273011509E-01 -0.14489983360E-01  0.10204264887E+01  0.10201557743E+01 0.  0.
     999903    2    3    3    0    0  0.79867896166E-01 -0.99576095787E-01  0.18479831484E-02  0.12909286240E+00  0.19164352112E-01 0.  0.
         14    1    1    2    0    0 -0.29244618324E-02 -0.18273011509E-01  0.14489983360E-01  0.23503511321E-01  0.00000000000E+00 0.  1.
     999901    1    3    3    0    0 -0.76943434334E-01  0.11784910730E+00 -0.16337966508E-01  0.89133362627E+00  0.88000000000E+00 0. -1.
        -11    1    4    4    0    0  0.25836852002E-01 -0.19312324098E-01 -0.12676781549E-02  0.32285862423E-01  0.51100000000E-03 0. -1.
         11    1    4    4    0    0  0.54031044164E-01 -0.80263771689E-01  0.31156613033E-02  0.96806999982E-01  0.51100000000E-03 0.  1.
</event>
<event>
 8    1  0.1088088E+005  0.1043930E+01  0.7957747E-01            NaN
         13   -1    0    0    0    0  0.00000000000E+00  0.00000000000E+00  0.74505805969E-08  0.10566000000E+00  0.10566000000E+00 0.  1.
     999900   -1    0    0    0    0 -0.00000000000E+00 -0.00000000000E+00 -0.74505805969E-08  0.93827000000E+00  0.93827000000E+00 0. -1.
     999902    2    1    2    0    0  0.26319841486E-02  0.96171657752E-02 -0.25394565726E-01  0.10166481161E+01  0.10162819938E+01 0.  0.
     999903    2    3    3    0    0 -0.90421437390E-01  0.86946261354E-01 -0.16594790927E-01  0.12832600997E+00  0.21365604287E-01 0.  0.
         14    1    1    2    0    0 -0.26319841486E-02 -0.96171657752E-02  0.25394565726E-01  0.27281883853E-01  0.00000000000E+00 0.  1.
     999901    1    3    3    0    0  0.93053421538E-01 -0.77329095578E-01 -0.87997747999E-02  0.88832210618E+00  0.88000000000E+00 0. -1.
        -11    1    4    4    0    0 -0.39196475508E-01  0.49334185293E-01 -0.16178779566E-02  0.63032564448E-01  0.51100000000E-03 0. -1.
         11    1    4    4    0    0 -0.51224961881E-01  0.37612076060E-01 -0.14976912970E-01  0.65293445524E-01  0.51100000000E-03 0.  1.
</event>
<event>
 8    1  0.1088088E+005  0.1043930E+01  0.7957747E-01            NaN
         13   -1    0    0    0    0  0.00000000000E+00  0.00000000000E+00  0.74505805969E-08  0.10566000000E+00  0.10566000000E+00 0. -1.
     999900   -1    0    0    0    0 -0.00000000000E+00 -0.00000000000E+00 -0.74505805969E-08  0.93827000000E+00  0.93827000000E+00 0. -1.
     999902    2    1    2    0    0 -0.23732689943E-02  0.27810839186E-01  0.58944209412E-02  0.10154024803E+01  0.10150016639E+01 0.  0.
     999903    2    3    3    0    0 -0.95031051955E-01  0.84107041253E-01  0.14989830640E-02  0.12873791747E+00  0.21594194119E-01 0.  0.
         14    1    1    2    0    0  0.23732689943E-02 -0.27810839186E-01 -0.58944209412E-02  0.28527519699E-01  0.00000000000E+00 0.  1.
     999901    1    3    3    0    0  0.92657782960E-01 -0.56296202067E-01  0.43954378772E-02  0.88666456283E+00  0.88000000000E+00 0.  1.
        -11    1    4    4    0    0 -0.48344530576E-01  0.36846889610E-01  0.10531085274E-01  0.61693206990E-01  0.51100000000E-03 0.  1.
         11    1    4    4    0    0 -0.46686521378E-01  0.47260151643E-01 -0.90321022104E-02  0.67044710478E-01  0.51100000000E-03 0. -1.
</event>
<event>
 7    1  0.1088088E+005  0.1043930E+01  0.7957747E-01            NaN
         13   -1    0    0    0    0  0.00000000000E+00  0.00000000000E+00  0.74505805969E-08  0.10566000000E+00  0.10566000000E+00 0.  1.
     999900   -1    0    0    0    0 -0.00000000000E+00 -0.00000000000E+00 -0.74505805969E-08  0.93827000000E+00  0.93827000000E+00 0.  1.
     999902    2    1    2    0    0  0.13416913682E-02 -0.10238688760E-01 -0.22123145438E-01  0.10195155689E+01  0.10192231997E+01 0.  0.
         14    1    1    2    0    0 -0.13416913682E-02  0.10238688760E-01  0.22123145438E-01  0.24414431128E-01  0.00000000000E+00 0.  1.
     999901    1    3    3    0    0 -0.34079648342E-01 -0.66172802448E-02  0.10081411043E+00  0.88643595126E+00  0.88000000000E+00 0. -1.
        -11    1    3    3    0    0 -0.21864663124E-02 -0.10770050091E-01 -0.15363859597E-01  0.18896664166E-01  0.51100000000E-03 0. -1.
         11    1    3    3    0    0  0.37607806022E-01  0.71486415757E-02 -0.10757339627E+00  0.11418295344E+00  0.51100000000E-03 0.  1.
</event>
<event>
 8    1  0.1088088E+005  0.1043930E+01  0.7957747E-01            NaN
         13   -1    0    0    0    0  0.00000000000E+00  0.00000000000E+00  0.74505805969E-08  0.10566000000E+00  0.10566000000E+00 0. -1.
     999900   -1    0    0    0    0 -0.00000000000E+00 -0.00000000000E+00 -0.74505805969E-08  0.93827000000E+00  0.93827000000E+00 0.  1.
     999902    2    1    2    0    0  0.14451622894E-01 -0.17101628810E-01 -0.78417957301E-02  0.10202064068E+01  0.10199305387E+01 0.  0.
     999903    2    3    3    0    0 -0.10877277619E+00 -0.69364259311E-01 -0.32295076403E-02  0.13007332225E+00  0.16300985648E-01 0.  0.
         14    1    1    2    0    0 -0.14451622894E-01  0.17101628810E-01  0.78417957301E-02  0.23723593162E-01  0.00000000000E+00 0. -1.
     999901    1    3    3    0    0  0.12322439908E+00  0.52262630501E-01 -0.46122880898E-02  0.89013308459E+00  0.88000000000E+00 0.  1.
        -11    1    4    4    0    0 -0.63857598033E-01 -0.32826052629E-01 -0.63797624732E-02  0.72085401074E-01  0.51100000000E-03 0.  1.
         11    1    4    4    0    0 -0.44915178152E-01 -0.36538206682E-01  0.31502548329E-02  0.57987921178E-01  0.51100000000E-03 0. -1.
</event>
<event>
 8    1  0.1088088E+005  0.1043930E+01  0.7957747E-01            NaN
         13   -1    0    0    0    0  0.00000000000E+00  0.00000000000E+00  0.74505805969E-08  0.10566000000E+00  0.10566000000E+00 0.  1.
     999900   -1    0    0    0    0 -0.00000000000E+00 -0.00000000000E+00 -0.74505805969E-08  0.93827000000E+00  0.93827000000E+00 0.  1.
     999902    2    1    2    0    0  0.41681489087E-02 -0.12225210344E-01  0.20434089774E-01  0.10197560211E+01  0.10194694508E+01 0.  0.
     999903    2    3    3    0    0 -0.70938742513E-01 -0.98489731895E-01  0.47740710045E-01  0.13193381795E+00  0.19870189833E-01 0.  0.
         14    1    1    2    0    0 -0.41681489087E-02  0.12225210344E-01 -0.20434089774E-01  0.24173978948E-01  0.00000000000E+00 0. -1.
     999901    1    3    3    0    0  0.75106891422E-01  0.86264521552E-01 -0.27306620271E-01  0.88782220311E+00  0.88000000000E+00 0.  1.
        -11    1    4    4    0    0 -0.29468707014E-01 -0.37628001418E-01  0.87175698793E-02  0.48585268646E-01  0.51100000000E-03 0.  1.
         11    1    4    4    0    0 -0.41470035499E-01 -0.60861730477E-01  0.39023140166E-01  0.83348549300E-01  0.51100000000E-03 0. -1.
</event>
<event>
 8    1  0.1088088E+005  0.1043930E+01  0.7957747E-01            NaN
         13   -1    0    0    0    0  0.00000000000E+00  0.00000000000E+00  0.74505805969E-08  0.10566000000E+00  0.10566000000E+00 0. -1.
     999900   -1    0    0    0    0 -0.00000000000E+00 -0.00000000000E+00 -0.74505805969E-08  0.93827000000E+00  0.93827000000E+00 0. -1.
     999902    2    1    2    0    0 -0.68851431216E-02 -0.20184528594E-01 -0.11680963419E-01  0.10196140526E+01  0.10193240657E+01 0.  0.
     999903    2    3    3    0    0 -0.83825707306E-01 -0.96899473069E-01 -0.28141155629E-01  0.13277924780E+00  0.20546214236E-01 0.  0.
         14    1    1    2    0    0  0.68851431216E-02  0.20184528594E-01  0.11680963419E-01  0.24315947376E-01  0.00000000000E+00 0. -1.
     999901    1    3    3    0    0  0.76940564184E-01  0.76714944475E-01  0.16460192210E-01  0.88683480483E+00  0.88000000000E+00 0.  1.
        -11    1    4    4    0    0 -0.71204087773E-01 -0.91686449283E-01 -0.24712765801E-01  0.11869039141E+00  0.51100000000E-03 0. -1.
         11    1    4    4    0    0 -0.12621619533E-01 -0.52130237866E-02 -0.34283898279E-02  0.14088856392E-01  0.51100000000E-03 0.  1.
</event>
<event>
 8    1  0.1088088E+005  0.1043930E+01  0.7957747E-01            NaN
         13   -1    0    0    0    0  0.00000000000E+00  0.00000000000E+00  0.74505805969E-08  0.10566000000E+00  0.10566000000E+00 0.  1.
     999900   -1    0    0    0    0 -0.00000000000E+00 -0.00000000000E+00 -0.74505805969E-08  0.93827000000E+00  0.93827000000E+00 0. -1.
     999902    2    1    2    0    0  0.10539932622E-01  0.12099945574E-03  0.21119903702E-01  0.10203258658E+01  0.10200528012E+01 0.  0.
     999903    2    3    3    0    0  0.99248535274E-01  0.29120544686E-01  0.81846951900E-01  0.13330953886E+00  0.19345070173E-01 0.  0.
         14    1    1    2    0    0 -0.10539932622E-01 -0.12099945574E-03 -0.21119903702E-01  0.23604134234E-01  0.00000000000E+00 0. -1.
     999901    1    3    3    0    0 -0.88708602653E-01 -0.28999545230E-01 -0.60727048198E-01  0.88701632690E+00  0.88000000000E+00 0. -1.
        -11    1    4    4    0    0  0.89733130774E-01  0.26604938416E-01  0.65559341340E-01  0.11427224451E+00  0.51100000000E-03 0. -1.
         11    1    4    4    0    0  0.95154045002E-02  0.25156062697E-02  0.16287610560E-01  0.19037294357E-01  0.51100000000E-03 0.  1.
</event>
<event>
 8    1  0.1088088E+005  0.1043930E+01  0.7957747E-01            NaN
         13   -1    0    0    0    0  0.00000000000E+00  0.00000000000E+00  0.74505805969E-08  0.10566000000E+00  0.10566000000E+00 0.  1.
     999900   -1    0    0    0    0 -0.00000000000E+00 -0.00000000000E+00 -0.74505805969E-08  0.93827000000E+00  0.93827000000E+00 0. -1.
     999902    2    1    2    0    0 -0.16575675028E-01 -0.56060733074E-02 -0.16323296155E-01  0.10200002892E+01  0.10197195492E+01 0.  0.
     999903    2    3    3    0    0  0.89823018838E-01  0.84760882075E-01 -0.30898795726E-01  0.12887778705E+00  0.20054091237E-01 0.  0.
         14    1    1    2    0    0  0.16575675028E-01  0.56060733074E-02  0.16323296155E-01  0.23929710779E-01  0.00000000000E+00 0.  1.
     999901    1    3    3    0    0 -0.10639869387E+00 -0.90366955382E-01  0.14575499570E-01  0.89112250217E+00  0.88000000000E+00 0.  1.
        -11    1    4    4    0    0  0.16827615403E-01  0.24062251166E-01 -0.13661823811E-01  0.32389305676E-01  0.51100000000E-03 0. -1.
         11    1    4    4    0    0  0.72995403435E-01  0.60698630909E-01 -0.17236971915E-01  0.96488481378E-01  0.51100000000E-03 0.  1.
</event>
<event>
 8    1  0.1088088E+005  0.1043930E+01  0.7957747E-01            NaN
         13   -1    0    0    0    0  0.00000000000E+00  0.00000000000E+00  0.74505805969E-08  0.10566000000E+00  0.10566000000E+00 0. -1.
     999900   -1    0    0    0    0 -0.00000000000E+00 -0.00000000000E+00 -0.74505805969E-08  0.93827000000E+00  0.93827000000E+00 0.  1.
     999902    2    1    2    0    0 -0.50002147673E-02 -0.22354075022E-01  0.41423327824E-02  0.10206519902E+01  0.10203865049E+01 0.  0.
     999903    2    3    3    0    0 -0.50231306153E-02 -0.99866901125E-01  0.86238459377E-01  0.13343836729E+00  0.19237884698E-01 0.  0.
         14    1    1    2    0    0  0.50002147673E-02  0.22354075022E-01 -0.41423327824E-02  0.23278009766E-01  0.00000000000E+00 0. -1.
     999901    1    3    3    0    0  0.22915848018E-04  0.77512826104E-01 -0.82096126595E-01  0.88721362294E+00  0.88000000000E+00 0.  1.
        -11    1    4    4    0    0  0.45764376371E-02 -0.48386985559E-01  0.50143211520E-01  0.69834425146E-01  0.51100000000E-03 0. -1.
         11    1    4    4    0    0 -0.95995682524E-02 -0.51479915567E-01  0.36095247857E-01  0.63603942144E-01  0.51100000000E-03 0.  1.
</event>
<event>
 8    1  0.1088088E+005  0.1043930E+01  0.7957747E-01            NaN
         13   -1    0    0    0    0  0.00000000000E+00  0.00000000000E+00  0.74505805969E-08  0.10566000000E+00  0.10566000000E+00 0. -1.
     999900   -1    0    0    0    0 -0.00000000000E+00 -0.00000000000E+00 -0.74505805969E-08  0.93827000000E+00  0.93827000000E+00 0.  1.
     999902    2    1    2    0    0 -0.16561820122E-01 -0.86101971765E-02 -0.13928046966E-01  0.10206400907E+01  0.10203743308E+01 0.  0.
     999903    2    3    3    0    0  0.75564390443E-01 -0.40684881644E-01  0.93802167512E-01  0.12871978983E+00  0.20117180885E-01 0.  0.
         14    1    1    2    0    0  0.16561820122E-01  0.86101971765E-02  0.13928046966E-01  0.23289909263E-01  0.00000000000E+00 0. -1.
     999901    1    3    3    0    0 -0.92126210565E-01  0.32074684468E-01 -0.10773021448E+00  0.89192030091E+00  0.88000000000E+00 0.  1.
        -11    1    4    4    0    0  0.14094479957E-01 -0.85370139585E-02  0.31154715568E-01  0.35247870797E-01  0.51100000000E-03 0. -1.
         11    1    4    4    0    0  0.61469910486E-01 -0.32147867686E-01  0.62647451945E-01  0.93471919034E-01  0.51100000000E-03 0.  1.
</event>
<event>
 8    1  0.1088088E+005  0.1043930E+01  0.7957747E-01            NaN
         13   -1    0    0    0    0  0.00000000000E+00  0.00000000000E+00  0.74505805969E-08  0.10566000000E+00  0.10566000000E+00 0. -1.
     999900   -1    0    0    0    0 -0.00000000000E+00 -0.00000000000E+00 -0.74505805969E-08  0.93827000000E+00  0.93827000000E+00 0. -1.
     999902    2    1    2    0    0 -0.21241195453E-01 -0.68980013283E-02 -0.78567505715E-02  0.10202551328E+01  0.10199804100E+01 0.  0.
     999903    2    3    3    0    0 -0.10409578013E+00 -0.69761469955E-01 -0.41008025357E-01  0.13351069110E+00  0.20996484545E-01 0.  0.
         14    1    1    2    0    0  0.21241195453E-01  0.68980013283E-02  0.78567505715E-02  0.23674867183E-01  0.00000000000E+00 0.  1.
     999901    1    3    3    0    0  0.82854584681E-01  0.62863468627E-01  0.33151274785E-01  0.88674444171E+00  0.88000000000E+00 0.  1.
        -11    1    4    4    0    0 -0.10943543005E-01 -0.59053137808E-02  0.21052136327E-02  0.12622476373E-01  0.51100000000E-03 0. -1.
         11    1    4    4    0    0 -0.93152237129E-01 -0.63856156174E-01 -0.43113238990E-01  0.12088821473E+00  0.51100000000E-03 0.  1.
</event>
<event>
 8    1  0.1088088E+005  0.1043930E+01  0.7957747E-01            NaN
         13   -1    0    0    0    0  0.00000000000E+00  0.00000000000E+00  0.74505805969E-08  0.10566000000E+00  0.10566000000E+00 0.  1.
     999900   -1    0    0    0    0 -0.00000000000E+00 -0.00000000000E+00 -0.74505805969E-08  0.93827000000E+00  0.93827000000E+00 0. -1.
     999902    2    1    2    0    0  0.11052838211E-01  0.83680000363E-02 -0.19609883015E-01  0.10199146680E+01  0.10196318914E+01 0.  0.
     999903    2    3    3    0    0  0.97443615546E-01 -0.14485122471E-01 -0.87294841729E-01  0.13280312756E+00  0.17640983940E-01 0.  0.
         14    1    1    2    0    0 -0.11052838211E-01 -0.83680000363E-02  0.19609883015E-01  0.24015331957E-01  0.00000000000E+00 0.  1.
     999901    1    3    3    0    0 -0.86390777335E-01  0.22853122507E-01  0.67684958715E-01  0.88711154048E+00  0.88000000000E+00 0.  1.
        -11    1    4    4    0    0  0.69572341407E-01 -0.29138845956E-02 -0.56378693986E-01  0.89596984709E-01  0.51100000000E-03 0.  1.
         11    1    4    4    0    0  0.27871274139E-01 -0.11571237875E-01 -0.30916147743E-01  0.43206142854E-01  0.51100000000E-03 0. -1.
</event>
<event>
 8    1  0.1088088E+005  0.1043930E+01  0.7957747E-01            NaN
         13   -1    0    0    0    0  0.00000000000E+00  0.00000000000E+00  0.74505805969E-08  0.10566000000E+00  0.10566000000E+00 0.  1.
     999900   -1    0    0    0    0 -0.00000000000E+00 -0.00000000000E+00 -0.74505805969E-08  0.93827000000E+00  0.93827000000E+00 0. -1.
     999902    2    1    2    0    0  0.89863487453E-02 -0.44320564808E-02  0.24927397113E-01  0.10170641720E+01  0.10167092786E+01 0.  0.
     999903    2    3    3    0    0  0.72395919094E-01  0.69891869013E-01  0.79805175426E-01  0.12995854689E+00  0.19857377197E-01 0.  0.
         14    1    1    2    0    0 -0.89863487453E-02  0.44320564808E-02 -0.24927397113E-01  0.26865828021E-01  0.00000000000E+00 0. -1.
     999901    1    3    3    0    0 -0.63409570349E-01 -0.74323925494E-01 -0.54877778313E-01  0.88710562509E+00  0.88000000000E+00 0. -1.
        -11    1    4    4    0    0  0.30978772922E-01  0.41799164391E-01  0.34324052055E-01  0.62331823221E-01  0.51100000000E-03 0.  1.
         11    1    4    4    0    0  0.41417146172E-01  0.28092704621E-01  0.45481123372E-01  0.67626723668E-01  0.51100000000E-03 0. -1.
</event>
<event>
 8    1  0.1088088E+005  0.1043930E+01  0.7957747E-01            NaN
         13   -1    0    0    0    0  0.00000000000E+00  0.00000000000E+00  0.74505805969E-08  0.10566000000E+00  0.10566000000E+00 0.  1.
     999900   -1    0    0    0    0 -0.00000000000E+00 -0.00000000000E+00 -0.74505805969E-08  0.93827000000E+00  0.93827000000E+00 0.  1.
     999902    2    1    2    0    0  0.33826915980E-02  0.22885132096E-01 -0.53431390427E-02  0.10201871904E+01  0.10199108698E+01 0.  0.
     999903    2    3    3    0    0  0.99910668920E-01 -0.64459926746E-01  0.46529538763E-01  0.12909932468E+00  0.19089623746E-01 0.  0.
         14    1    1    2    0    0 -0.33826915980E-02 -0.22885132096E-01  0.53431390427E-02  0.23742809613E-01  0.00000000000E+00 0. -1.
     999901    1    3    3    0    0 -0.96527977322E-01  0.87345058842E-01 -0.51872677806E-01  0.89108786571E+00  0.88000000000E+00 0.  1.
        -11    1    4    4    0    0  0.56741232449E-01 -0.42462623913E-01  0.19016323726E-01  0.73379313015E-01  0.51100000000E-03 0.  1.
         11    1    4    4    0    0  0.43169436471E-01 -0.21997302833E-01  0.27513215037E-01  0.55720011664E-01  0.51100000000E-03 0. -1.
</event>
<event>
 8    1  0.1088088E+005  0.1043930E+01  0.7957747E-01            NaN
         13   -1    0    0    0    0  0.00000000000E+00  0.00000000000E+00  0.74505805969E-08  0.10566000000E+00  0.10566000000E+00 0.  1.
     999900   -1    0    0    0    0 -0.00000000000E+00 -0.00000000000E+00 -0.74505805969E-08  0.93827000000E+00  0.93827000000E+00 0. -1.
     999902    2    1    2    0    0 -0.26433807116E-01  0.88222699350E-02  0.84781031365E-02  0.10148017176E+01  0.10143835907E+01 0.  0.
     999903    2    3    3    0    0 -0.21419151056E-01 -0.29182995478E-01 -0.11789120196E+00  0.12494850031E+00  0.20083948157E-01 0.  0.
         14    1    1    2    0    0  0.26433807116E-01 -0.88222699350E-02 -0.84781031365E-02  0.29128282446E-01  0.00000000000E+00 0.  1.
     999901    1    3    3    0    0 -0.50146560607E-02  0.38005265413E-01  0.12636930509E+00  0.88985321725E+00  0.88000000000E+00 0.  1.
        -11    1    4    4    0    0 -0.21501788386E-01 -0.31981261399E-01 -0.10901140600E+00  0.11562385457E+00  0.51100000000E-03 0. -1.
         11    1    4    4    0    0  0.82637330037E-04  0.27982659205E-02 -0.88797959503E-02  0.93246457417E-02  0.51100000000E-03 0.  1.
</event>
<event>
 8    1  0.1088088E+005  0.1043930E+01  0.7957747E-01            NaN
         13   -1    0    0    0    0  0.00000000000E+00  0.00000000000E+00  0.74505805969E-08  0.10566000000E+00  0.10566000000E+00 0.  1.
     999900   -1    0    0    0    0 -0.00000000000E+00 -0.00000000000E+00 -0.74505805969E-08  0.93827000000E+00  0.93827000000E+00 0. -1.
     999902    2    1    2    0    0 -0.98185226401E-02 -0.69943841398E-02 -0.20670492081E-01  0.10200010627E+01  0.10197203410E+01 0.  0.
     999903    2    3    3    0    0  0.12256296350E+00 -0.34800593708E-01  0.27544715701E-02  0.12935704176E+00  0.22201256603E-01 0.  0.
         14    1    1    2    0    0  0.98185226401E-02  0.69943841398E-02  0.20670492081E-01  0.23928937277E-01  0.00000000000E+00 0.  1.
     999901    1    3    3    0    0 -0.13238148614E+00  0.27806209568E-01 -0.23424963651E-01  0.89064402097E+00  0.88000000000E+00 0. -1.
        -11    1    4    4    0    0  0.84066240165E-01 -0.19248987347E-01 -0.75558134747E-02  0.86573712451E-01  0.51100000000E-03 0.  1.
         11    1    4    4    0    0  0.38496723332E-01 -0.15551606361E-01  0.10310285045E-01  0.42783329305E-01  0.51100000000E-03 0. -1.
</event>
<event>
 8    1  0.1088088E+005  0.1043930E+01  0.7957747E-01            NaN
         13   -1    0    0    0    0  0.00000000000E+00  0.00000000000E+00  0.74505805969E-08  0.10566000000E+00  0.10566000000E+00 0.  1.
     999900   -1    0    0    0    0 -0.00000000000E+00 -0.00000000000E+00 -0.74505805969E-08  0.93827000000E+00  0.93827000000E+00 0.  1.
     999902    2    1    2    0    0  0.10531560911E-01 -0.23655234155E-01 -0.18005673785E-02  0.10179737691E+01  0.10176428002E+01 0.  0.
     999903    2    3    3    0    0  0.43950492251E-01 -0.11676823042E+00 -0.36347735188E-01  0.13175688718E+00  0.21731407250E-01 0.  0.
         14    1    1    2    0    0 -0.10531560911E-01  0.23655234155E-01  0.18005673785E-02  0.25956230871E-01  0.00000000000E+00 0.  1.
     999901    1    3    3    0    0 -0.33418931340E-01  0.93112996268E-01  0.34547167809E-01  0.88621688195E+00  0.88000000000E+00 0. -1.
        -11    1    4    4    0    0  0.21545442936E-01 -0.29750374434E-01 -0.12240905031E-01  0.38721980415E-01  0.51100000000E-03 0.  1.
         11    1    4    4    0    0  0.22405049315E-01 -0.87017855989E-01 -0.24106830157E-01  0.93034906766E-01  0.51100000000E-03 0. -1.
</event>
<event>
 8    1  0.1088088E+005  0.1043930E+01  0.7957747E-01            NaN
         13   -1    0    0    0    0  0.00000000000E+00  0.00000000000E+00  0.74505805969E-08  0.10566000000E+00  0.10566000000E+00 0. -1.
     999900   -1    0    0    0    0 -0.00000000000E+00 -0.00000000000E+00 -0.74505805969E-08  0.93827000000E+00  0.93827000000E+00 0.  1.
     999902    2    1    2    0    0  0.13621723905E-01  0.15391237892E-01 -0.13457346744E-01  0.10193629133E+01  0.10190668316E+01 0.  0.
     999903    2    3    3    0    0 -0.73874320759E-01  0.48215897907E-01 -0.94421698047E-01  0.13071886630E+00  0.19742767458E-01 0.  0.
         14    1    1    2    0    0 -0.13621723905E-01 -0.15391237892E-01  0.13457346744E-01  0.24567086669E-01  0.00000000000E+00 0. -1.
     999901    1    3    3    0    0  0.87496044665E-01 -0.32824660014E-01  0.80964351303E-01  0.88864404703E+00  0.88000000000E+00 0. -1.
        -11    1    4    4    0    0 -0.42228592891E-01  0.27983388505E-01 -0.39791469178E-01  0.64420076297E-01  0.51100000000E-03 0. -1.
         11    1    4    4    0    0 -0.31645727869E-01  0.20232509402E-01 -0.54630228869E-01  0.66298790006E-01  0.51100000000E-03 0.  1.
</event>
<event>
 8    1  0.1088088E+005  0.1043930E+01  0.7957747E-01            NaN
         13   -1    0    0    0    0  0.00000000000E+00  0.00000000000E+00  0.74505805969E-08  0.10566000000E+00  0.10566000000E+00 0. -1.
     999900   -1    0    0    0    0 -0.00000000000E+00 -0.00000000000E+00 -0.74505805969E-08  0.93827000000E+00  0.93827000000E+00 0. -1.
     999902    2    1    2    0    0  0.10925086265E-01 -0.75062441724E-02 -0.19577219593E-01  0.10202874803E+01  0.10200135164E+01 0.  0.
     999903    2    3    3    0    0  0.75867327830E-01  0.10267030098E+00  0.11625876806E-01  0.13049537026E+00  0.24430278604E-01 0.  0.
         14    1    1    2    0    0 -0.10925086265E-01  0.75062441724E-02  0.19577219593E-01  0.23642519715E-01  0.00000000000E+00 0. -1.
     999901    1    3    3    0    0 -0.64942241565E-01 -0.11017654515E+00 -0.31203096400E-01  0.88979211003E+00  0.88000000000E+00 0.  1.
        -11    1    4    4    0    0  0.47279063820E-01  0.68871000588E-01 -0.37681582739E-02  0.83624067920E-01  0.51100000000E-03 0. -1.
         11    1    4    4    0    0  0.28588264009E-01  0.33799300388E-01  0.15394035080E-01  0.46871302338E-01  0.51100000000E-03 0.  1.
</event>
<event>
 8    1  0.1088088E+005  0.1043930E+01  0.7957747E-01            NaN
         13   -1    0    0    0    0  0.00000000000E+00  0.00000000000E+00  0.74505805969E-08  0.10566000000E+00  0.10566000000E+00 0.  1.
     999900   -1    0    0    0    0 -0.00000000000E+00 -0.00000000000E+00 -0.74505805969E-08  0.93827000000E+00  0.93827000000E+00 0. -1.
     999902    2    1    2    0    0  0.13319836494E-01 -0.16004074908E-01 -0.13958257996E-01  0.10188624627E+01  0.10185540420E+01 0.  0.
     999903    2    3    3    0    0 -0.10650397133E+00  0.13931314112E-01  0.64575027840E-01  0.12677426675E+00  0.19094582182E-01 0.  0.
         14    1    1    2    0    0 -0.13319836494E-01  0.16004074908E-01  0.13958257996E-01  0.25067537258E-01  0.00000000000E+00 0.  1.
     999901    1    3    3    0    0  0.11982380782E+00 -0.29935389020E-01 -0.78533285837E-01  0.89208819599E+00  0.88000000000E+00 0.  1.
        -11    1    4    4    0    0 -0.90195373590E-01  0.17911733923E-01  0.58098076877E-01  0.10877354130E+00  0.51100000000E-03 0.  1.
         11    1    4    4    0    0 -0.16308597739E-01 -0.39804198109E-02  0.64769509631E-02  0.18000725454E-01  0.51100000000E-03 0. -1.
</event>
<event>
 8    1  0.1088088E+005  0.1043930E+01  0.7957747E-01            NaN
         13   -1    0    0    0    0  0.00000000000E+00  0.00000000000E+00  0.74505805969E-08  0.10566000000E+00  0.10566000000E+00 0. -1.
     999900   -1    0    0    0    0 -0.00000000000E+00 -0.00000000000E+00 -0.74505805969E-08  0.93827000000E+00  0.93827000000E+00 0. -1.
     999902    2    1    2    0    0  0.38790823138E-02 -0.16332285191E-02  0.23949334070E-01  0.10196136410E+01  0.10193236441E+01 0.  0.
     999903    2    3    3    0    0 -0.41519686612E-01  0.10493957957E+00  0.63646266020E-01  0.13113479593E+00  0.20230862252E-01 0.  0.
         14    1    1    2    0    0 -0.38790823138E-02  0.16332285191E-02 -0.23949334070E-01  0.24316359049E-01  0.00000000000E+00 0.  1.
     999901    1    3    3    0    0  0.45398768926E-01 -0.10657280809E+00 -0.39696931950E-01  0.88847884502E+00  0.88000000000E+00 0. -1.
        -11    1    4    4    0    0 -0.24113861188E-01  0.50602476149E-01  0.20845636434E-01  0.59807111393E-01  0.51100000000E-03 0. -1.
         11    1    4    4    0    0 -0.17405825424E-01  0.54337103425E-01  0.42800629587E-01  0.71327684536E-01  0.51100000000E-03 0.  1.
</event>
<event>
 8    1  0.1088088E+005  0.1043930E+01  0.7957747E-01            NaN
         13   -1    0    0    0    0  0.00000000000E+00  0.00000000000E+00  0.74505805969E-08  0.10566000000E+00  0.10566000000E+00 0.  1.
     999900   -1    0    0    0    0 -0.00000000000E+00 -0.00000000000E+00 -0.74505805969E-08  0.93827000000E+00  0.93827000000E+00 0. -1.
     999902    2    1    2    0    0 -0.21570490348E-01  0.96336297210E-03  0.10427439470E-01  0.10199519764E+01  0.10196700881E+01 0.  0.
     999903    2    3    3    0    0  0.54317539401E-02  0.70995963369E-01 -0.10583204269E+00  0.12913776821E+00  0.20154680663E-01 0.  0.
         14    1    1    2    0    0  0.21570490348E-01 -0.96336297210E-03 -0.10427439470E-01  0.23978023605E-01  0.00000000000E+00 0.  1.
     999901    1    3    3    0    0 -0.27002244289E-01 -0.70032600397E-01  0.11625948216E+00  0.89081420819E+00  0.88000000000E+00 0.  1.
        -11    1    4    4    0    0 -0.24762044784E-02  0.61375182595E-01 -0.85243313750E-01  0.10507011129E+00  0.51100000000E-03 0.  1.
         11    1    4    4    0    0  0.79079584185E-02  0.96207807736E-02 -0.20588728939E-01  0.24067656915E-01  0.51100000000E-03 0. -1.
</event>
<event>
 8    1  0.1088088E+005  0.1043930E+01  0.7957747E-01            NaN
         13   -1    0    0    0    0  0.00000000000E+00  0.00000000000E+00  0.74505805969E-08  0.10566000000E+00  0.10566000000E+00 0. -1.
     999900   -1    0    0    0    0 -0.00000000000E+00 -0.00000000000E+00 -0.74505805969E-08  0.93827000000E+00  0.93827000000E+00 0. -1.
     999902    2    1    2    0    0 -0.22887069890E-01  0.10549626629E-01  0.28454235289E-02  0.10185684341E+01  0.10182526435E+01 0.  0.
     999903    2    3    3    0    0  0.94008774384E-01  0.82076194173E-01 -0.18021004729E-01  0.12771710188E+00  0.20316254352E-01 0.  0.
         14    1    1    2    0    0  0.22887069890E-01 -0.10549626629E-01 -0.28454235289E-02  0.25361565906E-01  0.00000000000E+00 0.  1.
     999901    1    3    3    0    0 -0.11689584427E+00 -0.71526567545E-01  0.20866428258E-01  0.89085133221E+00  0.88000000000E+00 0.  1.
        -11    1    4    4    0    0  0.37080210561E-01  0.20464487676E-01 -0.94135538682E-02  0.43389092967E-01  0.51100000000E-03 0.  1.
         11    1    4    4    0    0  0.56928563823E-01  0.61611706497E-01 -0.86074508612E-02  0.84328008916E-01  0.51100000000E-03 0. -1.
</event>
<event>
 7    1  0.1088088E+005  0.1043930E+01  0.7957747E-01            NaN
         13   -1    0    0    0    0  0.00000000000E+00  0.00000000000E+00  0.74505805969E-08  0.10566000000E+00  0.10566000000E+00 0.  1.
     999900   -1    0    0    0    0 -0.00000000000E+00 -0.00000000000E+00 -0.74505805969E-08  0.93827000000E+00  0.93827000000E+00 0.  1.
     999902    2    1    2    0    0  0.12879104840E-01  0.15017683053E-01 -0.14446752190E-01  0.10194328411E+01  0.10191384630E+01 0.  0.
         14    1    1    2    0    0 -0.12879104840E-01 -0.15017683053E-01  0.14446752190E-01  0.24497158909E-01  0.00000000000E+00 0.  1.
     999901    1    3    3    0    0  0.69538707633E-02  0.18248403282E-01  0.96042065310E-01  0.88544081612E+00  0.88000000000E+00 0. -1.
        -11    1    3    3    0    0 -0.15865379886E-01 -0.27914453933E-01 -0.89138905064E-01  0.94746675584E-01  0.51100000000E-03 0.  1.
         11    1    3    3    0    0  0.21790613963E-01  0.24683733705E-01 -0.21349912436E-01  0.39245349387E-01  0.51100000000E-03 0. -1.
</event>
<event>
 8    1  0.1088088E+005  0.1043930E+01  0.7957747E-01            NaN
         13   -1    0    0    0    0  0.00000000000E+00  0.00000000000E+00  0.74505805969E-08  0.10566000000E+00  0.10566000000E+00 0. -1.
     999900   -1    0    0    0    0 -0.00000000000E+00 -0.00000000000E+00 -0.74505805969E-08  0.93827000000E+00  0.93827000000E+00 0.  1.
     999902    2    1    2    0    0 -0.34567241205E-02 -0.21449006040E-01 -0.10461193200E-01  0.10198168218E+01  0.10195317085E+01 0.  0.
     999903    2    3    3    0    0 -0.16506761690E-01 -0.16742517912E-01 -0.12887786159E+00  0.13177686665E+00  0.14242692464E-01 0.  0.
         14    1    1    2    0    0  0.34567241205E-02  0.21449006040E-01  0.10461193200E-01  0.24113178242E-01  0.00000000000E+00 0.  1.
     999901    1    3    3    0    0  0.13050037570E-01 -0.47064881278E-02  0.11841666839E+00  0.88803995511E+00  0.88000000000E+00 0. -1.
        -11    1    4    4    0    0 -0.11280898427E-01 -0.23879986084E-02 -0.41638323076E-01  0.43208474588E-01  0.51100000000E-03 0. -1.
         11    1    4    4    0    0 -0.52258632631E-02 -0.14354519304E-01 -0.87239538516E-01  0.88568392064E-01  0.51100000000E-03 0.  1.
</event>
<event>
 8    1  0.1088088E+005  0.1043930E+01  0.7957747E-01            NaN
         13   -1    0    0    0    0  0.00000000000E+00  0.00000000000E+00  0.74505805969E-08  0.10566000000E+00  0.10566000000E+00 0. -1.
     999900   -1    0    0    0    0 -0.00000000000E+00 -0.00000000000E+00 -0.74505805969E-08  0.93827000000E+00  0.93827000000E+00 0. -1.
     999902    2    1    2    0    0  0.29497821808E-02 -0.15320255689E-01 -0.17660647088E-01  0.10203649856E+01  0.10200928359E+01 0.  0.
     999903    2    3    3    0    0  0.11116922916E+00  0.36463247898E-01  0.51970291822E-01  0.12949942467E+00  0.19519830951E-01 0.  0.
         14    1    1    2    0    0 -0.29497821808E-02  0.15320255689E-01  0.17660647088E-01  0.23565014425E-01  0.00000000000E+00 0. -1.
     999901    1    3    3    0    0 -0.10821944697E+00 -0.51783503587E-01 -0.69630938910E-01  0.89086556090E+00  0.88000000000E+00 0. -1.
        -11    1    4    4    0    0  0.80754093651E-01  0.35205940725E-01  0.36635901819E-01  0.95410336583E-01  0.51100000000E-03 0.  1.
         11    1    4    4    0    0  0.30415135504E-01  0.12573071729E-02  0.15334390003E-01  0.34089088090E-01  0.51100000000E-03 0. -1.
</event>
<event>
 8    1  0.1088088E+005  0.1043930E+01  0.7957747E-01            NaN
         13   -1    0    0    0    0  0.00000000000E+00  0.00000000000E+00  0.74505805969E-08  0.10566000000E+00  0.10566000000E+00 0. -1.
     999900   -1    0    0    0    0 -0.00000000000E+00 -0.00000000000E+00 -0.74505805969E-08  0.93827000000E+00  0.93827000000E+00 0. -1.
     999902    2    1    2    0    0  0.55608892865E-02 -0.59596964222E-02 -0.21501214511E-01  0.10209355725E+01  0.10206765891E+01 0.  0.
     999903    2    3    3    0    0 -0.72029312052E-01  0.74993056034E-01  0.72847662085E-01  0.12881713977E+00  0.21792048561E-01 0.  0.
         14    1    1    2    0    0 -0.55608892865E-02  0.59596964222E-02  0.21501214511E-01  0.22994427511E-01  0.00000000000E+00 0. -1.
     999901    1    3    3    0    0  0.77590201338E-01 -0.80952752456E-01 -0.94348876597E-01  0.89211843271E+00  0.88000000000E+00 0. -1.
        -11    1    4    4    0    0 -0.18985747000E-01  0.30202644500E-01  0.16069970286E-01  0.39130082928E-01  0.51100000000E-03 0. -1.
         11    1    4    4    0    0 -0.53043565051E-01  0.44790411533E-01  0.56777691800E-01  0.89687056846E-01  0.51100000000E-03 0.  1.
</event>
<event>
 8    1  0.1088088E+005  0.1043930E+01  0.7957747E-01            NaN
         13   -1    0    0    0    0  0.00000000000E+00  0.00000000000E+00  0.74505805969E-08  0.10566000000E+00  0.10566000000E+00 0.  1.
     999900   -1    0    0    0    0 -0.00000000000E+00 -0.00000000000E+00 -0.74505805969E-08  0.93827000000E+00  0.93827000000E+00 0.  1.
     999902    2    1    2    0    0  0.11173133859E-01  0.19143987147E-01 -0.89670565136E-02  0.10200189300E+01  0.10197386324E+01 0.  0.
     999903    2    3    3    0    0 -0.18301071672E-01  0.26236081254E-01  0.12383628257E+00  0.12953829945E+00  0.20530098857E-01 0.  0.
         14    1    1    2    0    0 -0.11173133859E-01 -0.19143987147E-01  0.89670565136E-02  0.23911069960E-01  0.00000000000E+00 0.  1.
     999901    1    3    3    0    0  0.29474205531E-01 -0.70920941069E-02 -0.13280333908E+00  0.89048063059E+00  0.88000000000E+00 0.  1.
        -11    1    4    4    0    0 -0.18752148229E-02 -0.34188579110E-02  0.95201748891E-02  0.10300479162E-01  0.51100000000E-03 0.  1.
         11    1    4    4    0    0 -0.16425856849E-01  0.29654939165E-01  0.11431610768E+00  0.11923782028E+00  0.51100000000E-03 0. -1.
</event>
<event>
 8    1  0.1190524E+005  0.1043930E+01  0.7957747E-01            NaN
         13   -1    0    0    0    0  0.00000000000E+00  0.00000000000E+00  0.74505805969E-08  0.10566000000E+00  0.10566000000E+00 0.  1.
     999900   -1    0    0    0    0 -0.00000000000E+00 -0.00000000000E+00 -0.74505805969E-08  0.93827000000E+00  0.93827000000E+00 0. -1.
     999902    2    1    2    0    0 -0.70467878638E-02 -0.11892695748E-01  0.16141252415E-01  0.10226783304E+01  0.10224574974E+01 0.  0.
     999903    2    3    3    0    0 -0.55646277651E-01  0.11744842087E+00  0.19003998858E-01  0.13189259288E+00  0.11994344610E-01 0.  0.
         14    1    1    2    0    0  0.70467878638E-02  0.11892695748E-01 -0.16141252415E-01  0.21251669602E-01  0.00000000000E+00 0. -1.
     999901    1    3    3    0    0  0.48599489787E-01 -0.12934111661E+00 -0.28627464433E-02  0.89078573752E+00  0.88000000000E+00 0.  1.
        -11    1    4    4    0    0 -0.25256857103E-01  0.61679183388E-01  0.14559003008E-01  0.68223574985E-01  0.51100000000E-03 0. -1.
         11    1    4    4    0    0 -0.30389420547E-01  0.55769237478E-01  0.44449958502E-02  0.63669017891E-01  0.51100000000E-03 0.  1.
</event>
<event>
 8    1  0.1088088E+005  0.1043930E+01  0.7957747E-01            NaN
         13   -1    0    0    0    0  0.00000000000E+00  0.00000000000E+00  0.74505805969E-08  0.10566000000E+00  0.10566000000E+00 0.  1.
     999900   -1    0    0    0    0 -0.00000000000E+00 -0.00000000000E+00 -0.74505805969E-08  0.93827000000E+00  0.93827000000E+00 0. -1.
     999902    2    1    2    0    0 -0.31854261868E-03  0.14227708441E-01 -0.14525354989E-01  0.10235949294E+01  0.10233929179E+01 0.  0.
     999903    2    3    3    0    0 -0.17938633685E-03 -0.11472757994E+00 -0.63697150729E-01  0.13283831215E+00  0.20645589949E-01 0.  0.
         14    1    1    2    0    0  0.31854261868E-03 -0.14227708441E-01  0.14525354989E-01  0.20335070554E-01  0.00000000000E+00 0.  1.
     999901    1    3    3    0    0 -0.13915628184E-03  0.12895528838E+00  0.49171795740E-01  0.89075661730E+00  0.88000000000E+00 0.  1.
        -11    1    4    4    0    0  0.62208075047E-02 -0.17045209611E-01 -0.14754601223E-01  0.23392242196E-01  0.51100000000E-03 0.  1.
         11    1    4    4    0    0 -0.64001938416E-02 -0.97682370331E-01 -0.48942549506E-01  0.10944606995E+00  0.51100000000E-03 0. -1.
</event>
<event>
 8    1  0.1088088E+005  0.1043930E+01  0.7957747E-01            NaN
         13   -1    0    0    0    0  0.00000000000E+00  0.00000000000E+00  0.74505805969E-08  0.10566000000E+00  0.10566000000E+00 0.  1.
     999900   -1    0    0    0    0 -0.00000000000E+00 -0.00000000000E+00 -0.74505805969E-08  0.93827000000E+00  0.93827000000E+00 0.  1.
     999902    2    1    2    0    0 -0.22161125527E-01 -0.12967177165E-02 -0.33646745858E-02  0.10214774278E+01  0.10212306388E+01 0.  0.
     999903    2    3    3    0    0  0.55966925804E-01  0.44198215173E-01 -0.10769029667E+00  0.13071504833E+00  0.20085936757E-01 0.  0.
         14    1    1    2    0    0  0.22161125527E-01  0.12967177165E-02  0.33646745858E-02  0.22452572158E-01  0.00000000000E+00 0. -1.
     999901    1    3    3    0    0 -0.78128051330E-01 -0.45494932890E-01  0.10432562209E+00  0.89076237951E+00  0.88000000000E+00 0. -1.
        -11    1    4    4    0    0  0.39420266445E-01  0.41534023879E-01 -0.81115372432E-01  0.99292483663E-01  0.51100000000E-03 0. -1.
         11    1    4    4    0    0  0.16546659359E-01  0.26641912942E-02 -0.26574924239E-01  0.31422564671E-01  0.51100000000E-03 0.  1.
</event>
<event>
 8    1  0.1088088E+005  0.1043930E+01  0.7957747E-01            NaN
         13   -1    0    0    0    0  0.00000000000E+00  0.00000000000E+00  0.74505805969E-08  0.10566000000E+00  0.10566000000E+00 0. -1.
     999900   -1    0    0    0    0 -0.00000000000E+00 -0.00000000000E+00 -0.74505805969E-08  0.93827000000E+00  0.93827000000E+00 0.  1.
     999902    2    1    2    0    0  0.99509735823E-02  0.52159640531E-02 -0.20906098546E-01  0.10201962032E+01  0.10199200948E+01 0.  0.
     999903    2    3    3    0    0  0.10520391348E+00 -0.25074996000E-01  0.69246095287E-01  0.12996135612E+00  0.19957793901E-01 0.  0.
         14    1    1    2    0    0 -0.99509735823E-02 -0.52159640531E-02  0.20906098546E-01  0.23733796844E-01  0.00000000000E+00 0. -1.
     999901    1    3    3    0    0 -0.95252939895E-01  0.30290960053E-01 -0.90152193833E-01  0.89023484703E+00  0.88000000000E+00 0.  1.
        -11    1    4    4    0    0  0.49331621872E-01 -0.21892901978E-01  0.35704436327E-01  0.64714573073E-01  0.51100000000E-03 0.  1.
         11    1    4    4    0    0  0.55872291605E-01 -0.31820940219E-02  0.33541658960E-01  0.65246783050E-01  0.51100000000E-03 0. -1.
</event>
<event>
 8    1  0.1088088E+005  0.1043930E+01  0.7957747E-01            NaN
         13   -1    0    0    0    0  0.00000000000E+00  0.00000000000E+00  0.74505805969E-08  0.10566000000E+00  0.10566000000E+00 0. -1.
     999900   -1    0    0    0    0 -0.00000000000E+00 -0.00000000000E+00 -0.74505805969E-08  0.93827000000E+00  0.93827000000E+00 0. -1.
     999902    2    1    2    0    0 -0.20777967975E-01 -0.83200102123E-02 -0.56647557336E-02  0.10208424280E+01  0.10205813181E+01 0.  0.
     999903    2    3    3    0    0 -0.95552577924E-01 -0.65317158361E-01  0.62023401260E-01  0.13324927583E+00  0.22623900661E-01 0.  0.
         14    1    1    2    0    0  0.20777967975E-01  0.83200102123E-02  0.56647557336E-02  0.23087571995E-01  0.00000000000E+00 0.  1.
     999901    1    3    3    0    0  0.74774609949E-01  0.56997148149E-01 -0.67688156994E-01  0.88759315217E+00  0.88000000000E+00 0. -1.
        -11    1    4    4    0    0 -0.45485366663E-01 -0.44549498965E-01  0.31407860776E-01  0.70995008825E-01  0.51100000000E-03 0. -1.
         11    1    4    4    0    0 -0.50067211261E-01 -0.20767659396E-01  0.30615540484E-01  0.62254267005E-01  0.51100000000E-03 0.  1.
</event>
<event>
 8    1  0.1088088E+005  0.1043930E+01  0.7957747E-01            NaN
         13   -1    0    0    0    0  0.00000000000E+00  0.00000000000E+00  0.74505805969E-08  0.10566000000E+00  0.10566000000E+00 0.  1.
     999900   -1    0    0    0    0 -0.00000000000E+00 -0.00000000000E+00 -0.74505805969E-08  0.93827000000E+00  0.93827000000E+00 0. -1.
     999902    2    1    2    0    0 -0.77811015078E-02 -0.21381657329E-01  0.45655547352E-02  0.10207229946E+01  0.10204591450E+01 0.  0.
     999903    2    3    3    0    0 -0.83490404124E-01 -0.49202561730E-01 -0.87759886407E-01  0.13222432361E+00  0.19746757457E-01 0.  0.
         14    1    1    2    0    0  0.77811015078E-02  0.21381657329E-01 -0.45655547352E-02  0.23207005426E-01  0.00000000000E+00 0. -1.
     999901    1    3    3    0    0  0.75709302616E-01  0.27820904402E-01  0.92325441143E-01  0.88849867096E+00  0.88000000000E+00 0. -1.
        -11    1    4    4    0    0 -0.23054048267E-01 -0.24380532727E-01 -0.29101197182E-01  0.44418918446E-01  0.51100000000E-03 0.  1.
         11    1    4    4    0    0 -0.60436355857E-01 -0.24822029004E-01 -0.58658689226E-01  0.87805405163E-01  0.51100000000E-03 0. -1.
</event>
<event>
 8    1  0.1088088E+005  0.1043930E+01  0.7957747E-01            NaN
         13   -1    0    0    0    0  0.00000000000E+00  0.00000000000E+00  0.74505805969E-08  0.10566000000E+00  0.10566000000E+00 0. -1.
     999900   -1    0    0    0    0 -0.00000000000E+00 -0.00000000000E+00 -0.74505805969E-08  0.93827000000E+00  0.93827000000E+00 0. -1.
     999902    2    1    2    0    0  0.14113858269E-01  0.17349415636E-01 -0.60513447934E-02  0.10207605807E+01  0.10204975948E+01 0.  0.
     999903    2    3    3    0    0  0.11142392663E-01  0.55691031147E-01 -0.11836324830E+00  0.13278936900E+00  0.19937755812E-01 0.  0.
         14    1    1    2    0    0 -0.14113858269E-01 -0.17349415636E-01  0.60513447934E-02  0.23169419328E-01  0.00000000000E+00 0. -1.
     999901    1    3    3    0    0  0.29714656068E-02 -0.38341615511E-01  0.11231190351E+00  0.88797121167E+00  0.88000000000E+00 0.  1.
        -11    1    4    4    0    0  0.52283848734E-02  0.44836874371E-01 -0.10639600609E+00  0.11557704160E+00  0.51100000000E-03 0. -1.
         11    1    4    4    0    0  0.59140077892E-02  0.10854156776E-01 -0.11967242208E-01  0.17212327400E-01  0.51100000000E-03 0.  1.
</event>
<event>
 8    1  0.1088088E+005  0.1043930E+01  0.7957747E-01            NaN
         13   -1    0    0    0    0  0.00000000000E+00  0.00000000000E+00  0.74505805969E-08  0.10566000000E+00  0.10566000000E+00 0. -1.
     999900   -1    0    0    0    0 -0.00000000000E+00 -0.00000000000E+00 -0.74505805969E-08  0.93827000000E+00  0.93827000000E+00 0.  1.
     999902    2    1    2    0    0  0.13694026438E-01 -0.90293496951E-02 -0.16090036809E-01  0.10209529506E+01  0.10206943629E+01 0.  0.
     999903    2    3    3    0    0  0.12407313080E+00 -0.42074771487E-01 -0.18589684781E-01  0.13343855924E+00  0.17200131659E-01 0.  0.
         14    1    1    2    0    0 -0.13694026438E-01  0.90293496951E-02  0.16090036809E-01  0.22977049430E-01  0.00000000000E+00 0. -1.
     999901    1    3    3    0    0 -0.11037910436E+00  0.33045421792E-01  0.24996479728E-02  0.88751439133E+00  0.88000000000E+00 0. -1.
        -11    1    4    4    0    0  0.73893886967E-01 -0.17417839185E-01 -0.15172823831E-01  0.77421982389E-01  0.51100000000E-03 0.  1.
         11    1    4    4    0    0  0.50179243833E-01 -0.24656932302E-01 -0.34168609507E-02  0.56016576850E-01  0.51100000000E-03 0. -1.
</event>
<event>
 8    1  0.1088088E+005  0.1043930E+01  0.7957747E-01            NaN
         13   -1    0    0    0    0  0.00000000000E+00  0.00000000000E+00  0.74505805969E-08  0.10566000000E+00  0.10566000000E+00 0.  1.
     999900   -1    0    0    0    0 -0.00000000000E+00 -0.00000000000E+00 -0.74505805969E-08  0.93827000000E+00  0.93827000000E+00 0.  1.
     999902    2    1    2    0    0 -0.17617232866E-01  0.18625483874E-01 -0.64460059780E-03  0.10182845120E+01  0.10179615201E+01 0.  0.
     999903    2    3    3    0    0  0.12377028780E-01 -0.33805151715E-01 -0.12012278076E+00  0.12815886763E+00  0.26443028777E-01 0.  0.
         14    1    1    2    0    0  0.17617232866E-01 -0.18625483874E-01  0.64460059780E-03  0.25645487972E-01  0.00000000000E+00 0.  1.
     999901    1    3    3    0    0 -0.29994261646E-01  0.52430635589E-01  0.11947818016E+00  0.89012564440E+00  0.88000000000E+00 0. -1.
        -11    1    4    4    0    0 -0.55845276919E-02 -0.18456806687E-01 -0.72110104292E-01  0.74645622274E-01  0.51100000000E-03 0. -1.
         11    1    4    4    0    0  0.17961556472E-01 -0.15348345028E-01 -0.48012676467E-01  0.53513245356E-01  0.51100000000E-03 0.  1.
</event>
<event>
 8    1  0.1088088E+005  0.1043930E+01  0.7957747E-01            NaN
         13   -1    0    0    0    0  0.00000000000E+00  0.00000000000E+00  0.74505805969E-08  0.10566000000E+00  0.10566000000E+00 0. -1.
     999900   -1    0    0    0    0 -0.00000000000E+00 -0.00000000000E+00 -0.74505805969E-08  0.93827000000E+00  0.93827000000E+00 0. -1.
     999902    2    1    2    0    0 -0.20248862219E-01  0.19575178252E-01 -0.30862011038E-02  0.10155975334E+01  0.10152022563E+01 0.  0.
     999903    2    3    3    0    0  0.57640136466E-01  0.31885952848E-01 -0.10410345771E+00  0.12631538618E+00  0.27909631994E-01 0.  0.
         14    1    1    2    0    0  0.20248862219E-01 -0.19575178252E-01  0.30862011038E-02  0.28332466571E-01  0.00000000000E+00 0. -1.
     999901    1    3    3    0    0 -0.77888998685E-01 -0.12310774596E-01  0.10101725660E+00  0.88928214725E+00  0.88000000000E+00 0.  1.
        -11    1    4    4    0    0  0.36802213530E-01  0.25456272546E-01 -0.89501058579E-01  0.10006560518E+00  0.51100000000E-03 0. -1.
         11    1    4    4    0    0  0.20837922936E-01  0.64296803019E-02 -0.14602399127E-01  0.26249780996E-01  0.51100000000E-03 0.  1.
</event>
<event>
 8    1  0.1088088E+005  0.1043930E+01  0.7957747E-01            NaN
         13   -1    0    0    0    0  0.00000000000E+00  0.00000000000E+00  0.74505805969E-08  0.10566000000E+00  0.10566000000E+00 0.  1.
     999900   -1    0    0    0    0 -0.00000000000E+00 -0.00000000000E+00 -0.74505805969E-08  0.93827000000E+00  0.93827000000E+00 0.  1.
     999902    2    1    2    0    0  0.21022059233E-01  0.43328329028E-02  0.89282896932E-02  0.10206831772E+01  0.10204184109E+01 0.  0.
     999903    2    3    3    0    0  0.12150114398E+00  0.36187084047E-01  0.38229839356E-01  0.13390850420E+00  0.19948279119E-01 0.  0.
         14    1    1    2    0    0 -0.21022059233E-01 -0.43328329028E-02 -0.89282896932E-02  0.23246822841E-01  0.00000000000E+00 0. -1.
     999901    1    3    3    0    0 -0.10047908475E+00 -0.31854251145E-01 -0.29301549663E-01  0.88677467296E+00  0.88000000000E+00 0.  1.
        -11    1    4    4    0    0  0.55235435838E-01  0.26304378735E-01  0.14977118457E-01  0.62987688568E-01  0.51100000000E-03 0.  1.
         11    1    4    4    0    0  0.66265708141E-01  0.98827053126E-02  0.23252720899E-01  0.70920815633E-01  0.51100000000E-03 0. -1.
</event>
<event>
 8    1  0.1088088E+005  0.1043930E+01  0.7957747E-01            NaN
         13   -1    0    0    0    0  0.00000000000E+00  0.00000000000E+00  0.74505805969E-08  0.10566000000E+00  0.10566000000E+00 0.  1.
     999900   -1    0    0    0    0 -0.00000000000E+00 -0.00000000000E+00 -0.74505805969E-08  0.93827000000E+00  0.93827000000E+00 0.  1.
     999902    2    1    2    0    0  0.11748728797E-02 -0.14506737026E-01  0.17945863082E-01  0.10208241621E+01  0.10205626341E+01 0.  0.
     999903    2    3    3    0    0  0.93668312216E-01 -0.13915195696E-01 -0.86433184933E-01  0.12984134970E+00  0.20510856888E-01 0.  0.
         14    1    1    2    0    0 -0.11748728797E-02  0.14506737026E-01 -0.17945863082E-01  0.23105837946E-01  0.00000000000E+00 0. -1.
     999901    1    3    3    0    0 -0.92493439336E-01 -0.59154132948E-03  0.10437904802E+00  0.89098281235E+00  0.88000000000E+00 0. -1.
        -11    1    4    4    0    0  0.62530385374E-01 -0.38855441113E-02 -0.67258851967E-01  0.91919316996E-01  0.51100000000E-03 0. -1.
         11    1    4    4    0    0  0.31137926841E-01 -0.10029651585E-01 -0.19174332966E-01  0.37922032706E-01  0.51100000000E-03 0.  1.
</event>
<event>
 7    1  0.1088088E+005  0.1043930E+01  0.7957747E-01            NaN
         13   -1    0    0    0    0  0.00000000000E+00  0.00000000000E+00  0.74505805969E-08  0.10566000000E+00  0.10566000000E+00 0. -1.
     999900   -1    0    0    0    0 -0.00000000000E+00 -0.00000000000E+00 -0.74505805969E-08  0.93827000000E+00  0.93827000000E+00 0. -1.
     999902    2    1    2    0    0 -0.17563883821E-01  0.66922750246E-03 -0.13773241960E-01  0.10215997498E+01  0.10213556720E+01 0.  0.
         14    1    1    2    0    0  0.17563883821E-01 -0.66922750246E-03  0.13773241960E-01  0.22330250209E-01  0.00000000000E+00 0. -1.
     999901    1    3    3    0    0  0.10935200293E-01  0.92606447105E-01 -0.87361191677E-01  0.88922860416E+00  0.88000000000E+00 0. -1.
        -11    1    3    3    0    0  0.13476887194E-01 -0.41261422124E-01  0.21478437488E-01  0.48432590701E-01  0.51100000000E-03 0. -1.
         11    1    3    3    0    0 -0.41975971308E-01 -0.50675797479E-01  0.52109512229E-01  0.83938554926E-01  0.51100000000E-03 0.  1.
</event>
<event>
 8    1  0.1088088E+005  0.1043930E+01  0.7957747E-01            NaN
         13   -1    0    0    0    0  0.00000000000E+00  0.00000000000E+00  0.74505805969E-08  0.10566000000E+00  0.10566000000E+00 0. -1.
     999900   -1    0    0    0    0 -0.00000000000E+00 -0.00000000000E+00 -0.74505805969E-08  0.93827000000E+00  0.93827000000E+00 0.  1.
     999902    2    1    2    0    0  0.32850145913E-02  0.70292306312E-02 -0.23321636102E-01  0.10193515518E+01  0.10190551929E+01 0.  0.
     999903    2    3    3    0    0 -0.66204006222E-02 -0.28139410085E-01 -0.12765497971E+00  0.13243532290E+00  0.20190710810E-01 0.  0.
         14    1    1    2    0    0 -0.32850145913E-02 -0.70292306312E-02  0.23321636102E-01  0.24578448173E-01  0.00000000000E+00 0. -1.
     999901    1    3    3    0    0  0.99054152135E-02  0.35168640716E-01  0.10433334361E+00  0.88691622892E+00  0.88000000000E+00 0. -1.
        -11    1    4    4    0    0  0.21776679913E-02 -0.16826322032E-01 -0.37709092789E-01  0.41353405555E-01  0.51100000000E-03 0. -1.
         11    1    4    4    0    0 -0.87980686135E-02 -0.11313088053E-01 -0.89945886922E-01  0.91081917348E-01  0.51100000000E-03 0.  1.
</event>
<event>
 8    1  0.1088088E+005  0.1043930E+01  0.7957747E-01            NaN
         13   -1    0    0    0    0  0.00000000000E+00  0.00000000000E+00  0.74505805969E-08  0.10566000000E+00  0.10566000000E+00 0.  1.
     999900   -1    0    0    0    0 -0.00000000000E+00 -0.00000000000E+00 -0.74505805969E-08  0.93827000000E+00  0.93827000000E+00 0. -1.
     999902    2    1    2    0    0  0.20210177543E-01 -0.11397554289E-01  0.91803810686E-03  0.10207093559E+01  0.10204451925E+01 0.  0.
     999903    2    3    3    0    0  0.23446993277E-01  0.11964621270E+00 -0.40625067297E-01  0.13003052741E+00  0.19813234467E-01 0.  0.
         14    1    1    2    0    0 -0.20210177543E-01  0.11397554289E-01 -0.91803810686E-03  0.23220644136E-01  0.00000000000E+00 0. -1.
     999901    1    3    3    0    0 -0.32368157338E-02 -0.13104376699E+00  0.41543105404E-01  0.89067882845E+00  0.88000000000E+00 0.  1.
        -11    1    4    4    0    0  0.16709312012E-01  0.67292220033E-01 -0.32660902457E-01  0.76644893210E-01  0.51100000000E-03 0. -1.
         11    1    4    4    0    0  0.67376812655E-02  0.52353992665E-01 -0.79641648398E-02  0.53385634204E-01  0.51100000000E-03 0.  1.
</event>
<event>
 8    1  0.1088088E+005  0.1043930E+01  0.7957747E-01            NaN
         13   -1    0    0    0    0  0.00000000000E+00  0.00000000000E+00  0.74505805969E-08  0.10566000000E+00  0.10566000000E+00 0.  1.
     999900   -1    0    0    0    0 -0.00000000000E+00 -0.00000000000E+00 -0.74505805969E-08  0.93827000000E+00  0.93827000000E+00 0.  1.
     999902    2    1    2    0    0 -0.23143025092E-01  0.34305803677E-02 -0.27219065918E-02  0.10203762897E+01  0.10201044042E+01 0.  0.
     999903    2    3    3    0    0  0.72498270157E-01 -0.71268163233E-01 -0.76990272850E-01  0.12894881097E+00  0.19108727627E-01 0.  0.
         14    1    1    2    0    0  0.23143025092E-01 -0.34305803677E-02  0.27219065918E-02  0.23553710272E-01  0.00000000000E+00 0.  1.
     999901    1    3    3    0    0 -0.95641295249E-01  0.74698743601E-01  0.74268366258E-01  0.89142747875E+00  0.88000000000E+00 0. -1.
        -11    1    4    4    0    0  0.11407142590E-01 -0.29787039103E-02 -0.81485598542E-02  0.14340701787E-01  0.51100000000E-03 0. -1.
         11    1    4    4    0    0  0.61091127567E-01 -0.68289459323E-01 -0.68841712996E-01  0.11460810919E+00  0.51100000000E-03 0.  1.
</event>
<event>
 8    1  0.1088088E+005  0.1043930E+01  0.7957747E-01            NaN
         13   -1    0    0    0    0  0.00000000000E+00  0.00000000000E+00  0.74505805969E-08  0.10566000000E+00  0.10566000000E+00 0. -1.
     999900   -1    0    0    0    0 -0.00000000000E+00 -0.00000000000E+00 -0.74505805969E-08  0.93827000000E+00  0.93827000000E+00 0.  1.
     999902    2    1    2    0    0  0.55879718203E-02  0.69317600705E-02  0.20875564773E-01  0.10212349800E+01  0.10209827719E+01 0.  0.
     999903    2    3    3    0    0 -0.98465313455E-01  0.14682938960E-01 -0.80163977315E-01  0.12932906795E+00  0.19716437460E-01 0.  0.
         14    1    1    2    0    0 -0.55879718203E-02 -0.69317600705E-02 -0.20875564773E-01  0.22695019968E-01  0.00000000000E+00 0.  1.
     999901    1    3    3    0    0  0.10405328528E+00 -0.77511788899E-02  0.10103954209E+00  0.89190591209E+00  0.88000000000E+00 0. -1.
        -11    1    4    4    0    0 -0.32828976539E-01 -0.44108796464E-02 -0.26387046330E-01  0.42352507540E-01  0.51100000000E-03 0. -1.
         11    1    4    4    0    0 -0.65636336916E-01  0.19093818607E-01 -0.53776930986E-01  0.86976560405E-01  0.51100000000E-03 0.  1.
</event>
<event>
 8    1  0.1088088E+005  0.1043930E+01  0.7957747E-01            NaN
         13   -1    0    0    0    0  0.00000000000E+00  0.00000000000E+00  0.74505805969E-08  0.10566000000E+00  0.10566000000E+00 0. -1.
     999900   -1    0    0    0    0 -0.00000000000E+00 -0.00000000000E+00 -0.74505805969E-08  0.93827000000E+00  0.93827000000E+00 0. -1.
     999902    2    1    2    0    0 -0.25115128421E-01 -0.97098125692E-02 -0.41742083364E-03  0.10170000097E+01  0.10166433964E+01 0.  0.
     999903    2    3    3    0    0 -0.12051714246E+00 -0.23198614373E-01  0.39462836065E-01  0.13084317996E+00  0.22362132638E-01 0.  0.
         14    1    1    2    0    0  0.25115128421E-01  0.97098125692E-02  0.41742083364E-03  0.26929990269E-01  0.00000000000E+00 0. -1.
     999901    1    3    3    0    0  0.95402014041E-01  0.13488801803E-01 -0.39880256899E-01  0.88615682977E+00  0.88000000000E+00 0.  1.
        -11    1    4    4    0    0 -0.36713831943E-01 -0.13801875076E-02  0.20920990091E-01  0.42281902995E-01  0.51100000000E-03 0.  1.
         11    1    4    4    0    0 -0.83803310519E-01 -0.21818426865E-01  0.18541845974E-01  0.88561276967E-01  0.51100000000E-03 0. -1.
</event>
<event>
 8    1  0.1088088E+005  0.1043930E+01  0.7957747E-01            NaN
         13   -1    0    0    0    0  0.00000000000E+00  0.00000000000E+00  0.74505805969E-08  0.10566000000E+00  0.10566000000E+00 0. -1.
     999900   -1    0    0    0    0 -0.00000000000E+00 -0.00000000000E+00 -0.74505805969E-08  0.93827000000E+00  0.93827000000E+00 0. -1.
     999902    2    1    2    0    0 -0.17353092492E-01  0.10524145202E-01 -0.13321623867E-01  0.10196534040E+01  0.10193643662E+01 0.  0.
     999903    2    3    3    0    0 -0.12496534577E-01 -0.54700686100E-01  0.11318312865E+00  0.12820440535E+00  0.21854530514E-01 0.  0.
         14    1    1    2    0    0  0.17353092492E-01 -0.10524145202E-01  0.13321623867E-01  0.24276596008E-01  0.00000000000E+00 0. -1.
     999901    1    3    3    0    0 -0.48565579156E-02  0.65224831301E-01 -0.12650475252E+00  0.89144899864E+00  0.88000000000E+00 0. -1.
        -11    1    4    4    0    0 -0.16318630227E-01 -0.37486385538E-01  0.91727485782E-01  0.10042768325E+00  0.51100000000E-03 0.  1.
         11    1    4    4    0    0  0.38220956505E-02 -0.17214300562E-01  0.21455642867E-01  0.27776722104E-01  0.51100000000E-03 0. -1.
</event>
<event>
 8    1  0.1088088E+005  0.1043930E+01  0.7957747E-01            NaN
         13   -1    0    0    0    0  0.00000000000E+00  0.00000000000E+00  0.74505805969E-08  0.10566000000E+00  0.10566000000E+00 0. -1.
     999900   -1    0    0    0    0 -0.00000000000E+00 -0.00000000000E+00 -0.74505805969E-08  0.93827000000E+00  0.93827000000E+00 0. -1.
     999902    2    1    2    0    0  0.14633696911E-01  0.13198057685E-01  0.10488378594E-01  0.10216064721E+01  0.10213625429E+01 0.  0.
     999903    2    3    3    0    0  0.60336744011E-01 -0.64629678198E-01 -0.94485957715E-01  0.13078351761E+00  0.18952949384E-01 0.  0.
         14    1    1    2    0    0 -0.14633696911E-01 -0.13198057685E-01 -0.10488378594E-01  0.22323527890E-01  0.00000000000E+00 0.  1.
     999901    1    3    3    0    0 -0.45703047100E-01  0.77827735883E-01  0.10497433631E+00  0.89082295450E+00  0.88000000000E+00 0.  1.
        -11    1    4    4    0    0  0.22521684274E-02 -0.90328602918E-02 -0.53859545370E-02  0.10767286332E-01  0.51100000000E-03 0. -1.
         11    1    4    4    0    0  0.58084575583E-01 -0.55596817906E-01 -0.89100003178E-01  0.12001623127E+00  0.51100000000E-03 0.  1.
</event>
<event>
 8    1  0.1088088E+005  0.1043930E+01  0.7957747E-01            NaN
         13   -1    0    0    0    0  0.00000000000E+00  0.00000000000E+00  0.74505805969E-08  0.10566000000E+00  0.10566000000E+00 0. -1.
     999900   -1    0    0    0    0 -0.00000000000E+00 -0.00000000000E+00 -0.74505805969E-08  0.93827000000E+00  0.93827000000E+00 0. -1.
     999902    2    1    2    0    0  0.24793250921E-02 -0.14979935420E-01  0.18299365457E-01  0.10201516003E+01  0.10198744409E+01 0.  0.
     999903    2    3    3    0    0  0.97793961167E-01  0.37846959916E-01  0.76731918049E-01  0.13150660707E+00  0.20252141607E-01 0.  0.
         14    1    1    2    0    0 -0.24793250921E-02  0.14979935420E-01 -0.18299365457E-01  0.23778399741E-01  0.00000000000E+00 0.  1.
     999901    1    3    3    0    0 -0.95314636075E-01 -0.52826895335E-01 -0.58432552592E-01  0.88864499319E+00  0.88000000000E+00 0.  1.
        -11    1    4    4    0    0  0.34849202248E-01  0.43741174114E-02  0.20204414566E-01  0.40522577526E-01  0.51100000000E-03 0. -1.
         11    1    4    4    0    0  0.62944758919E-01  0.33472842504E-01  0.56527503484E-01  0.90984029542E-01  0.51100000000E-03 0.  1.
</event>
<event>
 8    1  0.1088088E+005  0.1043930E+01  0.7957747E-01            NaN
         13   -1    0    0    0    0  0.00000000000E+00  0.00000000000E+00  0.74505805969E-08  0.10566000000E+00  0.10566000000E+00 0. -1.
     999900   -1    0    0    0    0 -0.00000000000E+00 -0.00000000000E+00 -0.74505805969E-08  0.93827000000E+00  0.93827000000E+00 0.  1.
     999902    2    1    2    0    0  0.80056956685E-02 -0.15390115362E-01  0.15565550738E-01  0.10206226367E+01  0.10203564737E+01 0.  0.
     999903    2    3    3    0    0  0.46052013408E-01 -0.30292603385E-02 -0.11924552870E+00  0.12945803902E+00  0.20246565008E-01 0.  0.
         14    1    1    2    0    0 -0.80056956685E-02  0.15390115362E-01 -0.15565550738E-01  0.23307363295E-01  0.00000000000E+00 0.  1.
     999901    1    3    3    0    0 -0.38046317739E-01 -0.12360855023E-01  0.13481107944E+00  0.89116459769E+00  0.88000000000E+00 0. -1.
        -11    1    4    4    0    0  0.31102818101E-01  0.52779974986E-02 -0.59984309893E-01  0.67776257685E-01  0.51100000000E-03 0. -1.
         11    1    4    4    0    0  0.14949195307E-01 -0.83072578371E-02 -0.59261218807E-01  0.61681781334E-01  0.51100000000E-03 0.  1.
</event>
<event>
 8    1  0.1088088E+005  0.1043930E+01  0.7957747E-01            NaN
         13   -1    0    0    0    0  0.00000000000E+00  0.00000000000E+00  0.74505805969E-08  0.10566000000E+00  0.10566000000E+00 0.  1.
     999900   -1    0    0    0    0 -0.00000000000E+00 -0.00000000000E+00 -0.74505805969E-08  0.93827000000E+00  0.93827000000E+00 0. -1.
     999902    2    1    2    0    0 -0.89652507774E-02  0.16323572313E-01  0.15455566939E-01  0.10197285686E+01  0.10194413393E+01 0.  0.
     999903    2    3    3    0    0  0.21949600473E-01  0.10132062863E+00 -0.76673061516E-01  0.13030858239E+00  0.18812589804E-01 0.  0.
         14    1    1    2    0    0  0.89652507774E-02 -0.16323572313E-01 -0.15455566939E-01  0.24201431444E-01  0.00000000000E+00 0. -1.
     999901    1    3    3    0    0 -0.30914851250E-01 -0.84997056318E-01  0.92128628455E-01  0.88941998617E+00  0.88000000000E+00 0.  1.
        -11    1    4    4    0    0 -0.23906232092E-02  0.27967604373E-01 -0.20064094232E-01  0.34506969905E-01  0.51100000000E-03 0.  1.
         11    1    4    4    0    0  0.24340223682E-01  0.73353024258E-01 -0.56608967284E-01  0.95801612485E-01  0.51100000000E-03 0. -1.
</event>
<event>
 8    1  0.1088088E+005  0.1043930E+01  0.7957747E-01            NaN
         13   -1    0    0    0    0  0.00000000000E+00  0.00000000000E+00  0.74505805969E-08  0.10566000000E+00  0.10566000000E+00 0. -1.
     999900   -1    0    0    0    0 -0.00000000000E+00 -0.00000000000E+00 -0.74505805969E-08  0.93827000000E+00  0.93827000000E+00 0. -1.
     999902    2    1    2    0    0  0.42023913518E-02  0.18452847472E-01  0.14714211037E-01  0.10199576059E+01  0.10196758515E+01 0.  0.
     999903    2    3    3    0    0  0.77619120886E-01  0.59672012734E-01  0.87634467494E-01  0.13293652409E+00  0.20170337449E-01 0.  0.
         14    1    1    2    0    0 -0.42023913518E-02 -0.18452847472E-01 -0.14714211037E-01  0.23972394109E-01  0.00000000000E+00 0.  1.
     999901    1    3    3    0    0 -0.73416729534E-01 -0.41219165262E-01 -0.72920256458E-01  0.88702108180E+00  0.88000000000E+00 0. -1.
        -11    1    4    4    0    0  0.54198172343E-01  0.37551594643E-01  0.70163890228E-01  0.96284976806E-01  0.51100000000E-03 0. -1.
         11    1    4    4    0    0  0.23420948543E-01  0.22120418091E-01  0.17470577266E-01  0.36651547282E-01  0.51100000000E-03 0.  1.
</event>
<event>
 8    1  0.1088088E+005  0.1043930E+01  0.7957747E-01            NaN
         13   -1    0    0    0    0  0.00000000000E+00  0.00000000000E+00  0.74505805969E-08  0.10566000000E+00  0.10566000000E+00 0. -1.
     999900   -1    0    0    0    0 -0.00000000000E+00 -0.00000000000E+00 -0.74505805969E-08  0.93827000000E+00  0.93827000000E+00 0.  1.
     999902    2    1    2    0    0 -0.20328581262E-02 -0.23177563877E-01 -0.69697096110E-02  0.10196419611E+01  0.10193526476E+01 0.  0.
     999903    2    3    3    0    0  0.29282147889E-01 -0.75680987916E-02  0.12405918269E+00  0.12925280149E+00  0.20022127237E-01 0.  0.
         14    1    1    2    0    0  0.20328581262E-02  0.23177563877E-01  0.69697096110E-02  0.24288038857E-01  0.00000000000E+00 0. -1.
     999901    1    3    3    0    0 -0.31315006015E-01 -0.15609465086E-01 -0.13102889230E+00  0.89038915965E+00  0.88000000000E+00 0.  1.
        -11    1    4    4    0    0  0.23514828847E-01 -0.14169452308E-01  0.96264621214E-01  0.10010424053E+00  0.51100000000E-03 0.  1.
         11    1    4    4    0    0  0.57673190426E-02  0.66013535169E-02  0.27794561480E-01  0.29148560960E-01  0.51100000000E-03 0. -1.
</event>
<event>
 8    1  0.1088088E+005  0.1043930E+01  0.7957747E-01            NaN
         13   -1    0    0    0    0  0.00000000000E+00  0.00000000000E+00  0.74505805969E-08  0.10566000000E+00  0.10566000000E+00 0. -1.
     999900   -1    0    0    0    0 -0.00000000000E+00 -0.00000000000E+00 -0.74505805969E-08  0.93827000000E+00  0.93827000000E+00 0. -1.
     999902    2    1    2    0    0 -0.78291520528E-02 -0.15657992727E-01 -0.18305662621E-01  0.10186008539E+01  0.10182858803E+01 0.  0.
     999903    2    3    3    0    0 -0.84647861772E-01 -0.70768448171E-02  0.93957487982E-01  0.12810786390E+00  0.19190440574E-01 0.  0.
         14    1    1    2    0    0  0.78291520528E-02  0.15657992727E-01  0.18305662621E-01  0.25329146099E-01  0.00000000000E+00 0. -1.
     999901    1    3    3    0    0  0.76818709719E-01 -0.85811479095E-02 -0.11226315060E+00  0.89049299000E+00  0.88000000000E+00 0. -1.
        -11    1    4    4    0    0 -0.73077939513E-01 -0.23160935512E-02  0.87473482531E-01  0.11400710855E+00  0.51100000000E-03 0. -1.
         11    1    4    4    0    0 -0.11569922258E-01 -0.47607512659E-02  0.64840054511E-02  0.14100755347E-01  0.51100000000E-03 0.  1.
</event>
<event>
 8    1  0.1088088E+005  0.1043930E+01  0.7957747E-01            NaN
         13   -1    0    0    0    0  0.00000000000E+00  0.00000000000E+00  0.74505805969E-08  0.10566000000E+00  0.10566000000E+00 0.  1.
     999900   -1    0    0    0    0 -0.00000000000E+00 -0.00000000000E+00 -0.74505805969E-08  0.93827000000E+00  0.93827000000E+00 0. -1.
     999902    2    1    2    0    0 -0.16275711676E-01  0.34975573638E-02  0.16316153659E-01  0.10206201616E+01  0.10203539413E+01 0.  0.
     999903    2    3    3    0    0 -0.87895573545E-01  0.95819323398E-01 -0.14647619045E-01  0.13235698641E+00  0.19920956877E-01 0.  0.
         14    1    1    2    0    0  0.16275711676E-01 -0.34975573638E-02 -0.16316153659E-01  0.23309838444E-01  0.00000000000E+00 0.  1.
     999901    1    3    3    0    0  0.71619861870E-01 -0.92321766034E-01  0.30963772704E-01  0.88826317514E+00  0.88000000000E+00 0.  1.
        -11    1    4    4    0    0 -0.56991175517E-01  0.56290637977E-01 -0.17872894524E-01  0.82075157571E-01  0.51100000000E-03 0. -1.
         11    1    4    4    0    0 -0.30904398029E-01  0.39528685421E-01  0.32252754789E-02  0.50281828841E-01  0.51100000000E-03 0.  1.
</event>
<event>
 8    1  0.1088088E+005  0.1043930E+01  0.7957747E-01            NaN
         13   -1    0    0    0    0  0.00000000000E+00  0.00000000000E+00  0.74505805969E-08  0.10566000000E+00  0.10566000000E+00 0.  1.
     999900   -1    0    0    0    0 -0.00000000000E+00 -0.00000000000E+00 -0.74505805969E-08  0.93827000000E+00  0.93827000000E+00 0.  1.
     999902    2    1    2    0    0 -0.59406034406E-02  0.22120050715E-01 -0.98420348137E-02  0.10190010397E+01  0.10186960616E+01 0.  0.
     999903    2    3    3    0    0  0.61957391275E-01  0.10853826148E+00 -0.36617273503E-01  0.13176084772E+00  0.20020582753E-01 0.  0.
         14    1    1    2    0    0  0.59406034406E-02 -0.22120050715E-01  0.98420348137E-02  0.24928960310E-01  0.00000000000E+00 0.  1.
     999901    1    3    3    0    0 -0.67897994716E-01 -0.86418210769E-01  0.26775238689E-01  0.88724019197E+00  0.88000000000E+00 0. -1.
        -11    1    4    4    0    0  0.41895251097E-01  0.55758685598E-01 -0.25150395001E-01  0.74142070202E-01  0.51100000000E-03 0. -1.
         11    1    4    4    0    0  0.20062140178E-01  0.52779575886E-01 -0.11466878502E-01  0.57618777519E-01  0.51100000000E-03 0.  1.
</event>
<event>
 8    1  0.1088088E+005  0.1043930E+01  0.7957747E-01            NaN
         13   -1    0    0    0    0  0.00000000000E+00  0.00000000000E+00  0.74505805969E-08  0.10566000000E+00  0.10566000000E+00 0.  1.
     999900   -1    0    0    0    0 -0.00000000000E+00 -0.00000000000E+00 -0.74505805969E-08  0.93827000000E+00  0.93827000000E+00 0.  1.
     999902    2    1    2    0    0 -0.80834591112E-03  0.87228498772E-02 -0.20707568589E-01  0.10214456737E+01  0.10211981783E+01 0.  0.
     999903    2    3    3    0    0  0.11135932843E+00 -0.50678043202E-01  0.40195351689E-01  0.13025589649E+00  0.19538888966E-01 0.  0.
         14    1    1    2    0    0  0.80834591112E-03 -0.87228498772E-02  0.20707568589E-01  0.22484326318E-01  0.00000000000E+00 0.  1.
     999901    1    3    3    0    0 -0.11216767434E+00  0.59400893079E-01 -0.60902920278E-01  0.89118977719E+00  0.88000000000E+00 0.  1.
        -11    1    4    4    0    0  0.54228685677E-01 -0.30806657162E-01  0.28813858388E-01  0.68704439682E-01  0.51100000000E-03 0. -1.
         11    1    4    4    0    0  0.57130642757E-01 -0.19871386040E-01  0.11381493301E-01  0.61551456812E-01  0.51100000000E-03 0.  1.
</event>
<event>
 8    1  0.1088088E+005  0.1043930E+01  0.7957747E-01            NaN
         13   -1    0    0    0    0  0.00000000000E+00  0.00000000000E+00  0.74505805969E-08  0.10566000000E+00  0.10566000000E+00 0.  1.
     999900   -1    0    0    0    0 -0.00000000000E+00 -0.00000000000E+00 -0.74505805969E-08  0.93827000000E+00  0.93827000000E+00 0. -1.
     999902    2    1    2    0    0 -0.16694629152E-01  0.16542230816E-01  0.37124275590E-02  0.10201363420E+01  0.10198588226E+01 0.  0.
     999903    2    3    3    0    0  0.39326505304E-01 -0.10560778251E+00  0.57784578262E-01  0.12829398443E+00  0.20511245965E-01 0.  0.
         14    1    1    2    0    0  0.16694629152E-01 -0.16542230816E-01 -0.37124275590E-02  0.23793658005E-01  0.00000000000E+00 0. -1.
     999901    1    3    3    0    0 -0.56021134455E-01  0.12215001332E+00 -0.54072150704E-01  0.89184235756E+00  0.88000000000E+00 0. -1.
        -11    1    4    4    0    0  0.26993730566E-01 -0.60147153223E-01  0.23342138897E-01  0.69938959815E-01  0.51100000000E-03 0.  1.
         11    1    4    4    0    0  0.12332774737E-01 -0.45460629285E-01  0.34442439365E-01  0.58355024618E-01  0.51100000000E-03 0. -1.
</event>
<event>
 8    1  0.1088088E+005  0.1043930E+01  0.7957747E-01            NaN
         13   -1    0    0    0    0  0.00000000000E+00  0.00000000000E+00  0.74505805969E-08  0.10566000000E+00  0.10566000000E+00 0. -1.
     999900   -1    0    0    0    0 -0.00000000000E+00 -0.00000000000E+00 -0.74505805969E-08  0.93827000000E+00  0.93827000000E+00 0.  1.
     999902    2    1    2    0    0 -0.17982417140E-01 -0.19595891746E-02 -0.14724047322E-01  0.10206060877E+01  0.10203395422E+01 0.  0.
     999903    2    3    3    0    0  0.12275645613E+00 -0.19703363134E-01  0.24732218761E-01  0.12837345609E+00  0.20265525977E-01 0.  0.
         14    1    1    2    0    0  0.17982417140E-01  0.19595891746E-02  0.14724047322E-01  0.23323912310E-01  0.00000000000E+00 0.  1.
     999901    1    3    3    0    0 -0.14073887327E+00  0.17743773959E-01 -0.39456266083E-01  0.89223263160E+00  0.88000000000E+00 0. -1.
        -11    1    4    4    0    0  0.60806668621E-01 -0.19707518555E-01  0.10080490262E-01  0.64712553970E-01  0.51100000000E-03 0. -1.
         11    1    4    4    0    0  0.61949787507E-01  0.41554213546E-05  0.14651728499E-01  0.63660902117E-01  0.51100000000E-03 0.  1.
</event>
<event>
 8    1  0.1088088E+005  0.1043930E+01  0.7957747E-01            NaN
         13   -1    0    0    0    0  0.00000000000E+00  0.00000000000E+00  0.74505805969E-08  0.10566000000E+00  0.10566000000E+00 0.  1.
     999900   -1    0    0    0    0 -0.00000000000E+00 -0.00000000000E+00 -0.74505805969E-08  0.93827000000E+00  0.93827000000E+00 0.  1.
     999902    2    1    2    0    0  0.19464685043E-01  0.11805138379E-01 -0.17198538867E-02  0.10211003449E+01  0.10208451014E+01 0.  0.
     999903    2    3    3    0    0  0.51125283774E-01  0.70320976427E-01 -0.99232328036E-01  0.13321793181E+00  0.18469652423E-01 0.  0.
         14    1    1    2    0    0 -0.19464685043E-01 -0.11805138379E-01  0.17198538867E-02  0.22829655130E-01  0.00000000000E+00 0.  1.
     999901    1    3    3    0    0 -0.31660598732E-01 -0.58515838048E-01  0.97512474149E-01  0.88788241306E+00  0.88000000000E+00 0. -1.
        -11    1    4    4    0    0  0.30621968281E-01  0.42117448818E-01 -0.45452387816E-01  0.69121379583E-01  0.51100000000E-03 0. -1.
         11    1    4    4    0    0  0.20503315494E-01  0.28203527609E-01 -0.53779940219E-01  0.64096552222E-01  0.51100000000E-03 0.  1.
</event>
<event>
 8    1  0.1088088E+005  0.1043930E+01  0.7957747E-01            NaN
         13   -1    0    0    0    0  0.00000000000E+00  0.00000000000E+00  0.74505805969E-08  0.10566000000E+00  0.10566000000E+00 0. -1.
     999900   -1    0    0    0    0 -0.00000000000E+00 -0.00000000000E+00 -0.74505805969E-08  0.93827000000E+00  0.93827000000E+00 0.  1.
     999902    2    1    2    0    0  0.12145440613E-01 -0.16659656821E-01 -0.12369963430E-01  0.10198868744E+01  0.10196034350E+01 0.  0.
     999903    2    3    3    0    0  0.65164768411E-01  0.13623686860E-01  0.10938344670E+00  0.12940833850E+00  0.18701010046E-01 0.  0.
         14    1    1    2    0    0 -0.12145440613E-01  0.16659656821E-01  0.12369963430E-01  0.24043125594E-01  0.00000000000E+00 0.  1.
     999901    1    3    3    0    0 -0.53019327798E-01 -0.30283343681E-01 -0.12175341013E+00  0.89047853590E+00  0.88000000000E+00 0.  1.
        -11    1    4    4    0    0  0.58806621075E-01  0.13314672289E-01  0.10653631677E+00  0.12241628606E+00  0.51100000000E-03 0. -1.
         11    1    4    4    0    0  0.63581473356E-02  0.30901457152E-03  0.28471299272E-02  0.69920524433E-02  0.51100000000E-03 0.  1.
</event>
<event>
 8    1  0.1088088E+005  0.1043930E+01  0.7957747E-01            NaN
         13   -1    0    0    0    0  0.00000000000E+00  0.00000000000E+00  0.74505805969E-08  0.10566000000E+00  0.10566000000E+00 0. -1.
     999900   -1    0    0    0    0 -0.00000000000E+00 -0.00000000000E+00 -0.74505805969E-08  0.93827000000E+00  0.93827000000E+00 0.  1.
     999902    2    1    2    0    0 -0.10269482076E-01  0.15248511419E-01 -0.15264039766E-01  0.10200350157E+01  0.10197550996E+01 0.  0.
     999903    2    3    3    0    0  0.11825601962E+00  0.39151854471E-01 -0.31364582020E-01  0.13023200279E+00  0.21430904360E-01 0.  0.
         14    1    1    2    0    0  0.10269482076E-01 -0.15248511419E-01  0.15264039766E-01  0.23894984256E-01  0.00000000000E+00 0. -1.
     999901    1    3    3    0    0 -0.12852550170E+00 -0.23903343052E-01  0.16100542254E-01  0.88980301295E+00  0.88000000000E+00 0.  1.
        -11    1    4    4    0    0  0.76485215908E-01  0.21106432379E-01 -0.29618830656E-01  0.84693600648E-01  0.51100000000E-03 0.  1.
         11    1    4    4    0    0  0.41770803712E-01  0.18045422092E-01 -0.17457513634E-02  0.45538402146E-01  0.51100000000E-03 0. -1.
</event>
<event>
 8    1  0.1088088E+005  0.1043930E+01  0.7957747E-01            NaN
         13   -1    0    0    0    0  0.00000000000E+00  0.00000000000E+00  0.74505805969E-08  0.10566000000E+00  0.10566000000E+00 0. -1.
     999900   -1    0    0    0    0 -0.00000000000E+00 -0.00000000000E+00 -0.74505805969E-08  0.93827000000E+00  0.93827000000E+00 0.  1.
     999902    2    1    2    0    0  0.16692652219E-01  0.59393641472E-02  0.16655523552E-01  0.10196127808E+01  0.10193227632E+01 0.  0.
     999903    2    3    3    0    0  0.44344869825E-01  0.47394776620E-01 -0.10985873454E+00  0.12916960246E+00  0.20077657077E-01 0.  0.
         14    1    1    2    0    0 -0.16692652219E-01 -0.59393641472E-02 -0.16655523552E-01  0.24317219195E-01  0.00000000000E+00 0.  1.
     999901    1    3    3    0    0 -0.27652217605E-01 -0.41455412473E-01  0.12651425809E+00  0.89044317835E+00  0.88000000000E+00 0. -1.
        -11    1    4    4    0    0  0.23371343768E-01  0.26007403468E-01 -0.39838155598E-01  0.53008909695E-01  0.51100000000E-03 0. -1.
         11    1    4    4    0    0  0.20973526057E-01  0.21387373152E-01 -0.70020578944E-01  0.76160692764E-01  0.51100000000E-03 0.  1.
</event>
<event>
 8    1  0.1088088E+005  0.1043930E+01  0.7957747E-01            NaN
         13   -1    0    0    0    0  0.00000000000E+00  0.00000000000E+00  0.74505805969E-08  0.10566000000E+00  0.10566000000E+00 0.  1.
     999900   -1    0    0    0    0 -0.00000000000E+00 -0.00000000000E+00 -0.74505805969E-08  0.93827000000E+00  0.93827000000E+00 0.  1.
     999902    2    1    2    0    0  0.21719900560E-01 -0.35204637118E-02 -0.10630098308E-01  0.10194934140E+01  0.10192005075E+01 0.  0.
     999903    2    3    3    0    0  0.96286483998E-01  0.79070530359E-01  0.35794752997E-01  0.13127231851E+00  0.20686263370E-01 0.  0.
         14    1    1    2    0    0 -0.21719900560E-01  0.35204637118E-02  0.10630098308E-01  0.24436585996E-01  0.00000000000E+00 0. -1.
     999901    1    3    3    0    0 -0.74566583438E-01 -0.82590994071E-01 -0.46424851306E-01  0.88822109550E+00  0.88000000000E+00 0.  1.
        -11    1    4    4    0    0  0.89195240374E-01  0.77597080415E-01  0.29973818705E-01  0.12196634258E+00  0.51100000000E-03 0. -1.
         11    1    4    4    0    0  0.70912436233E-02  0.14734499445E-02  0.58209342926E-02  0.93059759243E-02  0.51100000000E-03 0.  1.
</event>
<event>
 8    1  0.1088088E+005  0.1043930E+01  0.7957747E-01            NaN
         13   -1    0    0    0    0  0.00000000000E+00  0.00000000000E+00  0.74505805969E-08  0.10566000000E+00  0.10566000000E+00 0. -1.
     999900   -1    0    0    0    0 -0.00000000000E+00 -0.00000000000E+00 -0.74505805969E-08  0.93827000000E+00  0.93827000000E+00 0. -1.
     999902    2    1    2    0    0  0.61363281247E-02 -0.21885067441E-01  0.85327931626E-02  0.10196520417E+01  0.10193629711E+01 0.  0.
     999903    2    3    3    0    0  0.29745952752E-01 -0.12203595913E+00 -0.36922986851E-01  0.13249149061E+00  0.20324642670E-01 0.  0.
         14    1    1    2    0    0 -0.61363281247E-02  0.21885067441E-01 -0.85327931626E-02  0.24277958294E-01  0.00000000000E+00 0.  1.
     999901    1    3    3    0    0 -0.23609624628E-01  0.10015089169E+00  0.45455780013E-01  0.88716055109E+00  0.88000000000E+00 0.  1.
        -11    1    4    4    0    0  0.19371711262E-01 -0.10735947033E+00 -0.34040069490E-01  0.11428169809E+00  0.51100000000E-03 0. -1.
         11    1    4    4    0    0  0.10374241490E-01 -0.14676488801E-01 -0.28829173603E-02  0.18209792517E-01  0.51100000000E-03 0.  1.
</event>
<event>
 8    1  0.1088088E+005  0.1043930E+01  0.7957747E-01            NaN
         13   -1    0    0    0    0  0.00000000000E+00  0.00000000000E+00  0.74505805969E-08  0.10566000000E+00  0.10566000000E+00 0. -1.
     999900   -1    0    0    0    0 -0.00000000000E+00 -0.00000000000E+00 -0.74505805969E-08  0.93827000000E+00  0.93827000000E+00 0.  1.
     999902    2    1    2    0    0 -0.76522838079E-02  0.19693203159E-01  0.12058676198E-01  0.10196032376E+01  0.10193129896E+01 0.  0.
     999903    2    3    3    0    0 -0.22413380701E-01 -0.12408367562E+00  0.10681914276E-01  0.12781201968E+00  0.17963599073E-01 0.  0.
         14    1    1    2    0    0  0.76522838079E-02 -0.19693203159E-01 -0.12058676198E-01  0.24326762418E-01  0.00000000000E+00 0.  1.
     999901    1    3    3    0    0  0.14761096893E-01  0.14377687878E+00  0.13767619214E-02  0.89179121790E+00  0.88000000000E+00 0. -1.
        -11    1    4    4    0    0 -0.11010324331E-02 -0.38509763981E-01 -0.26530831964E-02  0.38620126434E-01  0.51100000000E-03 0.  1.
         11    1    4    4    0    0 -0.21312348268E-01 -0.85573911641E-01  0.13334997473E-01  0.89191893246E-01  0.51100000000E-03 0. -1.
</event>
<event>
 7    1  0.1088088E+005  0.1043930E+01  0.7957747E-01            NaN
         13   -1    0    0    0    0  0.00000000000E+00  0.00000000000E+00  0.74505805969E-08  0.10566000000E+00  0.10566000000E+00 0.  1.
     999900   -1    0    0    0    0 -0.00000000000E+00 -0.00000000000E+00 -0.74505805969E-08  0.93827000000E+00  0.93827000000E+00 0.  1.
     999902    2    1    2    0    0 -0.82983237849E-02  0.11048065088E-01 -0.19470442336E-01  0.10200549074E+01  0.10197754626E+01 0.  0.
         14    1    1    2    0    0  0.82983237849E-02 -0.11048065088E-01  0.19470442336E-01  0.23875092556E-01  0.00000000000E+00 0.  1.
     999901    1    3    3    0    0  0.84564493820E-01  0.83334173891E-01  0.15898431899E-01  0.88811513797E+00  0.88000000000E+00 0. -1.
        -11    1    3    3    0    0 -0.33721232067E-01 -0.50232641320E-01 -0.32669468741E-01  0.68760417792E-01  0.51100000000E-03 0. -1.
         11    1    3    3    0    0 -0.59141585538E-01 -0.22053467483E-01 -0.26994054940E-02  0.63179351682E-01  0.51100000000E-03 0.  1.
</event>
<event>
 8    1  0.1088088E+005  0.1043930E+01  0.7957747E-01            NaN
         13   -1    0    0    0    0  0.00000000000E+00  0.00000000000E+00  0.74505805969E-08  0.10566000000E+00  0.10566000000E+00 0.  1.
     999900   -1    0    0    0    0 -0.00000000000E+00 -0.00000000000E+00 -0.74505805969E-08  0.93827000000E+00  0.93827000000E+00 0.  1.
     999902    2    1    2    0    0  0.11228625093E-01  0.18778953229E-01  0.98984950832E-02  0.10199151856E+01  0.10196324213E+01 0.  0.
     999903    2    3    3    0    0 -0.26781356536E-01  0.30108660799E-01 -0.12135725478E+00  0.12929675279E+00  0.19138821350E-01 0.  0.
         14    1    1    2    0    0 -0.11228625093E-01 -0.18778953229E-01 -0.98984950832E-02  0.24014814402E-01  0.00000000000E+00 0. -1.
     999901    1    3    3    0    0  0.38009981629E-01 -0.11329707571E-01  0.13125574986E+00  0.89061843280E+00  0.88000000000E+00 0. -1.
        -11    1    4    4    0    0 -0.24262898438E-02  0.44859032181E-03 -0.31304510535E-01  0.31405757697E-01  0.51100000000E-03 0. -1.
         11    1    4    4    0    0 -0.24355066692E-01  0.29660070477E-01 -0.90052744245E-01  0.97890995098E-01  0.51100000000E-03 0.  1.
</event>
<event>
 8    1  0.1088088E+005  0.1043930E+01  0.7957747E-01            NaN
         13   -1    0    0    0    0  0.00000000000E+00  0.00000000000E+00  0.74505805969E-08  0.10566000000E+00  0.10566000000E+00 0. -1.
     999900   -1    0    0    0    0 -0.00000000000E+00 -0.00000000000E+00 -0.74505805969E-08  0.93827000000E+00  0.93827000000E+00 0. -1.
     999902    2    1    2    0    0  0.56288755780E-02 -0.19402452897E-01  0.12652513725E-01  0.10200925185E+01  0.10198139638E+01 0.  0.
     999903    2    3    3    0    0 -0.12415843151E+00 -0.27210617736E-01 -0.18153378927E-01  0.13000560394E+00  0.20400442599E-01 0.  0.
         14    1    1    2    0    0 -0.56288755780E-02  0.19402452897E-01 -0.12652513725E-01  0.23837481458E-01  0.00000000000E+00 0.  1.
     999901    1    3    3    0    0  0.12978730709E+00  0.78081648384E-02  0.30805892652E-01  0.89008691460E+00  0.88000000000E+00 0.  1.
        -11    1    4    4    0    0 -0.61532129300E-01 -0.79978775379E-02 -0.17579612966E-01  0.64493975644E-01  0.51100000000E-03 0. -1.
         11    1    4    4    0    0 -0.62626302207E-01 -0.19212740198E-01 -0.57376596114E-03  0.65511628299E-01  0.51100000000E-03 0.  1.
</event>
<event>
 8    1  0.1099448E+005  0.1043930E+01  0.7957747E-01            NaN
         13   -1    0    0    0    0  0.00000000000E+00  0.00000000000E+00  0.74505805969E-08  0.10566000000E+00  0.10566000000E+00 0.  1.
     999900   -1    0    0    0    0 -0.00000000000E+00 -0.00000000000E+00 -0.74505805969E-08  0.93827000000E+00  0.93827000000E+00 0.  1.
     999902    2    1    2    0    0 -0.18362605288E-01 -0.40301134034E-02 -0.12786703585E-01  0.10211939741E+01  0.10209408434E+01 0.  0.
     999903    2    3    3    0    0  0.87677462158E-01  0.83922890162E-01 -0.42074538518E-01  0.12999365762E+00  0.19942300953E-01 0.  0.
         14    1    1    2    0    0  0.18362605288E-01  0.40301134034E-02  0.12786703585E-01  0.22736025941E-01  0.00000000000E+00 0.  1.
     999901    1    3    3    0    0 -0.10604006745E+00 -0.87953003565E-01  0.29287834933E-01  0.89120031644E+00  0.88000000000E+00 0.  1.
        -11    1    4    4    0    0  0.33377478111E-01  0.20611739852E-01 -0.18109789111E-01  0.43210247019E-01  0.51100000000E-03 0. -1.
         11    1    4    4    0    0  0.54299984047E-01  0.63311150310E-01 -0.23964749407E-01  0.86783410605E-01  0.51100000000E-03 0.  1.
</event>
<event>
 8    1  0.1088088E+005  0.1043930E+01  0.7957747E-01            NaN
         13   -1    0    0    0    0  0.00000000000E+00  0.00000000000E+00  0.74505805969E-08  0.10566000000E+00  0.10566000000E+00 0.  1.
     999900   -1    0    0    0    0 -0.00000000000E+00 -0.00000000000E+00 -0.74505805969E-08  0.93827000000E+00  0.93827000000E+00 0.  1.
     999902    2    1    2    0    0  0.47710812980E-02  0.21313319217E-01  0.68017338164E-02  0.10210545902E+01  0.10207983110E+01 0.  0.
     999903    2    3    3    0    0 -0.55621755497E-01  0.38317745429E-01 -0.11043456567E+00  0.13106537945E+00  0.20501490083E-01 0.  0.
         14    1    1    2    0    0 -0.47710812980E-02 -0.21313319217E-01 -0.68017338164E-02  0.22875409848E-01  0.00000000000E+00 0. -1.
     999901    1    3    3    0    0  0.60392836795E-01 -0.17004426212E-01  0.11723629949E+00  0.88998921070E+00  0.88000000000E+00 0. -1.
        -11    1    4    4    0    0 -0.39650038350E-01  0.36744507496E-01 -0.78400710666E-01  0.95232436314E-01  0.51100000000E-03 0.  1.
         11    1    4    4    0    0 -0.15971717147E-01  0.15732379337E-02 -0.32033855008E-01  0.35832943137E-01  0.51100000000E-03 0. -1.
</event>
<event>
 8    1  0.1088088E+005  0.1043930E+01  0.7957747E-01            NaN
         13   -1    0    0    0    0  0.00000000000E+00  0.00000000000E+00  0.74505805969E-08  0.10566000000E+00  0.10566000000E+00 0.  1.
     999900   -1    0    0    0    0 -0.00000000000E+00 -0.00000000000E+00 -0.74505805969E-08  0.93827000000E+00  0.93827000000E+00 0.  1.
     999902    2    1    2    0    0 -0.26817386050E-02  0.23399177478E-01  0.40073847912E-02  0.10200391574E+01  0.10197593394E+01 0.  0.
     999903    2    3    3    0    0  0.36712200219E-01  0.61142421627E-01 -0.10832175888E+00  0.13122293823E+00  0.19991865934E-01 0.  0.
         14    1    1    2    0    0  0.26817386050E-02 -0.23399177478E-01 -0.40073847912E-02  0.23890842627E-01  0.00000000000E+00 0. -1.
     999901    1    3    3    0    0 -0.39393938824E-01 -0.37743244150E-01  0.11232914367E+00  0.88881621914E+00  0.88000000000E+00 0. -1.
        -11    1    4    4    0    0  0.76908734935E-02  0.24850838209E-01 -0.26581635949E-01  0.37196211978E-01  0.51100000000E-03 0. -1.
         11    1    4    4    0    0  0.29021326725E-01  0.36291583418E-01 -0.81740122930E-01  0.94026726251E-01  0.51100000000E-03 0.  1.
</event>
<event>
 8    1  0.1088088E+005  0.1043930E+01  0.7957747E-01            NaN
         13   -1    0    0    0    0  0.00000000000E+00  0.00000000000E+00  0.74505805969E-08  0.10566000000E+00  0.10566000000E+00 0. -1.
     999900   -1    0    0    0    0 -0.00000000000E+00 -0.00000000000E+00 -0.74505805969E-08  0.93827000000E+00  0.93827000000E+00 0. -1.
     999902    2    1    2    0    0  0.57461816359E-02 -0.23491292611E-02 -0.22792302902E-01  0.10203074243E+01  0.10200339279E+01 0.  0.
     999903    2    3    3    0    0  0.56006721029E-01 -0.11651154893E+00  0.73332415083E-02  0.13100054345E+00  0.19891508689E-01 0.  0.
         14    1    1    2    0    0 -0.57461816359E-02  0.23491292611E-02  0.22792302902E-01  0.23622575712E-01  0.00000000000E+00 0. -1.
     999901    1    3    3    0    0 -0.50260539393E-01  0.11416241967E+00 -0.30125544410E-01  0.88930688084E+00  0.88000000000E+00 0. -1.
        -11    1    4    4    0    0  0.52227915398E-01 -0.99049225599E-01  0.11743277698E-01  0.11259071867E+00  0.51100000000E-03 0. -1.
         11    1    4    4    0    0  0.37788056310E-02 -0.17462323332E-01 -0.44100361901E-02  0.18409824778E-01  0.51100000000E-03 0.  1.
</event>
<event>
 7    1  0.1088088E+005  0.1043930E+01  0.7957747E-01            NaN
         13   -1    0    0    0    0  0.00000000000E+00  0.00000000000E+00  0.74505805969E-08  0.10566000000E+00  0.10566000000E+00 0. -1.
     999900   -1    0    0    0    0 -0.00000000000E+00 -0.00000000000E+00 -0.74505805969E-08  0.93827000000E+00  0.93827000000E+00 0. -1.
     999903    2    1    2    0    0 -0.70152855087E-01  0.43912477067E-01 -0.45045806165E-01  0.95541567979E-01  0.15790435074E-01 0.  0.
         14    1    1    2    0    0  0.47102054657E-01  0.90178167061E-02  0.46063151203E-01  0.66496153797E-01  0.00000000000E+00 0. -1.
     999901    1    1    2    0    0  0.23050800430E-01 -0.52930293773E-01 -0.10173450379E-02  0.88189227822E+00  0.88000000000E+00 0.  1.
        -11    1    3    3    0    0 -0.50651038679E-02  0.10305443717E-02 -0.72420859692E-02  0.89121394222E-02  0.51100000000E-03 0.  1.
         11    1    3    3    0    0 -0.65087751220E-01  0.42881932696E-01 -0.37803720196E-01  0.86629428557E-01  0.51100000000E-03 0. -1.
</event>
<event>
 8    1  0.1088088E+005  0.1043930E+01  0.7957747E-01            NaN
         13   -1    0    0    0    0  0.00000000000E+00  0.00000000000E+00  0.74505805969E-08  0.10566000000E+00  0.10566000000E+00 0.  1.
     999900   -1    0    0    0    0 -0.00000000000E+00 -0.00000000000E+00 -0.74505805969E-08  0.93827000000E+00  0.93827000000E+00 0. -1.
     999902    2    1    2    0    0 -0.12508107949E-01 -0.69562091560E-02  0.21725256739E-01  0.10179140743E+01  0.10175815615E+01 0.  0.
     999903    2    3    3    0    0  0.72321073250E-01  0.10215644095E+00  0.99409235410E-02  0.12704908401E+00  0.19400302126E-01 0.  0.
         14    1    1    2    0    0  0.12508107949E-01  0.69562091560E-02 -0.21725256739E-01  0.26015925712E-01  0.00000000000E+00 0. -1.
     999901    1    3    3    0    0 -0.84829181199E-01 -0.10911265011E+00  0.11784333198E-01  0.89086499028E+00  0.88000000000E+00 0.  1.
        -11    1    4    4    0    0  0.25880500448E-01  0.52523340378E-01  0.17299274799E-02  0.58581186041E-01  0.51100000000E-03 0.  1.
         11    1    4    4    0    0  0.46440572802E-01  0.49633100575E-01  0.82109960611E-02  0.68467897968E-01  0.51100000000E-03 0. -1.
</event>
<event>
 8    1  0.1088088E+005  0.1043930E+01  0.7957747E-01            NaN
         13   -1    0    0    0    0  0.00000000000E+00  0.00000000000E+00  0.74505805969E-08  0.10566000000E+00  0.10566000000E+00 0. -1.
     999900   -1    0    0    0    0 -0.00000000000E+00 -0.00000000000E+00 -0.74505805969E-08  0.93827000000E+00  0.93827000000E+00 0. -1.
     999902    2    1    2    0    0  0.10302808123E-02 -0.23785736922E-01 -0.69741833501E-03  0.10201117475E+01  0.10198336473E+01 0.  0.
     999903    2    3    3    0    0 -0.41666876931E-01 -0.10532920283E+00 -0.66346752873E-01  0.13287884728E+00  0.20604049034E-01 0.  0.
         14    1    1    2    0    0 -0.10302808123E-02  0.23785736922E-01  0.69741833501E-03  0.23818252493E-01  0.00000000000E+00 0. -1.
     999901    1    3    3    0    0  0.42697157743E-01  0.81543465909E-01  0.65649334538E-01  0.88723290022E+00  0.88000000000E+00 0.  1.
        -11    1    4    4    0    0 -0.29280901745E-01 -0.46829640600E-01 -0.29111295912E-01  0.62434887014E-01  0.51100000000E-03 0.  1.
         11    1    4    4    0    0 -0.12385975186E-01 -0.58499562231E-01 -0.37235456961E-01  0.70443960271E-01  0.51100000000E-03 0. -1.
</event>
<event>
 8    1  0.1088088E+005  0.1043930E+01  0.7957747E-01            NaN
         13   -1    0    0    0    0  0.00000000000E+00  0.00000000000E+00  0.74505805969E-08  0.10566000000E+00  0.10566000000E+00 0. -1.
     999900   -1    0    0    0    0 -0.00000000000E+00 -0.00000000000E+00 -0.74505805969E-08  0.93827000000E+00  0.93827000000E+00 0. -1.
     999902    2    1    2    0    0 -0.24164263669E-04 -0.58803601123E-02 -0.23304928417E-01  0.10198946322E+01  0.10196113778E+01 0.  0.
     999903    2    3    3    0    0 -0.10067540176E+00 -0.80157431443E-01  0.82869734326E-02  0.13048707473E+00  0.19936208479E-01 0.  0.
         14    1    1    2    0    0  0.24164263669E-04  0.58803601123E-02  0.23304928417E-01  0.24035367846E-01  0.00000000000E+00 0. -1.
     999901    1    3    3    0    0  0.10065123750E+00  0.74277071331E-01 -0.31591901850E-01  0.88940755742E+00  0.88000000000E+00 0. -1.
        -11    1    4    4    0    0 -0.71281273648E-01 -0.65843971779E-01  0.11079425747E-01  0.97670176556E-01  0.51100000000E-03 0. -1.
         11    1    4    4    0    0 -0.29394128112E-01 -0.14313459664E-01 -0.27924523146E-02  0.32816898177E-01  0.51100000000E-03 0.  1.
</event>
<event>
 8    1  0.1088088E+005  0.1043930E+01  0.7957747E-01            NaN
         13   -1    0    0    0    0  0.00000000000E+00  0.00000000000E+00  0.74505805969E-08  0.10566000000E+00  0.10566000000E+00 0. -1.
     999900   -1    0    0    0    0 -0.00000000000E+00 -0.00000000000E+00 -0.74505805969E-08  0.93827000000E+00  0.93827000000E+00 0. -1.
     999902    2    1    2    0    0  0.92845847663E-02 -0.17888786998E-01  0.12566621657E-01  0.10201785328E+01  0.10199020083E+01 0.  0.
     999903    2    3    3    0    0 -0.31371913917E-01 -0.42489509974E-01  0.11956536840E+00  0.13242469402E+00  0.21233624868E-01 0.  0.
         14    1    1    2    0    0 -0.92845847663E-02  0.17888786998E-01 -0.12566621657E-01  0.23751467205E-01  0.00000000000E+00 0.  1.
     999901    1    3    3    0    0  0.40656498683E-01  0.24600722976E-01 -0.10699874674E+00  0.88775383878E+00  0.88000000000E+00 0. -1.
        -11    1    4    4    0    0 -0.26153689794E-01 -0.18461816633E-01  0.60649164368E-01  0.68581604113E-01  0.51100000000E-03 0. -1.
         11    1    4    4    0    0 -0.52182241227E-02 -0.24027693341E-01  0.58916204032E-01  0.63843089906E-01  0.51100000000E-03 0.  1.
</event>
<event>
 8    1  0.1088088E+005  0.1043930E+01  0.7957747E-01            NaN
         13   -1    0    0    0    0  0.00000000000E+00  0.00000000000E+00  0.74505805969E-08  0.10566000000E+00  0.10566000000E+00 0. -1.
     999900   -1    0    0    0    0 -0.00000000000E+00 -0.00000000000E+00 -0.74505805969E-08  0.93827000000E+00  0.93827000000E+00 0. -1.
     999902    2    1    2    0    0  0.40148895127E-02 -0.11639470017E-01 -0.19591947417E-01  0.10207904018E+01  0.10205281003E+01 0.  0.
     999903    2    3    3    0    0 -0.10894643172E-02  0.12548558033E+00 -0.27888951536E-01  0.13011752465E+00  0.20123588107E-01 0.  0.
         14    1    1    2    0    0 -0.40148895127E-02  0.11639470017E-01  0.19591947417E-01  0.23139598175E-01  0.00000000000E+00 0. -1.
     999901    1    3    3    0    0  0.51043538299E-02 -0.13712505035E+00  0.82970041185E-02  0.89067287718E+00  0.88000000000E+00 0.  1.
        -11    1    4    4    0    0  0.40046454028E-02  0.79616496865E-01 -0.26268371759E-01  0.83935166848E-01  0.51100000000E-03 0.  1.
         11    1    4    4    0    0 -0.50941097200E-02  0.45869083470E-01 -0.16205797770E-02  0.46182357800E-01  0.51100000000E-03 0. -1.
</event>
<event>
 8    1  0.1088088E+005  0.1043930E+01  0.7957747E-01            NaN
         13   -1    0    0    0    0  0.00000000000E+00  0.00000000000E+00  0.74505805969E-08  0.10566000000E+00  0.10566000000E+00 0.  1.
     999900   -1    0    0    0    0 -0.00000000000E+00 -0.00000000000E+00 -0.74505805969E-08  0.93827000000E+00  0.93827000000E+00 0.  1.
     999902    2    1    2    0    0  0.12179559818E-03  0.10726679117E-01 -0.23185590920E-01  0.10183830216E+01  0.10180625377E+01 0.  0.
     999903    2    3    3    0    0 -0.64584861916E-01 -0.53348813778E-01 -0.98039831600E-01  0.13052279743E+00  0.20176514773E-01 0.  0.
         14    1    1    2    0    0 -0.12179559818E-03 -0.10726679117E-01  0.23185590920E-01  0.25546978400E-01  0.00000000000E+00 0.  1.
     999901    1    3    3    0    0  0.64706657514E-01  0.64075492895E-01  0.74854240680E-01  0.88786022417E+00  0.88000000000E+00 0. -1.
        -11    1    4    4    0    0 -0.19345573557E-01 -0.17591634042E-01 -0.17504312311E-01  0.31470285588E-01  0.51100000000E-03 0.  1.
         11    1    4    4    0    0 -0.45239288359E-01 -0.35757179737E-01 -0.80535519289E-01  0.99052511842E-01  0.51100000000E-03 0. -1.
</event>
<event>
 8    1  0.1088088E+005  0.1043930E+01  0.7957747E-01            NaN
         13   -1    0    0    0    0  0.00000000000E+00  0.00000000000E+00  0.74505805969E-08  0.10566000000E+00  0.10566000000E+00 0. -1.
     999900   -1    0    0    0    0 -0.00000000000E+00 -0.00000000000E+00 -0.74505805969E-08  0.93827000000E+00  0.93827000000E+00 0. -1.
     999902    2    1    2    0    0 -0.12608193596E-01  0.17249970676E-01  0.41863254087E-02  0.10221572337E+01  0.10219253187E+01 0.  0.
     999903    2    3    3    0    0 -0.42639039207E-01  0.19261974322E-01  0.12361939304E+00  0.13357963012E+00  0.19304194589E-01 0.  0.
         14    1    1    2    0    0  0.12608193596E-01 -0.17249970676E-01 -0.41863254087E-02  0.21772766349E-01  0.00000000000E+00 0. -1.
     999901    1    3    3    0    0  0.30030845611E-01 -0.20120036457E-02 -0.11943306763E+00  0.88857760353E+00  0.88000000000E+00 0. -1.
        -11    1    4    4    0    0 -0.10334056551E-01 -0.11175405917E-02  0.13650508515E-01  0.17165055360E-01  0.51100000000E-03 0. -1.
         11    1    4    4    0    0 -0.32304982656E-01  0.20379514913E-01  0.10996888453E+00  0.11641457476E+00  0.51100000000E-03 0.  1.
</event>
<event>
 8    1  0.1088088E+005  0.1043930E+01  0.7957747E-01            NaN
         13   -1    0    0    0    0  0.00000000000E+00  0.00000000000E+00  0.74505805969E-08  0.10566000000E+00  0.10566000000E+00 0. -1.
     999900   -1    0    0    0    0 -0.00000000000E+00 -0.00000000000E+00 -0.74505805969E-08  0.93827000000E+00  0.93827000000E+00 0. -1.
     999902    2    1    2    0    0  0.19571869322E-01  0.11720387060E-01  0.79638934085E-02  0.10197670296E+01  0.10194807234E+01 0.  0.
     999903    2    3    3    0    0 -0.72711754503E-02  0.99982260120E-01  0.83082969126E-01  0.13176163386E+00  0.20224392848E-01 0.  0.
         14    1    1    2    0    0 -0.19571869322E-01 -0.11720387060E-01 -0.79638934085E-02  0.24162970426E-01  0.00000000000E+00 0.  1.
     999901    1    3    3    0    0  0.26843044772E-01 -0.88261873060E-01 -0.75119075718E-01  0.88800539572E+00  0.88000000000E+00 0. -1.
        -11    1    4    4    0    0 -0.11098962766E-01  0.45834564142E-01  0.46971108267E-01  0.66562304478E-01  0.51100000000E-03 0.  1.
         11    1    4    4    0    0  0.38277873158E-02  0.54147695978E-01  0.36111860859E-01  0.65199329377E-01  0.51100000000E-03 0. -1.
</event>
<event>
 8    1  0.1088088E+005  0.1043930E+01  0.7957747E-01            NaN
         13   -1    0    0    0    0  0.00000000000E+00  0.00000000000E+00  0.74505805969E-08  0.10566000000E+00  0.10566000000E+00 0. -1.
     999900   -1    0    0    0    0 -0.00000000000E+00 -0.00000000000E+00 -0.74505805969E-08  0.93827000000E+00  0.93827000000E+00 0.  1.
     999902    2    1    2    0    0 -0.10553222123E-01  0.15234266860E-01 -0.14011918771E-01  0.10206966780E+01  0.10204322227E+01 0.  0.
     999903    2    3    3    0    0  0.20752107120E-01  0.12955389205E+00 -0.29283228395E-02  0.13268099883E+00  0.19514391642E-01 0.  0.
         14    1    1    2    0    0  0.10553222123E-01 -0.15234266860E-01  0.14011918771E-01  0.23233322009E-01  0.00000000000E+00 0. -1.
     999901    1    3    3    0    0 -0.31305329243E-01 -0.11431962519E+00 -0.11083595931E-01  0.88801567916E+00  0.88000000000E+00 0. -1.
        -11    1    4    4    0    0 -0.32955771669E-02  0.15642939989E-01  0.22015244398E-02  0.16145285108E-01  0.51100000000E-03 0. -1.
         11    1    4    4    0    0  0.24047684287E-01  0.11391095206E+00 -0.51298472793E-02  0.11653571372E+00  0.51100000000E-03 0.  1.
</event>
<event>
 8    1  0.1088088E+005  0.1043930E+01  0.7957747E-01            NaN
         13   -1    0    0    0    0  0.00000000000E+00  0.00000000000E+00  0.74505805969E-08  0.10566000000E+00  0.10566000000E+00 0.  1.
     999900   -1    0    0    0    0 -0.00000000000E+00 -0.00000000000E+00 -0.74505805969E-08  0.93827000000E+00  0.93827000000E+00 0. -1.
     999902    2    1    2    0    0  0.23327570037E-01 -0.48627503147E-02 -0.19660725723E-02  0.10200200166E+01  0.10197397447E+01 0.  0.
     999903    2    3    3    0    0  0.26904868231E-01 -0.12051600914E+00 -0.40888596321E-01  0.13159250904E+00  0.19918100647E-01 0.  0.
         14    1    1    2    0    0 -0.23327570037E-01  0.48627503147E-02  0.19660725723E-02  0.23909983392E-01  0.00000000000E+00 0.  1.
     999901    1    3    3    0    0 -0.35772981941E-02  0.11565325883E+00  0.38922523749E-01  0.88842750756E+00  0.88000000000E+00 0. -1.
        -11    1    4    4    0    0 -0.99539837872E-03 -0.21448487424E-01 -0.20097009791E-02  0.21571473055E-01  0.51100000000E-03 0.  1.
         11    1    4    4    0    0  0.27900266610E-01 -0.99067521718E-01 -0.38878895342E-01  0.11002103599E+00  0.51100000000E-03 0. -1.
</event>
<event>
 8    1  0.1088088E+005  0.1043930E+01  0.7957747E-01            NaN
         13   -1    0    0    0    0  0.00000000000E+00  0.00000000000E+00  0.74505805969E-08  0.10566000000E+00  0.10566000000E+00 0.  1.
     999900   -1    0    0    0    0 -0.00000000000E+00 -0.00000000000E+00 -0.74505805969E-08  0.93827000000E+00  0.93827000000E+00 0. -1.
     999902    2    1    2    0    0  0.19084258636E-01 -0.13387194949E-01 -0.55866977910E-02  0.10199584104E+01  0.10196766751E+01 0.  0.
     999903    2    3    3    0    0 -0.68792395111E-01 -0.10289616010E+00  0.34931396860E-01  0.13014052053E+00  0.19908269889E-01 0.  0.
         14    1    1    2    0    0 -0.19084258636E-01  0.13387194949E-01  0.55866977910E-02  0.23971589611E-01  0.00000000000E+00 0. -1.
     999901    1    3    3    0    0  0.87876653747E-01  0.89508965147E-01 -0.40518094651E-01  0.88981788986E+00  0.88000000000E+00 0. -1.
        -11    1    4    4    0    0 -0.62676463000E-01 -0.85109621238E-01  0.24033467573E-01  0.10839674961E+00  0.51100000000E-03 0. -1.
         11    1    4    4    0    0 -0.61159321111E-02 -0.17786538858E-01  0.10897929287E-01  0.21743770922E-01  0.51100000000E-03 0.  1.
</event>
<event>
 8    1  0.1088088E+005  0.1043930E+01  0.7957747E-01            NaN
         13   -1    0    0    0    0  0.00000000000E+00  0.00000000000E+00  0.74505805969E-08  0.10566000000E+00  0.10566000000E+00 0.  1.
     999900   -1    0    0    0    0 -0.00000000000E+00 -0.00000000000E+00 -0.74505805969E-08  0.93827000000E+00  0.93827000000E+00 0. -1.
     999902    2    1    2    0    0  0.93937621306E-02 -0.13578474688E-01  0.19522487861E-01  0.10183615571E+01  0.10180405275E+01 0.  0.
     999903    2    3    3    0    0  0.45984640374E-01  0.11540122938E+00  0.25825748574E-01  0.12818495238E+00  0.18231342100E-01 0.  0.
         14    1    1    2    0    0 -0.93937621306E-02  0.13578474688E-01 -0.19522487861E-01  0.25568442935E-01  0.00000000000E+00 0. -1.
     999901    1    3    3    0    0 -0.36590878243E-01 -0.12897970407E+00 -0.63032607131E-02  0.89017660468E+00  0.88000000000E+00 0.  1.
        -11    1    4    4    0    0  0.14424828688E-01  0.37247636508E-01  0.17082856401E-01  0.43445911338E-01  0.51100000000E-03 0. -1.
         11    1    4    4    0    0  0.31559811686E-01  0.78153592871E-01  0.87428921732E-02  0.84739041043E-01  0.51100000000E-03 0.  1.
</event>
<event>
 8    1  0.1088088E+005  0.1043930E+01  0.7957747E-01            NaN
         13   -1    0    0    0    0  0.00000000000E+00  0.00000000000E+00  0.74505805969E-08  0.10566000000E+00  0.10566000000E+00 0. -1.
     999900   -1    0    0    0    0 -0.00000000000E+00 -0.00000000000E+00 -0.74505805969E-08  0.93827000000E+00  0.93827000000E+00 0.  1.
     999902    2    1    2    0    0 -0.15625286985E-02  0.91451805626E-02  0.22759832680E-01  0.10193518429E+01  0.10190554910E+01 0.  0.
     999903    2    3    3    0    0  0.12608685244E+00  0.97859426338E-02 -0.17679421899E-01  0.12922257790E+00  0.19805394412E-01 0.  0.
         14    1    1    2    0    0  0.15625286985E-02 -0.91451805626E-02 -0.22759832680E-01  0.24578157113E-01  0.00000000000E+00 0.  1.
     999901    1    3    3    0    0 -0.12764938114E+00 -0.64076207119E-03  0.40439254578E-01  0.89012926499E+00  0.88000000000E+00 0. -1.
        -11    1    4    4    0    0  0.91408831001E-01  0.59825696593E-02 -0.38337736031E-02  0.91686010197E-01  0.51100000000E-03 0.  1.
         11    1    4    4    0    0  0.34678021440E-01  0.38033729746E-02 -0.13845648295E-01  0.37536567700E-01  0.51100000000E-03 0. -1.
</event>
<event>
 8    1  0.1088088E+005  0.1043930E+01  0.7957747E-01            NaN
         13   -1    0    0    0    0  0.00000000000E+00  0.00000000000E+00  0.74505805969E-08  0.10566000000E+00  0.10566000000E+00 0. -1.
     999900   -1    0    0    0    0 -0.00000000000E+00 -0.00000000000E+00 -0.74505805969E-08  0.93827000000E+00  0.93827000000E+00 0.  1.
     999902    2    1    2    0    0  0.12138625889E-01  0.17399667006E-01 -0.86979949225E-02  0.10210007661E+01  0.10207432658E+01 0.  0.
     999903    2    3    3    0    0 -0.70854302645E-01  0.91861923573E-01  0.58474143712E-01  0.13142527745E+00  0.19860333953E-01 0.  0.
         14    1    1    2    0    0 -0.12138625889E-01 -0.17399667006E-01  0.86979949225E-02  0.22929233875E-01  0.00000000000E+00 0. -1.
     999901    1    3    3    0    0  0.82992928534E-01 -0.74462256567E-01 -0.67172138634E-01  0.88957548867E+00  0.88000000000E+00 0.  1.
        -11    1    4    4    0    0 -0.30519388718E-01  0.53469007550E-01  0.24996673468E-01  0.66448947784E-01  0.51100000000E-03 0. -1.
         11    1    4    4    0    0 -0.40334913927E-01  0.38392916023E-01  0.33477470244E-01  0.64976329668E-01  0.51100000000E-03 0.  1.
</event>
<event>
 8    1  0.1088088E+005  0.1043930E+01  0.7957747E-01            NaN
         13   -1    0    0    0    0  0.00000000000E+00  0.00000000000E+00  0.74505805969E-08  0.10566000000E+00  0.10566000000E+00 0.  1.
     999900   -1    0    0    0    0 -0.00000000000E+00 -0.00000000000E+00 -0.74505805969E-08  0.93827000000E+00  0.93827000000E+00 0. -1.
     999902    2    1    2    0    0  0.13713370781E-01 -0.33958714177E-02 -0.19177203819E-01  0.10201108139E+01  0.10198326917E+01 0.  0.
     999903    2    3    3    0    0 -0.45350315922E-01 -0.11417910156E+00  0.36367357905E-01  0.12946686622E+00  0.18589414758E-01 0.  0.
         14    1    1    2    0    0 -0.13713370781E-01  0.33958714177E-02  0.19177203819E-01  0.23819186115E-01  0.00000000000E+00 0.  1.
     999901    1    3    3    0    0  0.59063686703E-01  0.11078323014E+00 -0.55544561724E-01  0.89064394766E+00  0.88000000000E+00 0. -1.
        -11    1    4    4    0    0 -0.28270806620E-01 -0.88566933255E-01  0.22253404918E-01  0.95597151236E-01  0.51100000000E-03 0.  1.
         11    1    4    4    0    0 -0.17079509302E-01 -0.25612168308E-01  0.14113952987E-01  0.33869714987E-01  0.51100000000E-03 0. -1.
</event>
<event>
 8    1  0.1088088E+005  0.1043930E+01  0.7957747E-01            NaN
         13   -1    0    0    0    0  0.00000000000E+00  0.00000000000E+00  0.74505805969E-08  0.10566000000E+00  0.10566000000E+00 0. -1.
     999900   -1    0    0    0    0 -0.00000000000E+00 -0.00000000000E+00 -0.74505805969E-08  0.93827000000E+00  0.93827000000E+00 0.  1.
     999902    2    1    2    0    0  0.22245638726E-01  0.92386204934E-02  0.15559961284E-02  0.10197920284E+01  0.10195063214E+01 0.  0.
     999903    2    3    3    0    0 -0.10831997493E+00 -0.15137252565E-01 -0.63145283832E-01  0.12747604269E+00  0.17333816837E-01 0.  0.
         14    1    1    2    0    0 -0.22245638726E-01 -0.92386204934E-02 -0.15559961284E-02  0.24137971640E-01  0.00000000000E+00 0.  1.
     999901    1    3    3    0    0  0.13056561365E+00  0.24375873058E-01  0.64701279961E-01  0.89231598567E+00  0.88000000000E+00 0.  1.
        -11    1    4    4    0    0 -0.26117346909E-01 -0.10545577342E-01 -0.12546518486E-01  0.30838308289E-01  0.51100000000E-03 0.  1.
         11    1    4    4    0    0 -0.82202628018E-01 -0.45916752230E-02 -0.50598765346E-01  0.96637734400E-01  0.51100000000E-03 0. -1.
</event>
<event>
 8    1  0.1088088E+005  0.1043930E+01  0.7957747E-01            NaN
         13   -1    0    0    0    0  0.00000000000E+00  0.00000000000E+00  0.74505805969E-08  0.10566000000E+00  0.10566000000E+00 0. -1.
     999900   -1    0    0    0    0 -0.00000000000E+00 -0.00000000000E+00 -0.74505805969E-08  0.93827000000E+00  0.93827000000E+00 0.  1.
     999902    2    1    2    0    0 -0.93258490103E-02 -0.65394401909E-02 -0.21367839704E-01  0.10197159481E+01  0.10194284155E+01 0.  0.
     999903    2    3    3    0    0 -0.67727257226E-01  0.10710802416E+00 -0.23818796044E-01  0.13048455083E+00  0.19994317893E-01 0.  0.
         14    1    1    2    0    0  0.93258490103E-02  0.65394401909E-02  0.21367839704E-01  0.24214051941E-01  0.00000000000E+00 0. -1.
     999901    1    3    3    0    0  0.58401408216E-01 -0.11364746435E+00  0.24509563402E-02  0.88923139723E+00  0.88000000000E+00 0. -1.
        -11    1    4    4    0    0 -0.52944928547E-01  0.75688335820E-01 -0.25148645210E-01  0.95731944067E-01  0.51100000000E-03 0. -1.
         11    1    4    4    0    0 -0.14782328679E-01  0.31419688344E-01  0.13298491659E-02  0.34752606760E-01  0.51100000000E-03 0.  1.
</event>
<event>
 8    1  0.1088088E+005  0.1043930E+01  0.7957747E-01            NaN
         13   -1    0    0    0    0  0.00000000000E+00  0.00000000000E+00  0.74505805969E-08  0.10566000000E+00  0.10566000000E+00 0.  1.
     999900   -1    0    0    0    0 -0.00000000000E+00 -0.00000000000E+00 -0.74505805969E-08  0.93827000000E+00  0.93827000000E+00 0. -1.
     999902    2    1    2    0    0 -0.18064738278E-01  0.81962062001E-02  0.15596624318E-01  0.10186957523E+01  0.10183831639E+01 0.  0.
     999903    2    3    3    0    0 -0.21348654150E-01 -0.11605521332E+00  0.48883710559E-01  0.12933798998E+00  0.20349961212E-01 0.  0.
         14    1    1    2    0    0  0.18064738278E-01 -0.81962062001E-02 -0.15596624318E-01  0.25234247666E-01  0.00000000000E+00 0. -1.
     999901    1    3    3    0    0  0.32839158713E-02  0.12425141952E+00 -0.33287086241E-01  0.88935776236E+00  0.88000000000E+00 0. -1.
        -11    1    4    4    0    0  0.17372434572E-02 -0.44531980529E-01  0.19254594239E-01  0.48550137229E-01  0.51100000000E-03 0. -1.
         11    1    4    4    0    0 -0.23085897607E-01 -0.71523232787E-01  0.29629116320E-01  0.80787852747E-01  0.51100000000E-03 0.  1.
</event>
<event>
 8    1  0.1088088E+005  0.1043930E+01  0.7957747E-01            NaN
         13   -1    0    0    0    0  0.00000000000E+00  0.00000000000E+00  0.74505805969E-08  0.10566000000E+00  0.10566000000E+00 0. -1.
     999900   -1    0    0    0    0 -0.00000000000E+00 -0.00000000000E+00 -0.74505805969E-08  0.93827000000E+00  0.93827000000E+00 0. -1.
     999902    2    1    2    0    0 -0.19710568646E-01 -0.66250871945E-02  0.14438434347E-01  0.10186146552E+01  0.10183000290E+01 0.  0.
     999903    2    3    3    0    0 -0.77021711735E-01 -0.66272051558E-01 -0.78392848152E-01  0.12987398745E+00  0.19937027817E-01 0.  0.
         14    1    1    2    0    0  0.19710568646E-01  0.66250871945E-02 -0.14438434347E-01  0.25315344814E-01  0.00000000000E+00 0.  1.
     999901    1    3    3    0    0  0.57311143089E-01  0.59646964363E-01  0.92831282498E-01  0.88874066774E+00  0.88000000000E+00 0.  1.
        -11    1    4    4    0    0 -0.24444678732E-01 -0.11655399625E-01 -0.27263696997E-01  0.38431249702E-01  0.51100000000E-03 0.  1.
         11    1    4    4    0    0 -0.52577033003E-01 -0.54616651933E-01 -0.51129151154E-01  0.91442737746E-01  0.51100000000E-03 0. -1.
</event>
<event>
 8    1  0.1088088E+005  0.1043930E+01  0.7957747E-01            NaN
         13   -1    0    0    0    0  0.00000000000E+00  0.00000000000E+00  0.74505805969E-08  0.10566000000E+00  0.10566000000E+00 0. -1.
     999900   -1    0    0    0    0 -0.00000000000E+00 -0.00000000000E+00 -0.74505805969E-08  0.93827000000E+00  0.93827000000E+00 0. -1.
     999902    2    1    2    0    0  0.14942780585E-01  0.40808368659E-02  0.17112581015E-01  0.10208479648E+01  0.10205869815E+01 0.  0.
     999903    2    3    3    0    0 -0.68321700841E-01  0.10781603751E+00 -0.16218940941E-01  0.13022741927E+00  0.20099102852E-01 0.  0.
         14    1    1    2    0    0 -0.14942780585E-01 -0.40808368659E-02 -0.17112581015E-01  0.23082035225E-01  0.00000000000E+00 0.  1.
     999901    1    3    3    0    0  0.83264481426E-01 -0.10373520064E+00  0.33331521957E-01  0.89062054550E+00  0.88000000000E+00 0.  1.
        -11    1    4    4    0    0 -0.50202797217E-01  0.82283235061E-01 -0.35700415010E-02  0.96456508011E-01  0.51100000000E-03 0. -1.
         11    1    4    4    0    0 -0.18118903623E-01  0.25532802445E-01 -0.12648899440E-01  0.33770911259E-01  0.51100000000E-03 0.  1.
</event>
<event>
 8    1  0.1088088E+005  0.1043930E+01  0.7957747E-01            NaN
         13   -1    0    0    0    0  0.00000000000E+00  0.00000000000E+00  0.74505805969E-08  0.10566000000E+00  0.10566000000E+00 0. -1.
     999900   -1    0    0    0    0 -0.00000000000E+00 -0.00000000000E+00 -0.74505805969E-08  0.93827000000E+00  0.93827000000E+00 0. -1.
     999902    2    1    2    0    0 -0.32303997753E-02  0.14118503266E-01 -0.18668763570E-01  0.10203018314E+01  0.10200282039E+01 0.  0.
     999903    2    3    3    0    0 -0.29611330682E-01  0.12601811659E+00  0.74657365060E-02  0.13243895402E+00  0.26961875026E-01 0.  0.
         14    1    1    2    0    0  0.32303997753E-02 -0.14118503266E-01  0.18668763570E-01  0.23628168579E-01  0.00000000000E+00 0. -1.
     999901    1    3    3    0    0  0.26380930907E-01 -0.11189961333E+00 -0.26134500076E-01  0.88786287740E+00  0.88000000000E+00 0. -1.
        -11    1    4    4    0    0 -0.10756828863E-01  0.75972118633E-01  0.15714768659E-01  0.78324244342E-01  0.51100000000E-03 0. -1.
         11    1    4    4    0    0 -0.18854501819E-01  0.50045997961E-01 -0.82490321527E-02  0.54114709675E-01  0.51100000000E-03 0.  1.
</event>
<event>
 8    1  0.1088088E+005  0.1043930E+01  0.7957747E-01            NaN
         13   -1    0    0    0    0  0.00000000000E+00  0.00000000000E+00  0.74505805969E-08  0.10566000000E+00  0.10566000000E+00 0. -1.
     999900   -1    0    0    0    0 -0.00000000000E+00 -0.00000000000E+00 -0.74505805969E-08  0.93827000000E+00  0.93827000000E+00 0. -1.
     999902    2    1    2    0    0 -0.13913272599E-01  0.13207080308E-01 -0.12620427984E-01  0.10209673928E+01  0.10207091339E+01 0.  0.
     999903    2    3    3    0    0 -0.41354280081E-01 -0.11373709986E+00 -0.45174351295E-01  0.13083954153E+00  0.20783629293E-01 0.  0.
         14    1    1    2    0    0  0.13913272599E-01 -0.13207080308E-01  0.12620427984E-01  0.22962607151E-01  0.00000000000E+00 0. -1.
     999901    1    3    3    0    0  0.27441007482E-01  0.12694418017E+00  0.32553923311E-01  0.89012785132E+00  0.88000000000E+00 0.  1.
        -11    1    4    4    0    0 -0.16822106576E-01 -0.45725283392E-01 -0.29163649249E-01  0.56785247815E-01  0.51100000000E-03 0.  1.
         11    1    4    4    0    0 -0.24532173505E-01 -0.68011816471E-01 -0.16010702046E-01  0.74054293715E-01  0.51100000000E-03 0. -1.
</event>
<event>
 8    1  0.1088088E+005  0.1043930E+01  0.7957747E-01            NaN
         13   -1    0    0    0    0  0.00000000000E+00  0.00000000000E+00  0.74505805969E-08  0.10566000000E+00  0.10566000000E+00 0. -1.
     999900   -1    0    0    0    0 -0.00000000000E+00 -0.00000000000E+00 -0.74505805969E-08  0.93827000000E+00  0.93827000000E+00 0.  1.
     999902    2    1    2    0    0  0.19130787795E-01 -0.58637696669E-02 -0.12651011869E-01  0.10202568308E+01  0.10199821479E+01 0.  0.
     999903    2    3    3    0    0 -0.71638541086E-01  0.10238661814E+00 -0.24740496580E-01  0.12890764385E+00  0.19748122127E-01 0.  0.
         14    1    1    2    0    0 -0.19130787795E-01  0.58637696669E-02  0.12651011869E-01  0.23673169152E-01  0.00000000000E+00 0. -1.
     999901    1    3    3    0    0  0.90769328882E-01 -0.10825038781E+00  0.12089484711E-01  0.89134918700E+00  0.88000000000E+00 0.  1.
        -11    1    4    4    0    0 -0.24375258370E-01  0.31596038446E-01 -0.17189792670E-01  0.43453572456E-01  0.51100000000E-03 0.  1.
         11    1    4    4    0    0 -0.47263282717E-01  0.70790579696E-01 -0.75507039097E-02  0.85454071392E-01  0.51100000000E-03 0. -1.
</event>
<event>
 8    1  0.1088088E+005  0.1043930E+01  0.7957747E-01            NaN
         13   -1    0    0    0    0  0.00000000000E+00  0.00000000000E+00  0.74505805969E-08  0.10566000000E+00  0.10566000000E+00 0. -1.
     999900   -1    0    0    0    0 -0.00000000000E+00 -0.00000000000E+00 -0.74505805969E-08  0.93827000000E+00  0.93827000000E+00 0. -1.
     999902    2    1    2    0    0  0.10849943651E-01  0.14664468681E-01 -0.14023219125E-01  0.10209209019E+01  0.10206615842E+01 0.  0.
     999903    2    3    3    0    0 -0.76438336727E-01  0.10347151744E+00  0.20205763903E-01  0.13149549243E+00  0.18265196209E-01 0.  0.
         14    1    1    2    0    0 -0.10849943651E-01 -0.14664468681E-01  0.14023219125E-01  0.23009098061E-01  0.00000000000E+00 0. -1.
     999901    1    3    3    0    0  0.87288280379E-01 -0.88807048755E-01 -0.34228983029E-01  0.88942540951E+00  0.88000000000E+00 0. -1.
        -11    1    4    4    0    0 -0.66550569227E-01  0.97451706267E-01  0.15638481006E-01  0.11904048273E+00  0.51100000000E-03 0.  1.
         11    1    4    4    0    0 -0.98877674999E-02  0.60198111688E-02  0.45672828971E-02  0.12455009703E-01  0.51100000000E-03 0. -1.
</event>
<event>
 8    1  0.1088088E+005  0.1043930E+01  0.7957747E-01            NaN
         13   -1    0    0    0    0  0.00000000000E+00  0.00000000000E+00  0.74505805969E-08  0.10566000000E+00  0.10566000000E+00 0.  1.
     999900   -1    0    0    0    0 -0.00000000000E+00 -0.00000000000E+00 -0.74505805969E-08  0.93827000000E+00  0.93827000000E+00 0.  1.
     999902    2    1    2    0    0 -0.14391638884E-02  0.20877439695E-01 -0.12772443165E-01  0.10194131897E+01  0.10191183334E+01 0.  0.
     999903    2    3    3    0    0 -0.34829049241E-01  0.11059794266E+00 -0.61470601300E-01  0.13288278208E+00  0.20838218680E-01 0.  0.
         14    1    1    2    0    0  0.14391638884E-02 -0.20877439695E-01  0.12772443165E-01  0.24516810260E-01  0.00000000000E+00 0. -1.
     999901    1    3    3    0    0  0.33389885353E-01 -0.89720502966E-01  0.48698158135E-01  0.88653040766E+00  0.88000000000E+00 0. -1.
        -11    1    4    4    0    0 -0.24156189376E-01  0.97547445815E-01 -0.48392395484E-01  0.11153972715E+00  0.51100000000E-03 0.  1.
         11    1    4    4    0    0 -0.10672859865E-01  0.13050496847E-01 -0.13078205816E-01  0.21343054936E-01  0.51100000000E-03 0. -1.
</event>
<event>
 8    1  0.1088088E+005  0.1043930E+01  0.7957747E-01            NaN
         13   -1    0    0    0    0  0.00000000000E+00  0.00000000000E+00  0.74505805969E-08  0.10566000000E+00  0.10566000000E+00 0. -1.
     999900   -1    0    0    0    0 -0.00000000000E+00 -0.00000000000E+00 -0.74505805969E-08  0.93827000000E+00  0.93827000000E+00 0. -1.
     999902    2    1    2    0    0  0.72052750125E-02  0.22159359604E-01  0.81192163460E-02  0.10192546098E+01  0.10189558797E+01 0.  0.
     999903    2    3    3    0    0  0.49315634830E-01  0.12155069713E+00  0.40371973837E-02  0.13264952116E+00  0.19313018645E-01 0.  0.
         14    1    1    2    0    0 -0.72052750125E-02 -0.22159359604E-01 -0.81192163460E-02  0.24675390172E-01  0.00000000000E+00 0.  1.
     999901    1    3    3    0    0 -0.42110359818E-01 -0.99391337526E-01  0.40820189623E-02  0.88660508867E+00  0.88000000000E+00 0.  1.
        -11    1    4    4    0    0  0.33702737153E-01  0.10261443843E+00  0.44112012314E-02  0.10809864608E+00  0.51100000000E-03 0. -1.
         11    1    4    4    0    0  0.15612897677E-01  0.18936258697E-01 -0.37400384764E-03  0.24550875080E-01  0.51100000000E-03 0.  1.
</event>
<event>
 8    1  0.1088088E+005  0.1043930E+01  0.7957747E-01            NaN
         13   -1    0    0    0    0  0.00000000000E+00  0.00000000000E+00  0.74505805969E-08  0.10566000000E+00  0.10566000000E+00 0.  1.
     999900   -1    0    0    0    0 -0.00000000000E+00 -0.00000000000E+00 -0.74505805969E-08  0.93827000000E+00  0.93827000000E+00 0. -1.
     999902    2    1    2    0    0 -0.73089166233E-02 -0.21709316573E-01  0.87535179434E-02  0.10194077904E+01  0.10191128026E+01 0.  0.
     999903    2    3    3    0    0 -0.49321891439E-01  0.53295545066E-01  0.10588696534E+00  0.12989909119E+00  0.19714470945E-01 0.  0.
         14    1    1    2    0    0  0.73089166233E-02  0.21709316573E-01 -0.87535179434E-02  0.24522209620E-01  0.00000000000E+00 0. -1.
     999901    1    3    3    0    0  0.42012974816E-01 -0.75004861639E-01 -0.97133447400E-01  0.88950869919E+00  0.88000000000E+00 0. -1.
        -11    1    4    4    0    0 -0.18145687071E-01  0.10360196744E-01  0.41485166681E-01  0.46452984957E-01  0.51100000000E-03 0. -1.
         11    1    4    4    0    0 -0.31176204368E-01  0.42935348322E-01  0.64401798662E-01  0.83446106237E-01  0.51100000000E-03 0.  1.
</event>
<event>
 8    1  0.1088088E+005  0.1043930E+01  0.7957747E-01            NaN
         13   -1    0    0    0    0  0.00000000000E+00  0.00000000000E+00  0.74505805969E-08  0.10566000000E+00  0.10566000000E+00 0. -1.
     999900   -1    0    0    0    0 -0.00000000000E+00 -0.00000000000E+00 -0.74505805969E-08  0.93827000000E+00  0.93827000000E+00 0. -1.
     999902    2    1    2    0    0 -0.11246711747E-03  0.21887495830E-01  0.85378507477E-02  0.10204359578E+01  0.10201654640E+01 0.  0.
     999903    2    3    3    0    0 -0.12428906908E+00  0.34411876543E-01 -0.14662333779E-01  0.13132688850E+00  0.19995441231E-01 0.  0.
         14    1    1    2    0    0  0.11246711747E-03 -0.21887495830E-01 -0.85378507477E-02  0.23494042180E-01  0.00000000000E+00 0.  1.
     999901    1    3    3    0    0  0.12417660197E+00 -0.12524380713E-01  0.23200184527E-01  0.88910906932E+00  0.88000000000E+00 0.  1.
        -11    1    4    4    0    0 -0.47806435268E-01  0.20460054266E-01 -0.12813257907E-01  0.53558470598E-01  0.51100000000E-03 0.  1.
         11    1    4    4    0    0 -0.76482633815E-01  0.13951822277E-01 -0.18490758720E-02  0.77768417901E-01  0.51100000000E-03 0. -1.
</event>
<event>
 8    1  0.1088088E+005  0.1043930E+01  0.7957747E-01            NaN
         13   -1    0    0    0    0  0.00000000000E+00  0.00000000000E+00  0.74505805969E-08  0.10566000000E+00  0.10566000000E+00 0. -1.
     999900   -1    0    0    0    0 -0.00000000000E+00 -0.00000000000E+00 -0.74505805969E-08  0.93827000000E+00  0.93827000000E+00 0. -1.
     999902    2    1    2    0    0  0.36649811108E-02 -0.19707109412E-01  0.11731160815E-01  0.10207045316E+01  0.10204402572E+01 0.  0.
     999903    2    3    3    0    0  0.10003567963E+00 -0.64481378550E-01  0.55876730543E-01  0.13321319191E+00  0.21414016558E-01 0.  0.
         14    1    1    2    0    0 -0.36649811108E-02  0.19707109412E-01 -0.11731160815E-01  0.23225468391E-01  0.00000000000E+00 0.  1.
     999901    1    3    3    0    0 -0.96370698518E-01  0.44774269138E-01 -0.44145569728E-01  0.88749133970E+00  0.88000000000E+00 0. -1.
        -11    1    4    4    0    0  0.34586893215E-02 -0.72291629522E-02  0.55185075045E-03  0.80491607676E-02  0.51100000000E-03 0. -1.
         11    1    4    4    0    0  0.96576990307E-01 -0.57252215597E-01  0.55324879792E-01  0.12516403115E+00  0.51100000000E-03 0.  1.
</event>
<event>
 8    1  0.1088088E+005  0.1043930E+01  0.7957747E-01            NaN
         13   -1    0    0    0    0  0.00000000000E+00  0.00000000000E+00  0.74505805969E-08  0.10566000000E+00  0.10566000000E+00 0.  1.
     999900   -1    0    0    0    0 -0.00000000000E+00 -0.00000000000E+00 -0.74505805969E-08  0.93827000000E+00  0.93827000000E+00 0.  1.
     999902    2    1    2    0    0  0.96691988855E-02 -0.29542304036E-01  0.17610129110E-01  0.10082038502E+01  0.10075706654E+01 0.  0.
     999903    2    3    3    0    0 -0.43081586143E-01 -0.85797020128E-01  0.74662017969E-01  0.12299079308E+00  0.18307553865E-01 0.  0.
         14    1    1    2    0    0 -0.96691988855E-02  0.29542304036E-01 -0.17610129110E-01  0.35726149836E-01  0.00000000000E+00 0.  1.
     999901    1    3    3    0    0  0.52750785029E-01  0.56254716091E-01 -0.57051888859E-01  0.88521305708E+00  0.88000000000E+00 0.  1.
        -11    1    4    4    0    0 -0.19007961736E-01 -0.53916852170E-01  0.37100224461E-01  0.68154364008E-01  0.51100000000E-03 0. -1.
         11    1    4    4    0    0 -0.24073624408E-01 -0.31880167957E-01  0.37561793508E-01  0.54836429075E-01  0.51100000000E-03 0.  1.
</event>
<event>
 8    1  0.1088088E+005  0.1043930E+01  0.7957747E-01            NaN
         13   -1    0    0    0    0  0.00000000000E+00  0.00000000000E+00  0.74505805969E-08  0.10566000000E+00  0.10566000000E+00 0. -1.
     999900   -1    0    0    0    0 -0.00000000000E+00 -0.00000000000E+00 -0.74505805969E-08  0.93827000000E+00  0.93827000000E+00 0. -1.
     999902    2    1    2    0    0 -0.19311756694E-01  0.11426321224E-02 -0.12555256141E-01  0.10208673893E+01  0.10206068501E+01 0.  0.
     999903    2    3    3    0    0  0.15846372390E-01 -0.93104640956E-01 -0.90037223988E-01  0.13175429310E+00  0.18245831337E-01 0.  0.
         14    1    1    2    0    0  0.19311756694E-01 -0.11426321224E-02  0.12555256141E-01  0.23062610684E-01  0.00000000000E+00 0. -1.
     999901    1    3    3    0    0 -0.35158129084E-01  0.94247273078E-01  0.77481967847E-01  0.88911309622E+00  0.88000000000E+00 0. -1.
        -11    1    4    4    0    0  0.17597686405E-01 -0.81707123794E-01 -0.71883189956E-01  0.11024149294E+00  0.51100000000E-03 0.  1.
         11    1    4    4    0    0 -0.17513140153E-02 -0.11397517162E-01 -0.18154034032E-01  0.21512800163E-01  0.51100000000E-03 0. -1.
</event>
<event>
 8    1  0.1088088E+005  0.1043930E+01  0.7957747E-01            NaN
         13   -1    0    0    0    0  0.00000000000E+00  0.00000000000E+00  0.74505805969E-08  0.10566000000E+00  0.10566000000E+00 0.  1.
     999900   -1    0    0    0    0 -0.00000000000E+00 -0.00000000000E+00 -0.74505805969E-08  0.93827000000E+00  0.93827000000E+00 0. -1.
     999902    2    1    2    0    0 -0.15051899881E-01  0.15647427817E-01  0.95737318389E-02  0.10202011562E+01  0.10199251644E+01 0.  0.
     999903    2    3    3    0    0 -0.60550502236E-01 -0.11269344903E+00 -0.70875939629E-02  0.12957266840E+00  0.19304549525E-01 0.  0.
         14    1    1    2    0    0  0.15051899881E-01 -0.15647427817E-01 -0.95737318389E-02  0.23728843812E-01  0.00000000000E+00 0. -1.
     999901    1    3    3    0    0  0.45498602355E-01  0.12834087685E+00  0.16661325802E-01  0.89062848779E+00  0.88000000000E+00 0.  1.
        -11    1    4    4    0    0 -0.36528784587E-01 -0.64093891434E-01 -0.13435609575E-01  0.74987703980E-01  0.51100000000E-03 0. -1.
         11    1    4    4    0    0 -0.24021717650E-01 -0.48599557595E-01  0.63480156120E-02  0.54584964418E-01  0.51100000000E-03 0.  1.
</event>
<event>
 8    1  0.1088088E+005  0.1043930E+01  0.7957747E-01            NaN
         13   -1    0    0    0    0  0.00000000000E+00  0.00000000000E+00  0.74505805969E-08  0.10566000000E+00  0.10566000000E+00 0.  1.
     999900   -1    0    0    0    0 -0.00000000000E+00 -0.00000000000E+00 -0.74505805969E-08  0.93827000000E+00  0.93827000000E+00 0. -1.
     999902    2    1    2    0    0 -0.13942153499E-01  0.14460667871E-01 -0.12386550168E-01  0.10203308224E+01  0.10200578738E+01 0.  0.
     999903    2    3    3    0    0 -0.25380704108E-01 -0.10593803149E+00  0.65584752943E-01  0.12864353899E+00  0.19512909789E-01 0.  0.
         14    1    1    2    0    0  0.13942153499E-01 -0.14460667871E-01  0.12386550168E-01  0.23599177625E-01  0.00000000000E+00 0.  1.
     999901    1    3    3    0    0  0.11438550608E-01  0.12039869936E+00 -0.77971303111E-01  0.89168728339E+00  0.88000000000E+00 0. -1.
        -11    1    4    4    0    0 -0.11423978714E-01 -0.78740620651E-01  0.52874722541E-01  0.95533188134E-01  0.51100000000E-03 0.  1.
         11    1    4    4    0    0 -0.13956725394E-01 -0.27197410835E-01  0.12710030402E-01  0.33110350854E-01  0.51100000000E-03 0. -1.
</event>
<event>
 8    1  0.1088088E+005  0.1043930E+01  0.7957747E-01            NaN
         13   -1    0    0    0    0  0.00000000000E+00  0.00000000000E+00  0.74505805969E-08  0.10566000000E+00  0.10566000000E+00 0.  1.
     999900   -1    0    0    0    0 -0.00000000000E+00 -0.00000000000E+00 -0.74505805969E-08  0.93827000000E+00  0.93827000000E+00 0. -1.
     999902    2    1    2    0    0  0.40372961011E-02  0.16023461744E-01  0.17555078689E-01  0.10198212490E+01  0.10195362417E+01 0.  0.
     999903    2    3    3    0    0  0.10044585452E+00  0.66695153003E-01 -0.46560195971E-01  0.13079200379E+00  0.20027063761E-01 0.  0.
         14    1    1    2    0    0 -0.40372961011E-02 -0.16023461744E-01 -0.17555078689E-01  0.24108750980E-01  0.00000000000E+00 0. -1.
     999901    1    3    3    0    0 -0.96408558415E-01 -0.50671691259E-01  0.64115274659E-01  0.88902924523E+00  0.88000000000E+00 0.  1.
        -11    1    4    4    0    0  0.39298306618E-01  0.33690489215E-01 -0.28068625998E-01  0.58885608200E-01  0.51100000000E-03 0.  1.
         11    1    4    4    0    0  0.61147547898E-01  0.33004663787E-01 -0.18491569972E-01  0.71906395590E-01  0.51100000000E-03 0. -1.
</event>
<event>
 8    1  0.1088088E+005  0.1043930E+01  0.7957747E-01            NaN
         13   -1    0    0    0    0  0.00000000000E+00  0.00000000000E+00  0.74505805969E-08  0.10566000000E+00  0.10566000000E+00 0. -1.
     999900   -1    0    0    0    0 -0.00000000000E+00 -0.00000000000E+00 -0.74505805969E-08  0.93827000000E+00  0.93827000000E+00 0. -1.
     999902    2    1    2    0    0  0.11064471384E-01 -0.18843034237E-01  0.10358728554E-01  0.10197476568E+01  0.10194608859E+01 0.  0.
     999903    2    3    3    0    0  0.44357296749E-01 -0.12227569687E+00 -0.16543227057E-01  0.13265665630E+00  0.20129438158E-01 0.  0.
         14    1    1    2    0    0 -0.11064471384E-01  0.18843034237E-01 -0.10358728554E-01  0.24182343218E-01  0.00000000000E+00 0.  1.
     999901    1    3    3    0    0 -0.33292825364E-01  0.10343266263E+00  0.26901955611E-01  0.88709100048E+00  0.88000000000E+00 0.  1.
        -11    1    4    4    0    0  0.13645669412E-01 -0.35607927226E-01 -0.14146208897E-01  0.40675608443E-01  0.51100000000E-03 0.  1.
         11    1    4    4    0    0  0.30711627336E-01 -0.86667769639E-01 -0.23970181604E-02  0.91981047858E-01  0.51100000000E-03 0. -1.
</event>
<event>
 8    1  0.1088088E+005  0.1043930E+01  0.7957747E-01            NaN
         13   -1    0    0    0    0  0.00000000000E+00  0.00000000000E+00  0.74505805969E-08  0.10566000000E+00  0.10566000000E+00 0. -1.
     999900   -1    0    0    0    0 -0.00000000000E+00 -0.00000000000E+00 -0.74505805969E-08  0.93827000000E+00  0.93827000000E+00 0. -1.
     999902    2    1    2    0    0 -0.40991726755E-02 -0.62859171009E-02 -0.22537885532E-01  0.10201755845E+01  0.10198989906E+01 0.  0.
     999903    2    3    3    0    0  0.11607179588E-01 -0.12878507548E+00  0.80442906016E-02  0.13102542690E+00  0.19560920208E-01 0.  0.
         14    1    1    2    0    0  0.40991726755E-02  0.62859171009E-02  0.22537885532E-01  0.23754415478E-01  0.00000000000E+00 0. -1.
     999901    1    3    3    0    0 -0.15706352264E-01  0.12249915838E+00 -0.30582176134E-01  0.88915015762E+00  0.88000000000E+00 0.  1.
        -11    1    4    4    0    0  0.70179313724E-02 -0.12437597885E-01  0.20025854085E-02  0.14429714869E-01  0.51100000000E-03 0.  1.
         11    1    4    4    0    0  0.45892482161E-02 -0.11634747759E+00  0.60417051931E-02  0.11659571203E+00  0.51100000000E-03 0. -1.
</event>
<event>
 8    1  0.1088088E+005  0.1043930E+01  0.7957747E-01            NaN
         13   -1    0    0    0    0  0.00000000000E+00  0.00000000000E+00  0.74505805969E-08  0.10566000000E+00  0.10566000000E+00 0.  1.
     999900   -1    0    0    0    0 -0.00000000000E+00 -0.00000000000E+00 -0.74505805969E-08  0.93827000000E+00  0.93827000000E+00 0.  1.
     999902    2    1    2    0    0 -0.21211584143E-01  0.11105667743E-01 -0.36749371395E-02  0.10197066162E+01  0.10194188594E+01 0.  0.
     999903    2    3    3    0    0  0.52704820702E-01  0.63360399992E-01  0.98925438960E-01  0.12913318910E+00  0.98386808922E-02 0.  0.
         14    1    1    2    0    0  0.21211584143E-01 -0.11105667743E-01  0.36749371395E-02  0.24223383761E-01  0.00000000000E+00 0. -1.
     999901    1    3    3    0    0 -0.73916404845E-01 -0.52254732249E-01 -0.10260037610E+00  0.89057342714E+00  0.88000000000E+00 0.  1.
        -11    1    4    4    0    0  0.46977469827E-01  0.60439956995E-01  0.91186579195E-01  0.11905933151E+00  0.51100000000E-03 0.  1.
         11    1    4    4    0    0  0.57273508750E-02  0.29204429967E-02  0.77388597654E-02  0.10073857593E-01  0.51100000000E-03 0. -1.
</event>
<event>
 8    1  0.1088088E+005  0.1043930E+01  0.7957747E-01            NaN
         13   -1    0    0    0    0  0.00000000000E+00  0.00000000000E+00  0.74505805969E-08  0.10566000000E+00  0.10566000000E+00 0. -1.
     999900   -1    0    0    0    0 -0.00000000000E+00 -0.00000000000E+00 -0.74505805969E-08  0.93827000000E+00  0.93827000000E+00 0.  1.
     999902    2    1    2    0    0 -0.20195123666E-01  0.14065990548E-01 -0.17422706622E-02  0.10192575332E+01  0.10189588747E+01 0.  0.
     999903    2    3    3    0    0 -0.12292924716E-01  0.12662645194E+00  0.28520247875E-01  0.13153678758E+00  0.17411134911E-01 0.  0.
         14    1    1    2    0    0  0.20195123666E-01 -0.14065990548E-01  0.17422706622E-02  0.24672466781E-01  0.00000000000E+00 0. -1.
     999901    1    3    3    0    0 -0.79021989508E-02 -0.11256046139E+00 -0.30262518537E-01  0.88772074564E+00  0.88000000000E+00 0.  1.
        -11    1    4    4    0    0  0.34231679099E-02  0.41304461285E-01  0.58065893325E-02  0.41853962790E-01  0.51100000000E-03 0. -1.
         11    1    4    4    0    0 -0.15716092626E-01  0.85321990652E-01  0.22713658543E-01  0.89682824786E-01  0.51100000000E-03 0.  1.
</event>
<event>
 8    1  0.1088088E+005  0.1043930E+01  0.7957747E-01            NaN
         13   -1    0    0    0    0  0.00000000000E+00  0.00000000000E+00  0.74505805969E-08  0.10566000000E+00  0.10566000000E+00 0. -1.
     999900   -1    0    0    0    0 -0.00000000000E+00 -0.00000000000E+00 -0.74505805969E-08  0.93827000000E+00  0.93827000000E+00 0. -1.
     999902    2    1    2    0    0 -0.12948617003E-01  0.68491874469E-02 -0.16889508793E-01  0.10215730423E+01  0.10213283738E+01 0.  0.
     999903    2    3    3    0    0  0.12106572337E+00 -0.42330355378E-01  0.12843715843E-02  0.12988432934E+00  0.20482212685E-01 0.  0.
         14    1    1    2    0    0  0.12948617003E-01 -0.68491874469E-02  0.16889508793E-01  0.22356957714E-01  0.00000000000E+00 0.  1.
     999901    1    3    3    0    0 -0.13401434038E+00  0.49179542825E-01 -0.18173880377E-01  0.89168871294E+00  0.88000000000E+00 0.  1.
        -11    1    4    4    0    0  0.10017290268E+00 -0.38493895747E-01 -0.58373965603E-02  0.10747430744E+00  0.51100000000E-03 0. -1.
         11    1    4    4    0    0  0.20892820699E-01 -0.38364596308E-02  0.71217681445E-02  0.22410021904E-01  0.51100000000E-03 0.  1.
</event>
<event>
 8    1  0.1088088E+005  0.1043930E+01  0.7957747E-01            NaN
         13   -1    0    0    0    0  0.00000000000E+00  0.00000000000E+00  0.74505805969E-08  0.10566000000E+00  0.10566000000E+00 0. -1.
     999900   -1    0    0    0    0 -0.00000000000E+00 -0.00000000000E+00 -0.74505805969E-08  0.93827000000E+00  0.93827000000E+00 0. -1.
     999902    2    1    2    0    0  0.16398122764E-01  0.16137397989E-01 -0.14014020955E-02  0.10208805321E+01  0.10206202931E+01 0.  0.
     999903    2    3    3    0    0 -0.20902449232E-01  0.11536747000E+00  0.58462381823E-01  0.13249907544E+00  0.19788617581E-01 0.  0.
         14    1    1    2    0    0 -0.16398122764E-01 -0.16137397989E-01  0.14014020955E-02  0.23049467930E-01  0.00000000000E+00 0. -1.
     999901    1    3    3    0    0  0.37300571996E-01 -0.99230072010E-01 -0.59863783918E-01  0.88838145663E+00  0.88000000000E+00 0. -1.
        -11    1    4    4    0    0 -0.15071946759E-01  0.10484257242E+00  0.47026834773E-01  0.11589181541E+00  0.51100000000E-03 0.  1.
         11    1    4    4    0    0 -0.58305024732E-02  0.10524897583E-01  0.11435547050E-01  0.16607260025E-01  0.51100000000E-03 0. -1.
</event>
<event>
 7    1  0.1088088E+005  0.1043930E+01  0.7957747E-01            NaN
         13   -1    0    0    0    0  0.00000000000E+00  0.00000000000E+00  0.74505805969E-08  0.10566000000E+00  0.10566000000E+00 0.  1.
     999900   -1    0    0    0    0 -0.00000000000E+00 -0.00000000000E+00 -0.74505805969E-08  0.93827000000E+00  0.93827000000E+00 0.  1.
     999903    2    1    2    0    0  0.57761853800E-02  0.10487057832E+00 -0.97761434514E-01  0.14514893486E+00  0.21902344551E-01 0.  0.
         14    1    1    2    0    0 -0.26910116586E-02  0.58561345240E-02  0.15910976612E-02  0.66383316487E-02  0.00000000000E+00 0.  1.
     999901    1    1    2    0    0 -0.30851737214E-02 -0.11072671285E+00  0.96170336853E-01  0.89214273349E+00  0.88000000000E+00 0. -1.
        -11    1    3    3    0    0  0.69750550314E-02  0.59410663843E-01 -0.69080242683E-01  0.91381723671E-01  0.51100000000E-03 0.  1.
         11    1    3    3    0    0 -0.11988696513E-02  0.45459914480E-01 -0.28681191830E-01  0.53767211186E-01  0.51100000000E-03 0. -1.
</event>
<event>
 8    1  0.1088088E+005  0.1043930E+01  0.7957747E-01            NaN
         13   -1    0    0    0    0  0.00000000000E+00  0.00000000000E+00  0.74505805969E-08  0.10566000000E+00  0.10566000000E+00 0.  1.
     999900   -1    0    0    0    0 -0.00000000000E+00 -0.00000000000E+00 -0.74505805969E-08  0.93827000000E+00  0.93827000000E+00 0.  1.
     999902    2    1    2    0    0 -0.45909321014E-02 -0.21727424471E-01  0.83614249712E-02  0.10202008816E+01  0.10199248834E+01 0.  0.
     999903    2    3    3    0    0 -0.27236643527E-01  0.94020947536E-01 -0.79792086309E-01  0.12796685659E+00  0.20663156128E-01 0.  0.
         14    1    1    2    0    0  0.45909321014E-02  0.21727424471E-01 -0.83614249712E-02  0.23729118383E-01  0.00000000000E+00 0. -1.
     999901    1    3    3    0    0  0.22645711425E-01 -0.11574837201E+00  0.88153511281E-01  0.89223402503E+00  0.88000000000E+00 0. -1.
        -11    1    4    4    0    0 -0.97392435665E-02  0.54875057555E-01 -0.34268763286E-01  0.65427318951E-01  0.51100000000E-03 0. -1.
         11    1    4    4    0    0 -0.17497399960E-01  0.39145889981E-01 -0.45523323023E-01  0.62539537637E-01  0.51100000000E-03 0.  1.
</event>
<event>
 8    1  0.1088088E+005  0.1043930E+01  0.7957747E-01            NaN
         13   -1    0    0    0    0  0.00000000000E+00  0.00000000000E+00  0.74505805969E-08  0.10566000000E+00  0.10566000000E+00 0. -1.
     999900   -1    0    0    0    0 -0.00000000000E+00 -0.00000000000E+00 -0.74505805969E-08  0.93827000000E+00  0.93827000000E+00 0.  1.
     999902    2    1    2    0    0  0.16887255733E-01 -0.23991078727E-02  0.18134708802E-02  0.10267770469E+01  0.10266337615E+01 0.  0.
     999903    2    3    3    0    0 -0.10876104476E+00  0.11425957276E-01 -0.75688193974E-01  0.13437291425E+00  0.19179677291E-01 0.  0.
         14    1    1    2    0    0 -0.16887255733E-01  0.23991078727E-02 -0.18134708802E-02  0.17152953140E-01  0.00000000000E+00 0. -1.
     999901    1    3    3    0    0  0.12564830049E+00 -0.13825065149E-01  0.77501664854E-01  0.89240413261E+00  0.88000000000E+00 0. -1.
        -11    1    4    4    0    0 -0.53254896024E-01  0.12603296813E-01 -0.45522603387E-01  0.71186344064E-01  0.51100000000E-03 0.  1.
         11    1    4    4    0    0 -0.55506148733E-01 -0.11773395362E-02 -0.30165590587E-01  0.63186570187E-01  0.51100000000E-03 0. -1.
</event>
<event>
 8    1  0.1088088E+005  0.1043930E+01  0.7957747E-01            NaN
         13   -1    0    0    0    0  0.00000000000E+00  0.00000000000E+00  0.74505805969E-08  0.10566000000E+00  0.10566000000E+00 0.  1.
     999900   -1    0    0    0    0 -0.00000000000E+00 -0.00000000000E+00 -0.74505805969E-08  0.93827000000E+00  0.93827000000E+00 0.  1.
     999902    2    1    2    0    0 -0.22783435369E-01  0.65684841392E-02  0.17164016515E-02  0.10201565706E+01  0.10198795285E+01 0.  0.
     999903    2    3    3    0    0 -0.13559452282E-01 -0.12601306117E+00 -0.20447567543E-01  0.12990144449E+00  0.19827554870E-01 0.  0.
         14    1    1    2    0    0  0.22783435369E-01 -0.65684841392E-02 -0.17164016515E-02  0.23773429406E-01  0.00000000000E+00 0. -1.
     999901    1    3    3    0    0 -0.92239830871E-02  0.13258154531E+00  0.22163969195E-01  0.89025512610E+00  0.88000000000E+00 0.  1.
        -11    1    4    4    0    0  0.25477528060E-02 -0.32211521776E-01  0.10293296226E-02  0.32332550471E-01  0.51100000000E-03 0. -1.
         11    1    4    4    0    0 -0.16107205088E-01 -0.93801539390E-01 -0.21476897166E-01  0.97568894021E-01  0.51100000000E-03 0.  1.
</event>
<event>
 8    1  0.1088088E+005  0.1043930E+01  0.7957747E-01            NaN
         13   -1    0    0    0    0  0.00000000000E+00  0.00000000000E+00  0.74505805969E-08  0.10566000000E+00  0.10566000000E+00 0. -1.
     999900   -1    0    0    0    0 -0.00000000000E+00 -0.00000000000E+00 -0.74505805969E-08  0.93827000000E+00  0.93827000000E+00 0. -1.
     999902    2    1    2    0    0  0.11283371640E-01  0.17799458078E-01  0.85007574106E-02  0.10212056065E+01  0.10209527377E+01 0.  0.
     999903    2    3    3    0    0 -0.98931913747E-01 -0.54648318666E-01 -0.58510046589E-01  0.12885671882E+00  0.20165964960E-01 0.  0.
         14    1    1    2    0    0 -0.11283371640E-01 -0.17799458078E-01 -0.85007574106E-02  0.22724393501E-01  0.00000000000E+00 0.  1.
     999901    1    3    3    0    0  0.11021528539E+00  0.72447776744E-01  0.67010803999E-01  0.89234888768E+00  0.88000000000E+00 0.  1.
        -11    1    4    4    0    0 -0.62550804066E-01 -0.44760878088E-01 -0.35799259633E-01  0.84840953600E-01  0.51100000000E-03 0.  1.
         11    1    4    4    0    0 -0.36381109681E-01 -0.98874405777E-02 -0.22710786955E-01  0.44015765220E-01  0.51100000000E-03 0. -1.
</event>
<event>
 8    1  0.1088088E+005  0.1043930E+01  0.7957747E-01            NaN
         13   -1    0    0    0    0  0.00000000000E+00  0.00000000000E+00  0.74505805969E-08  0.10566000000E+00  0.10566000000E+00 0.  1.
     999900   -1    0    0    0    0 -0.00000000000E+00 -0.00000000000E+00 -0.74505805969E-08  0.93827000000E+00  0.93827000000E+00 0.  1.
     999902    2    1    2    0    0 -0.14297810072E-01 -0.17773256643E-01  0.69300228691E-02  0.10200900914E+01  0.10198114793E+01 0.  0.
     999903    2    3    3    0    0  0.97502196696E-01 -0.49241581126E-01  0.67972639320E-01  0.13036221280E+00  0.21038420970E-01 0.  0.
         14    1    1    2    0    0  0.14297810072E-01  0.17773256643E-01 -0.69300228691E-02  0.23839908589E-01  0.00000000000E+00 0.  1.
     999901    1    3    3    0    0 -0.11180000677E+00  0.31468324483E-01 -0.61042616450E-01  0.88972787861E+00  0.88000000000E+00 0.  1.
        -11    1    4    4    0    0  0.35142222319E-01 -0.26722165348E-01  0.19694984898E-01  0.48344632189E-01  0.51100000000E-03 0. -1.
         11    1    4    4    0    0  0.62359974377E-01 -0.22519415779E-01  0.48277654422E-01  0.82017580608E-01  0.51100000000E-03 0.  1.
</event>
<event>
 8    1  0.1088088E+005  0.1043930E+01  0.7957747E-01            NaN
         13   -1    0    0    0    0  0.00000000000E+00  0.00000000000E+00  0.74505805969E-08  0.10566000000E+00  0.10566000000E+00 0.  1.
     999900   -1    0    0    0    0 -0.00000000000E+00 -0.00000000000E+00 -0.74505805969E-08  0.93827000000E+00  0.93827000000E+00 0.  1.
     999902    2    1    2    0    0  0.21882089731E-01 -0.21630832507E-02  0.72627286242E-02  0.10207728843E+01  0.10205101809E+01 0.  0.
     999903    2    3    3    0    0 -0.11968222777E+00 -0.36971868357E-01 -0.19376654752E-01  0.12838184656E+00  0.20388454613E-01 0.  0.
         14    1    1    2    0    0 -0.21882089731E-01  0.21630832507E-02 -0.72627286242E-02  0.23157115693E-01  0.00000000000E+00 0. -1.
     999901    1    3    3    0    0  0.14156431750E+00  0.34808785107E-01  0.26639383376E-01  0.89239103775E+00  0.88000000000E+00 0.  1.
        -11    1    4    4    0    0 -0.82098746684E-01 -0.34410039397E-01 -0.17034706978E-01  0.90634967762E-01  0.51100000000E-03 0.  1.
         11    1    4    4    0    0 -0.37583481088E-01 -0.25618289598E-02 -0.23419477739E-02  0.37746878794E-01  0.51100000000E-03 0. -1.
</event>
<event>
 8    1  0.1088088E+005  0.1043930E+01  0.7957747E-01            NaN
         13   -1    0    0    0    0  0.00000000000E+00  0.00000000000E+00  0.74505805969E-08  0.10566000000E+00  0.10566000000E+00 0. -1.
     999900   -1    0    0    0    0 -0.00000000000E+00 -0.00000000000E+00 -0.74505805969E-08  0.93827000000E+00  0.93827000000E+00 0. -1.
     999902    2    1    2    0    0 -0.14705596126E-02 -0.91991247235E-02  0.21457587435E-01  0.10205373836E+01  0.10202692473E+01 0.  0.
     999903    2    3    3    0    0  0.76394587001E-01 -0.74181999167E-01  0.77090444311E-01  0.13296723442E+00  0.19956124443E-01 0.  0.
         14    1    1    2    0    0  0.14705596126E-02  0.91991247235E-02 -0.21457587435E-01  0.23392616352E-01  0.00000000000E+00 0.  1.
     999901    1    3    3    0    0 -0.77865146614E-01  0.64982874444E-01 -0.55632856876E-01  0.88757014922E+00  0.88000000000E+00 0. -1.
        -11    1    4    4    0    0  0.67057712920E-01 -0.55098555987E-01  0.57890626327E-01  0.10432724223E+00  0.51100000000E-03 0.  1.
         11    1    4    4    0    0  0.93368740816E-02 -0.19083443181E-01  0.19199817984E-01  0.28639992194E-01  0.51100000000E-03 0. -1.
</event>
<event>
 8    1  0.1088088E+005  0.1043930E+01  0.7957747E-01            NaN
         13   -1    0    0    0    0  0.00000000000E+00  0.00000000000E+00  0.74505805969E-08  0.10566000000E+00  0.10566000000E+00 0.  1.
     999900   -1    0    0    0    0 -0.00000000000E+00 -0.00000000000E+00 -0.74505805969E-08  0.93827000000E+00  0.93827000000E+00 0.  1.
     999902    2    1    2    0    0  0.21987493372E-01 -0.77927284590E-02  0.52836767710E-02  0.10200115192E+01  0.10197310457E+01 0.  0.
     999903    2    3    3    0    0 -0.56250470677E-01 -0.86513365041E-01  0.76736131942E-01  0.13016682999E+00  0.20156683787E-01 0.  0.
         14    1    1    2    0    0 -0.21987493372E-01  0.77927284590E-02 -0.52836767710E-02  0.23918480760E-01  0.00000000000E+00 0. -1.
     999901    1    3    3    0    0  0.78237964049E-01  0.78720636582E-01 -0.71452455171E-01  0.88984468925E+00  0.88000000000E+00 0.  1.
        -11    1    4    4    0    0 -0.18976843504E-01 -0.46416050002E-01  0.32246315151E-01  0.59620938009E-01  0.51100000000E-03 0.  1.
         11    1    4    4    0    0 -0.37273627172E-01 -0.40097315039E-01  0.44489816791E-01  0.70545891978E-01  0.51100000000E-03 0. -1.
</event>
<event>
 8    1  0.1088088E+005  0.1043930E+01  0.7957747E-01            NaN
         13   -1    0    0    0    0  0.00000000000E+00  0.00000000000E+00  0.74505805969E-08  0.10566000000E+00  0.10566000000E+00 0. -1.
     999900   -1    0    0    0    0 -0.00000000000E+00 -0.00000000000E+00 -0.74505805969E-08  0.93827000000E+00  0.93827000000E+00 0.  1.
     999902    2    1    2    0    0  0.21344789379E-01 -0.10191323494E-01  0.21800503148E-02  0.10201767744E+01  0.10199002085E+01 0.  0.
     999903    2    3    3    0    0 -0.11511195598E+00 -0.36714760640E-01  0.35848063923E-01  0.12862897913E+00  0.25721479868E-01 0.  0.
         14    1    1    2    0    0 -0.21344789379E-01  0.10191323494E-01 -0.21800503148E-02  0.23753225625E-01  0.00000000000E+00 0. -1.
     999901    1    3    3    0    0  0.13645674536E+00  0.26523437146E-01 -0.33668013608E-01  0.89154779525E+00  0.88000000000E+00 0.  1.
        -11    1    4    4    0    0 -0.83620375197E-01 -0.22559594534E-01  0.13916528835E-01  0.87722479157E-01  0.51100000000E-03 0.  1.
         11    1    4    4    0    0 -0.31491580780E-01 -0.14155166106E-01  0.21931535088E-01  0.40906499971E-01  0.51100000000E-03 0. -1.
</event>
<event>
 8    1  0.1088088E+005  0.1043930E+01  0.7957747E-01            NaN
         13   -1    0    0    0    0  0.00000000000E+00  0.00000000000E+00  0.74505805969E-08  0.10566000000E+00  0.10566000000E+00 0. -1.
     999900   -1    0    0    0    0 -0.00000000000E+00 -0.00000000000E+00 -0.74505805969E-08  0.93827000000E+00  0.93827000000E+00 0.  1.
     999902    2    1    2    0    0 -0.10223606958E-01  0.19999612365E-01 -0.17759811078E-02  0.10213986720E+01  0.10211501292E+01 0.  0.
     999903    2    3    3    0    0  0.95094126024E-01 -0.43868933710E-01 -0.73826957559E-01  0.12990421923E+00  0.21384816156E-01 0.  0.
         14    1    1    2    0    0  0.10223606958E-01 -0.19999612365E-01  0.17759811078E-02  0.22531328032E-01  0.00000000000E+00 0. -1.
     999901    1    3    3    0    0 -0.10531773298E+00  0.63868546075E-01  0.72050976451E-01  0.89149445274E+00  0.88000000000E+00 0. -1.
        -11    1    4    4    0    0  0.23518344286E-01 -0.63311913193E-02 -0.79222094576E-02  0.25616772341E-01  0.51100000000E-03 0. -1.
         11    1    4    4    0    0  0.71575781738E-01 -0.37537742391E-01 -0.65904748101E-01  0.10428744689E+00  0.51100000000E-03 0.  1.
</event>
<event>
 8    1  0.1088088E+005  0.1043930E+01  0.7957747E-01            NaN
         13   -1    0    0    0    0  0.00000000000E+00  0.00000000000E+00  0.74505805969E-08  0.10566000000E+00  0.10566000000E+00 0. -1.
     999900   -1    0    0    0    0 -0.00000000000E+00 -0.00000000000E+00 -0.74505805969E-08  0.93827000000E+00  0.93827000000E+00 0.  1.
     999902    2    1    2    0    0 -0.10849859329E-01 -0.17618293125E-01  0.15765721285E-01  0.10179168943E+01  0.10175844545E+01 0.  0.
     999903    2    3    3    0    0 -0.30002433365E-01  0.98377076386E-01  0.72962088320E-01  0.12825787466E+00  0.23418388377E-01 0.  0.
         14    1    1    2    0    0  0.10849859329E-01  0.17618293125E-01 -0.15765721285E-01  0.26013105692E-01  0.00000000000E+00 0. -1.
     999901    1    3    3    0    0  0.19152574036E-01 -0.11599536951E+00 -0.57196367035E-01  0.88965901965E+00  0.88000000000E+00 0.  1.
        -11    1    4    4    0    0 -0.30500152381E-01  0.90787785355E-01  0.73332926063E-01  0.12062611836E+00  0.51100000000E-03 0.  1.
         11    1    4    4    0    0  0.49771901529E-03  0.75892910311E-02 -0.37083774322E-03  0.76317562989E-02  0.51100000000E-03 0. -1.
</event>
<event>
 8    1  0.1088088E+005  0.1043930E+01  0.7957747E-01            NaN
         13   -1    0    0    0    0  0.00000000000E+00  0.00000000000E+00  0.74505805969E-08  0.10566000000E+00  0.10566000000E+00 0. -1.
     999900   -1    0    0    0    0 -0.00000000000E+00 -0.00000000000E+00 -0.74505805969E-08  0.93827000000E+00  0.93827000000E+00 0. -1.
     999902    2    1    2    0    0  0.70255225389E-02 -0.12174964135E-01  0.15699863136E-01  0.10228569504E+01  0.10226398523E+01 0.  0.
     999903    2    3    3    0    0  0.16381452999E-01  0.12498260220E+00  0.33123017896E-01  0.13201280139E+00  0.21005774423E-01 0.  0.
         14    1    1    2    0    0 -0.70255225389E-02  0.12174964135E-01 -0.15699863136E-01  0.21073049640E-01  0.00000000000E+00 0.  1.
     999901    1    3    3    0    0 -0.93559304601E-02 -0.13715756634E+00 -0.17423154760E-01  0.89084414897E+00  0.88000000000E+00 0.  1.
        -11    1    4    4    0    0  0.57402039596E-02  0.71696318387E-01  0.87550504820E-02  0.72458429749E-01  0.51100000000E-03 0. -1.
         11    1    4    4    0    0  0.10641249039E-01  0.53286283817E-01  0.24367967414E-01  0.59554371637E-01  0.51100000000E-03 0.  1.
</event>
<event>
 8    1  0.1088088E+005  0.1043930E+01  0.7957747E-01            NaN
         13   -1    0    0    0    0  0.00000000000E+00  0.00000000000E+00  0.74505805969E-08  0.10566000000E+00  0.10566000000E+00 0. -1.
     999900   -1    0    0    0    0 -0.00000000000E+00 -0.00000000000E+00 -0.74505805969E-08  0.93827000000E+00  0.93827000000E+00 0.  1.
     999902    2    1    2    0    0  0.19982776126E-01  0.14505725982E-02 -0.13630279486E-01  0.10196977896E+01  0.10194098205E+01 0.  0.
     999903    2    3    3    0    0 -0.50631248573E-01  0.11688760364E+00  0.16971693018E-01  0.12882825406E+00  0.90799483484E-02 0.  0.
         14    1    1    2    0    0 -0.19982776126E-01 -0.14505725982E-02  0.13630279486E-01  0.24232210412E-01  0.00000000000E+00 0. -1.
     999901    1    3    3    0    0  0.70614024699E-01 -0.11543703104E+00 -0.30601972503E-01  0.89086953553E+00  0.88000000000E+00 0.  1.
        -11    1    4    4    0    0 -0.50856850970E-02  0.12647812323E-01  0.46211630423E-02  0.14403041981E-01  0.51100000000E-03 0.  1.
         11    1    4    4    0    0 -0.45545563476E-01  0.10423979132E+00  0.12350529975E-01  0.11442521207E+00  0.51100000000E-03 0. -1.
</event>
<event>
 8    1  0.1088088E+005  0.1043930E+01  0.7957747E-01            NaN
         13   -1    0    0    0    0  0.00000000000E+00  0.00000000000E+00  0.74505805969E-08  0.10566000000E+00  0.10566000000E+00 0.  1.
     999900   -1    0    0    0    0 -0.00000000000E+00 -0.00000000000E+00 -0.74505805969E-08  0.93827000000E+00  0.93827000000E+00 0. -1.
     999902    2    1    2    0    0 -0.17741972227E-01 -0.11981173476E-01  0.10088025003E-01  0.10202636876E+01  0.10199891655E+01 0.  0.
     999903    2    3    3    0    0  0.55195856174E-01 -0.86456145285E-01  0.79581625845E-01  0.13139035080E+00  0.20222302398E-01 0.  0.
         14    1    1    2    0    0  0.17741972227E-01  0.11981173476E-01 -0.10088025003E-01  0.23666312447E-01  0.00000000000E+00 0. -1.
     999901    1    3    3    0    0 -0.72937828401E-01  0.74474971809E-01 -0.69493600841E-01  0.88887333676E+00  0.88000000000E+00 0. -1.
        -11    1    4    4    0    0  0.15639345052E-02 -0.14947049742E-01  0.13759615502E-01  0.20382549568E-01  0.51100000000E-03 0.  1.
         11    1    4    4    0    0  0.53631921669E-01 -0.71509095543E-01  0.65822010343E-01  0.11100780123E+00  0.51100000000E-03 0. -1.
</event>
<event>
 8    1  0.1088088E+005  0.1043930E+01  0.7957747E-01            NaN
         13   -1    0    0    0    0  0.00000000000E+00  0.00000000000E+00  0.74505805969E-08  0.10566000000E+00  0.10566000000E+00 0. -1.
     999900   -1    0    0    0    0 -0.00000000000E+00 -0.00000000000E+00 -0.74505805969E-08  0.93827000000E+00  0.93827000000E+00 0.  1.
     999902    2    1    2    0    0 -0.14998297217E-01 -0.14956005902E-01  0.99384366393E-02  0.10205333431E+01  0.10202651130E+01 0.  0.
     999903    2    3    3    0    0  0.73863495660E-01 -0.80619610089E-01  0.70676205377E-01  0.13154672693E+00  0.18816956133E-01 0.  0.
         14    1    1    2    0    0  0.14998297217E-01  0.14956005902E-01 -0.99384366393E-02  0.23396656915E-01  0.00000000000E+00 0. -1.
     999901    1    3    3    0    0 -0.88861792876E-01  0.65663604187E-01 -0.60737768738E-01  0.88898661615E+00  0.88000000000E+00 0.  1.
        -11    1    4    4    0    0  0.60831022226E-01 -0.62276322031E-01  0.47221909150E-01  0.99040008964E-01  0.51100000000E-03 0. -1.
         11    1    4    4    0    0  0.13032473434E-01 -0.18343288059E-01  0.23454296227E-01  0.32506717969E-01  0.51100000000E-03 0.  1.
</event>
<event>
 8    1  0.1088088E+005  0.1043930E+01  0.7957747E-01            NaN
         13   -1    0    0    0    0  0.00000000000E+00  0.00000000000E+00  0.74505805969E-08  0.10566000000E+00  0.10566000000E+00 0. -1.
     999900   -1    0    0    0    0 -0.00000000000E+00 -0.00000000000E+00 -0.74505805969E-08  0.93827000000E+00  0.93827000000E+00 0.  1.
     999902    2    1    2    0    0 -0.13150731806E-01 -0.18096826964E-01 -0.39162306374E-02  0.10212193471E+01  0.10209667875E+01 0.  0.
     999903    2    3    3    0    0  0.11447130216E+00  0.52589566847E-01  0.10548505673E-01  0.12909089310E+00  0.26150452170E-01 0.  0.
         14    1    1    2    0    0  0.13150731806E-01  0.18096826964E-01  0.39162306374E-02  0.22710652910E-01  0.00000000000E+00 0. -1.
     999901    1    3    3    0    0 -0.12762203397E+00 -0.70686393811E-01 -0.14464736311E-01  0.89212845399E+00  0.88000000000E+00 0. -1.
        -11    1    4    4    0    0  0.99475020403E-01  0.39880660644E-01  0.16746756957E-01  0.10847332284E+00  0.51100000000E-03 0.  1.
         11    1    4    4    0    0  0.14996281761E-01  0.12708906203E-01 -0.61982512835E-02  0.20617570262E-01  0.51100000000E-03 0. -1.
</event>
<event>
 8    1  0.1088088E+005  0.1043930E+01  0.7957747E-01            NaN
         13   -1    0    0    0    0  0.00000000000E+00  0.00000000000E+00  0.74505805969E-08  0.10566000000E+00  0.10566000000E+00 0.  1.
     999900   -1    0    0    0    0 -0.00000000000E+00 -0.00000000000E+00 -0.74505805969E-08  0.93827000000E+00  0.93827000000E+00 0.  1.
     999902    2    1    2    0    0  0.16311973009E-01  0.12694978307E-01  0.10530493362E-01  0.10207322797E+01  0.10204686436E+01 0.  0.
     999903    2    3    3    0    0  0.57823816258E-01  0.58081916817E-01 -0.10090071528E+00  0.13157530727E+00  0.20347096877E-01 0.  0.
         14    1    1    2    0    0 -0.16311973009E-01 -0.12694978307E-01 -0.10530493362E-01  0.23197720322E-01  0.00000000000E+00 0. -1.
     999901    1    3    3    0    0 -0.41511843249E-01 -0.45386938509E-01  0.11143120865E+00  0.88915697241E+00  0.88000000000E+00 0.  1.
        -11    1    4    4    0    0  0.33675525079E-01  0.23233790165E-01 -0.38852592508E-01  0.56423710090E-01  0.51100000000E-03 0.  1.
         11    1    4    4    0    0  0.24148291179E-01  0.34848126652E-01 -0.62048122776E-01  0.75151597183E-01  0.51100000000E-03 0. -1.
</event>
<event>
 8    1  0.1088088E+005  0.1043930E+01  0.7957747E-01            NaN
         13   -1    0    0    0    0  0.00000000000E+00  0.00000000000E+00  0.74505805969E-08  0.10566000000E+00  0.10566000000E+00 0. -1.
     999900   -1    0    0    0    0 -0.00000000000E+00 -0.00000000000E+00 -0.74505805969E-08  0.93827000000E+00  0.93827000000E+00 0.  1.
     999902    2    1    2    0    0 -0.96999331191E-02 -0.25384347617E-02  0.21630622965E-01  0.10200885193E+01  0.10198098700E+01 0.  0.
     999903    2    3    3    0    0  0.91402100332E-01  0.66868812653E-01  0.61955480381E-01  0.13067012431E+00  0.20258770648E-01 0.  0.
         14    1    1    2    0    0  0.96999331191E-02  0.25384347617E-02 -0.21630622965E-01  0.23841480730E-01  0.00000000000E+00 0.  1.
     999901    1    3    3    0    0 -0.10110203345E+00 -0.69407247414E-01 -0.40324857417E-01  0.88941839496E+00  0.88000000000E+00 0.  1.
        -11    1    4    4    0    0  0.29752837597E-01  0.17010467080E-01  0.28638884281E-01  0.44665805145E-01  0.51100000000E-03 0.  1.
         11    1    4    4    0    0  0.61649262735E-01  0.49858345572E-01  0.33316596100E-01  0.86004319169E-01  0.51100000000E-03 0. -1.
</event>
<event>
 8    1  0.1088088E+005  0.1043930E+01  0.7957747E-01            NaN
         13   -1    0    0    0    0  0.00000000000E+00  0.00000000000E+00  0.74505805969E-08  0.10566000000E+00  0.10566000000E+00 0.  1.
     999900   -1    0    0    0    0 -0.00000000000E+00 -0.00000000000E+00 -0.74505805969E-08  0.93827000000E+00  0.93827000000E+00 0. -1.
     999902    2    1    2    0    0  0.21557309082E-01  0.19826948667E-02 -0.72981032397E-02  0.10210846293E+01  0.10208290303E+01 0.  0.
     999903    2    3    3    0    0 -0.32798926110E-01  0.12251192185E+00 -0.25878042668E-01  0.13101322256E+00  0.20244773256E-01 0.  0.
         14    1    1    2    0    0 -0.21557309082E-01 -0.19826948667E-02  0.72981032397E-02  0.22845370749E-01  0.00000000000E+00 0.  1.
     999901    1    3    3    0    0  0.54356235191E-01 -0.12052922698E+00  0.18579939429E-01  0.89007140669E+00  0.88000000000E+00 0.  1.
        -11    1    4    4    0    0 -0.18951073581E-01  0.85338984447E-01 -0.89347917605E-02  0.87874780689E-01  0.51100000000E-03 0.  1.
         11    1    4    4    0    0 -0.13847852529E-01  0.37172937401E-01 -0.16943250908E-01  0.43138441870E-01  0.51100000000E-03 0. -1.
</event>
<event>
 8    1  0.1088088E+005  0.1043930E+01  0.7957747E-01            NaN
         13   -1    0    0    0    0  0.00000000000E+00  0.00000000000E+00  0.74505805969E-08  0.10566000000E+00  0.10566000000E+00 0.  1.
     999900   -1    0    0    0    0 -0.00000000000E+00 -0.00000000000E+00 -0.74505805969E-08  0.93827000000E+00  0.93827000000E+00 0.  1.
     999902    2    1    2    0    0  0.17763312930E-01  0.97102638345E-02 -0.84526941344E-02  0.10219920751E+01  0.10217565899E+01 0.  0.
     999903    2    3    3    0    0  0.66503429140E-02 -0.12133784465E+00  0.45699246337E-01  0.13057211938E+00  0.13912499353E-01 0.  0.
         14    1    1    2    0    0 -0.17763312930E-01 -0.97102638345E-02  0.84526941344E-02  0.21937924882E-01  0.00000000000E+00 0. -1.
     999901    1    3    3    0    0  0.11112970016E-01  0.13104810848E+00 -0.54151940471E-01  0.89141995574E+00  0.88000000000E+00 0. -1.
        -11    1    4    4    0    0 -0.32961962457E-02 -0.14966501118E-01  0.78736643190E-02  0.17237075628E-01  0.51100000000E-03 0. -1.
         11    1    4    4    0    0  0.99465391596E-02 -0.10637134353E+00  0.37825582018E-01  0.11333504375E+00  0.51100000000E-03 0.  1.
</event>
<event>
 8    1  0.1088088E+005  0.1043930E+01  0.7957747E-01            NaN
         13   -1    0    0    0    0  0.00000000000E+00  0.00000000000E+00  0.74505805969E-08  0.10566000000E+00  0.10566000000E+00 0.  1.
     999900   -1    0    0    0    0 -0.00000000000E+00 -0.00000000000E+00 -0.74505805969E-08  0.93827000000E+00  0.93827000000E+00 0.  1.
     999902    2    1    2    0    0 -0.14825298522E-01  0.15942488386E-01  0.81498613710E-02  0.10206840831E+01  0.10204193377E+01 0.  0.
     999903    2    3    3    0    0 -0.82305487463E-01 -0.98471171385E-01 -0.10964324423E-01  0.13051027224E+00  0.21022604249E-01 0.  0.
         14    1    1    2    0    0  0.14825298522E-01 -0.15942488386E-01 -0.81498613710E-02  0.23245916901E-01  0.00000000000E+00 0. -1.
     999901    1    3    3    0    0  0.67480188941E-01  0.11441365977E+00  0.19114185794E-01  0.89017381086E+00  0.88000000000E+00 0. -1.
        -11    1    4    4    0    0 -0.64899375583E-01 -0.68883694082E-01 -0.58484829291E-03  0.94644045930E-01  0.51100000000E-03 0. -1.
         11    1    4    4    0    0 -0.17406111880E-01 -0.29587477303E-01 -0.10379476130E-01  0.35866226309E-01  0.51100000000E-03 0.  1.
</event>
<event>
 8    1  0.1088088E+005  0.1043930E+01  0.7957747E-01            NaN
         13   -1    0    0    0    0  0.00000000000E+00  0.00000000000E+00  0.74505805969E-08  0.10566000000E+00  0.10566000000E+00 0. -1.
     999900   -1    0    0    0    0 -0.00000000000E+00 -0.00000000000E+00 -0.74505805969E-08  0.93827000000E+00  0.93827000000E+00 0. -1.
     999902    2    1    2    0    0  0.15573094246E-02 -0.23092935939E-01 -0.50736626758E-02  0.10202350437E+01  0.10199598489E+01 0.  0.
     999903    2    3    3    0    0 -0.12106063388E+00 -0.45973689083E-01  0.10056871756E-01  0.13131006260E+00  0.19285608825E-01 0.  0.
         14    1    1    2    0    0 -0.15573094246E-02  0.23092935939E-01  0.50736626758E-02  0.23694956338E-01  0.00000000000E+00 0. -1.
     999901    1    3    3    0    0  0.12261794330E+00  0.22880753144E-01 -0.15130534431E-01  0.88892498106E+00  0.88000000000E+00 0.  1.
        -11    1    4    4    0    0 -0.78871967286E-01 -0.26466910715E-01  0.15097736401E-01  0.84554641219E-01  0.51100000000E-03 0. -1.
         11    1    4    4    0    0 -0.42188666592E-01 -0.19506778368E-01 -0.50408646451E-02  0.46755421381E-01  0.51100000000E-03 0.  1.
</event>
<event>
 8    1  0.1088088E+005  0.1043930E+01  0.7957747E-01            NaN
         13   -1    0    0    0    0  0.00000000000E+00  0.00000000000E+00  0.74505805969E-08  0.10566000000E+00  0.10566000000E+00 0. -1.
     999900   -1    0    0    0    0 -0.00000000000E+00 -0.00000000000E+00 -0.74505805969E-08  0.93827000000E+00  0.93827000000E+00 0.  1.
     999902    2    1    2    0    0 -0.19812497127E-01  0.93854925419E-02 -0.65847849428E-02  0.10210393490E+01  0.10207827243E+01 0.  0.
     999903    2    3    3    0    0 -0.11219569741E+00 -0.30574175757E-01  0.60771196434E-01  0.13274420711E+00  0.20130361783E-01 0.  0.
         14    1    1    2    0    0  0.19812497127E-01 -0.93854925419E-02  0.65847849428E-02  0.22890651048E-01  0.00000000000E+00 0. -1.
     999901    1    3    3    0    0  0.92383200283E-01  0.39959668299E-01 -0.67355981377E-01  0.88829514184E+00  0.88000000000E+00 0.  1.
        -11    1    4    4    0    0 -0.67042930615E-01 -0.85784899175E-02  0.31056251240E-01  0.74384789418E-01  0.51100000000E-03 0. -1.
         11    1    4    4    0    0 -0.45152766796E-01 -0.21995685840E-01  0.29714945194E-01  0.58359417696E-01  0.51100000000E-03 0.  1.
</event>
<event>
 8    1  0.1088088E+005  0.1043930E+01  0.7957747E-01            NaN
         13   -1    0    0    0    0  0.00000000000E+00  0.00000000000E+00  0.74505805969E-08  0.10566000000E+00  0.10566000000E+00 0.  1.
     999900   -1    0    0    0    0 -0.00000000000E+00 -0.00000000000E+00 -0.74505805969E-08  0.93827000000E+00  0.93827000000E+00 0. -1.
     999902    2    1    2    0    0  0.49168609816E-02  0.21210456707E-01 -0.90181597654E-02  0.10203633668E+01  0.10200911793E+01 0.  0.
     999903    2    3    3    0    0 -0.11497274348E+00  0.31764815376E-02 -0.58362971587E-01  0.13068159673E+00  0.21038571518E-01 0.  0.
         14    1    1    2    0    0 -0.49168609816E-02 -0.21210456707E-01  0.90181597654E-02  0.23566633217E-01  0.00000000000E+00 0.  1.
     999901    1    3    3    0    0  0.11988960446E+00  0.18033975169E-01  0.49344811822E-01  0.88968177006E+00  0.88000000000E+00 0. -1.
        -11    1    4    4    0    0 -0.74678287949E-01 -0.79947755042E-02 -0.37269868047E-01  0.83845496668E-01  0.51100000000E-03 0. -1.
         11    1    4    4    0    0 -0.40294455534E-01  0.11171257042E-01 -0.21093103540E-01  0.46836100058E-01  0.51100000000E-03 0.  1.
</event>
<event>
 8    1  0.1088088E+005  0.1043930E+01  0.7957747E-01            NaN
         13   -1    0    0    0    0  0.00000000000E+00  0.00000000000E+00  0.74505805969E-08  0.10566000000E+00  0.10566000000E+00 0. -1.
     999900   -1    0    0    0    0 -0.00000000000E+00 -0.00000000000E+00 -0.74505805969E-08  0.93827000000E+00  0.93827000000E+00 0.  1.
     999902    2    1    2    0    0  0.11869377174E-01  0.55525836625E-02  0.19767523098E-01  0.10202135865E+01  0.10199378872E+01 0.  0.
     999903    2    3    3    0    0 -0.97082578418E-01  0.36135374257E-01  0.77726899331E-01  0.13107629395E+00  0.20217112837E-01 0.  0.
         14    1    1    2    0    0 -0.11869377174E-01 -0.55525836625E-02 -0.19767523098E-01  0.23716413499E-01  0.00000000000E+00 0.  1.
     999901    1    3    3    0    0  0.10895195559E+00 -0.30582790594E-01 -0.57959376233E-01  0.88913729255E+00  0.88000000000E+00 0. -1.
        -11    1    4    4    0    0 -0.66504118886E-01  0.30782626886E-01  0.45162363478E-01  0.86082914348E-01  0.51100000000E-03 0. -1.
         11    1    4    4    0    0 -0.30578459532E-01  0.53527473707E-02  0.32564535853E-01  0.44993379603E-01  0.51100000000E-03 0.  1.
</event>
<event>
 8    1  0.1088088E+005  0.1043930E+01  0.7957747E-01            NaN
         13   -1    0    0    0    0  0.00000000000E+00  0.00000000000E+00  0.74505805969E-08  0.10566000000E+00  0.10566000000E+00 0. -1.
     999900   -1    0    0    0    0 -0.00000000000E+00 -0.00000000000E+00 -0.74505805969E-08  0.93827000000E+00  0.93827000000E+00 0.  1.
     999902    2    1    2    0    0 -0.22993293785E-01  0.29043130127E-02 -0.51120529100E-02  0.10201969075E+01  0.10199208158E+01 0.  0.
     999903    2    3    3    0    0 -0.67494801958E-02  0.17538077391E-01  0.12708007921E+00  0.13005491418E+00  0.20292721071E-01 0.  0.
         14    1    1    2    0    0  0.22993293785E-01 -0.29043130127E-02  0.51120529100E-02  0.23733092469E-01  0.00000000000E+00 0.  1.
     999901    1    3    3    0    0 -0.16243813589E-01 -0.14633764378E-01 -0.13219213212E+00  0.89014199335E+00  0.88000000000E+00 0.  1.
        -11    1    4    4    0    0  0.68382851875E-02  0.52067551834E-02  0.55228814654E-01  0.55895934852E-01  0.51100000000E-03 0. -1.
         11    1    4    4    0    0 -0.13587765383E-01  0.12331322207E-01  0.71851264554E-01  0.74158979325E-01  0.51100000000E-03 0.  1.
</event>
<event>
 8    1  0.1088088E+005  0.1043930E+01  0.7957747E-01            NaN
         13   -1    0    0    0    0  0.00000000000E+00  0.00000000000E+00  0.74505805969E-08  0.10566000000E+00  0.10566000000E+00 0. -1.
     999900   -1    0    0    0    0 -0.00000000000E+00 -0.00000000000E+00 -0.74505805969E-08  0.93827000000E+00  0.93827000000E+00 0.  1.
     999902    2    1    2    0    0  0.81435863363E-02 -0.21087543605E-01 -0.58428065610E-02  0.10205817478E+01  0.10203146392E+01 0.  0.
     999903    2    3    3    0    0  0.12266153416E+00 -0.13024399040E-01  0.41904176619E-01  0.13184154440E+00  0.20266866546E-01 0.  0.
         14    1    1    2    0    0 -0.81435863363E-02  0.21087543605E-01  0.58428065610E-02  0.23348252231E-01  0.00000000000E+00 0. -1.
     999901    1    3    3    0    0 -0.11451794783E+00 -0.80631445654E-02 -0.47746983180E-01  0.88874020336E+00  0.88000000000E+00 0. -1.
        -11    1    4    4    0    0  0.40495426962E-01  0.51406724244E-02  0.15038746752E-01  0.43505530024E-01  0.51100000000E-03 0. -1.
         11    1    4    4    0    0  0.82166107200E-01 -0.18165071464E-01  0.26865429867E-01  0.88336014380E-01  0.51100000000E-03 0.  1.
</event>
<event>
 8    1  0.1088088E+005  0.1043930E+01  0.7957747E-01            NaN
         13   -1    0    0    0    0  0.00000000000E+00  0.00000000000E+00  0.74505805969E-08  0.10566000000E+00  0.10566000000E+00 0.  1.
     999900   -1    0    0    0    0 -0.00000000000E+00 -0.00000000000E+00 -0.74505805969E-08  0.93827000000E+00  0.93827000000E+00 0.  1.
     999902    2    1    2    0    0 -0.11180473311E-01  0.61270653100E-02 -0.19410500372E-01  0.10207069202E+01  0.10204427007E+01 0.  0.
     999903    2    3    3    0    0 -0.34038290566E-01  0.10565820805E-01 -0.12747682674E+00  0.13379062577E+00  0.19476868164E-01 0.  0.
         14    1    1    2    0    0  0.11180473311E-01 -0.61270653100E-02  0.19410500372E-01  0.23223079844E-01  0.00000000000E+00 0.  1.
     999901    1    3    3    0    0  0.22857817255E-01 -0.44387554947E-02  0.10806632637E+00  0.88691629439E+00  0.88000000000E+00 0. -1.
        -11    1    4    4    0    0 -0.24040237327E-01  0.14544585997E-01 -0.72249882322E-01  0.77522800575E-01  0.51100000000E-03 0. -1.
         11    1    4    4    0    0 -0.99980532393E-02 -0.39787651918E-02 -0.55226944417E-01  0.56267825191E-01  0.51100000000E-03 0.  1.
</event>
<event>
 8    1  0.1088088E+005  0.1043930E+01  0.7957747E-01            NaN
         13   -1    0    0    0    0  0.00000000000E+00  0.00000000000E+00  0.74505805969E-08  0.10566000000E+00  0.10566000000E+00 0.  1.
     999900   -1    0    0    0    0 -0.00000000000E+00 -0.00000000000E+00 -0.74505805969E-08  0.93827000000E+00  0.93827000000E+00 0.  1.
     999902    2    1    2    0    0  0.12402510100E-02 -0.19646445446E-01 -0.14376024103E-01  0.10195539644E+01  0.10192625252E+01 0.  0.
     999903    2    3    3    0    0  0.65848915577E-01  0.54979577956E-01  0.92738333003E-01  0.12758041751E+00  0.17819395287E-01 0.  0.
         14    1    1    2    0    0 -0.12402510100E-02  0.19646445446E-01  0.14376024103E-01  0.24376035573E-01  0.00000000000E+00 0.  1.
     999901    1    3    3    0    0 -0.64608664567E-01 -0.74626023402E-01 -0.10711435711E+00  0.89197354692E+00  0.88000000000E+00 0.  1.
        -11    1    4    4    0    0  0.14414966003E-01  0.80135812142E-02  0.27931710087E-01  0.32441490073E-01  0.51100000000E-03 0. -1.
         11    1    4    4    0    0  0.51433949574E-01  0.46965996742E-01  0.64806622916E-01  0.95138927435E-01  0.51100000000E-03 0.  1.
</event>
<event>
 8    1  0.1088088E+005  0.1043930E+01  0.7957747E-01            NaN
         13   -1    0    0    0    0  0.00000000000E+00  0.00000000000E+00  0.74505805969E-08  0.10566000000E+00  0.10566000000E+00 0. -1.
     999900   -1    0    0    0    0 -0.00000000000E+00 -0.00000000000E+00 -0.74505805969E-08  0.93827000000E+00  0.93827000000E+00 0. -1.
     999902    2    1    2    0    0 -0.39415109062E-02  0.20270685808E-01  0.10493545031E-01  0.10207664360E+01  0.10205035846E+01 0.  0.
     999903    2    3    3    0    0 -0.50269561708E-01  0.86454448361E-01  0.86482436253E-01  0.13380483009E+00  0.20569888157E-01 0.  0.
         14    1    1    2    0    0  0.39415109062E-02 -0.20270685808E-01 -0.10493545031E-01  0.23163564032E-01  0.00000000000E+00 0.  1.
     999901    1    3    3    0    0  0.46328050802E-01 -0.66183762553E-01 -0.75988891222E-01  0.88696160588E+00  0.88000000000E+00 0. -1.
        -11    1    4    4    0    0 -0.27709552115E-01  0.48191546241E-01  0.61251855395E-01  0.82718168004E-01  0.51100000000E-03 0.  1.
         11    1    4    4    0    0 -0.22560009593E-01  0.38262902120E-01  0.25230580858E-01  0.51086662084E-01  0.51100000000E-03 0. -1.
</event>
<event>
 8    1  0.1088088E+005  0.1043930E+01  0.7957747E-01            NaN
         13   -1    0    0    0    0  0.00000000000E+00  0.00000000000E+00  0.74505805969E-08  0.10566000000E+00  0.10566000000E+00 0.  1.
     999900   -1    0    0    0    0 -0.00000000000E+00 -0.00000000000E+00 -0.74505805969E-08  0.93827000000E+00  0.93827000000E+00 0. -1.
     999902    2    1    2    0    0  0.19511074449E-01 -0.10114417014E-01 -0.97527363127E-02  0.10198863039E+01  0.10196028509E+01 0.  0.
     999903    2    3    3    0    0  0.47685706636E-02  0.68436913221E-01  0.10698614758E+00  0.12858634320E+00  0.19546394188E-01 0.  0.
         14    1    1    2    0    0 -0.19511074449E-01  0.10114417014E-01  0.97527363127E-02  0.24043696123E-01  0.00000000000E+00 0.  1.
     999901    1    3    3    0    0  0.14742503785E-01 -0.78551330234E-01 -0.11673888389E+00  0.89129996068E+00  0.88000000000E+00 0. -1.
        -11    1    4    4    0    0  0.23857592166E-02  0.56041580787E-01  0.71241179178E-01  0.90674788976E-01  0.51100000000E-03 0.  1.
         11    1    4    4    0    0  0.23828114470E-02  0.12395332434E-01  0.35744968398E-01  0.37911554219E-01  0.51100000000E-03 0. -1.
</event>
<event>
 8    1  0.1088088E+005  0.1043930E+01  0.7957747E-01            NaN
         13   -1    0    0    0    0  0.00000000000E+00  0.00000000000E+00  0.74505805969E-08  0.10566000000E+00  0.10566000000E+00 0.  1.
     999900   -1    0    0    0    0 -0.00000000000E+00 -0.00000000000E+00 -0.74505805969E-08  0.93827000000E+00  0.93827000000E+00 0. -1.
     999902    2    1    2    0    0 -0.18746357065E-03  0.16120679622E-01 -0.18229061683E-01  0.10195946318E+01  0.10193041760E+01 0.  0.
     999903    2    3    3    0    0  0.68816282157E-01 -0.85268891472E-01  0.62188154636E-01  0.12745770807E+00  0.19277868855E-01 0.  0.
         14    1    1    2    0    0  0.18746357065E-03 -0.16120679622E-01  0.18229061683E-01  0.24335368168E-01  0.00000000000E+00 0.  1.
     999901    1    3    3    0    0 -0.69003745728E-01  0.10138957109E+00 -0.80417216319E-01  0.89213692376E+00  0.88000000000E+00 0.  1.
        -11    1    4    4    0    0  0.39634107218E-01 -0.61787596214E-01  0.36070139481E-01  0.81791720754E-01  0.51100000000E-03 0. -1.
         11    1    4    4    0    0  0.29182174939E-01 -0.23481295259E-01  0.26118015156E-01  0.45665987320E-01  0.51100000000E-03 0.  1.
</event>
<event>
 8    1  0.1088088E+005  0.1043930E+01  0.7957747E-01            NaN
         13   -1    0    0    0    0  0.00000000000E+00  0.00000000000E+00  0.74505805969E-08  0.10566000000E+00  0.10566000000E+00 0. -1.
     999900   -1    0    0    0    0 -0.00000000000E+00 -0.00000000000E+00 -0.74505805969E-08  0.93827000000E+00  0.93827000000E+00 0. -1.
     999902    2    1    2    0    0  0.15690267514E-01  0.12423952301E-01 -0.12806902277E-01  0.10201696163E+01  0.10198928818E+01 0.  0.
     999903    2    3    3    0    0  0.65114957365E-01  0.73636010698E-02 -0.11403350854E+00  0.13297446705E+00  0.19605803312E-01 0.  0.
         14    1    1    2    0    0 -0.15690267514E-01 -0.12423952301E-01  0.12806902277E-01  0.23760383653E-01  0.00000000000E+00 0. -1.
     999901    1    3    3    0    0 -0.49424689851E-01  0.50603512307E-02  0.10122660626E+00  0.88719514930E+00  0.88000000000E+00 0.  1.
        -11    1    4    4    0    0  0.12994938779E-01  0.84055046532E-02 -0.35282938263E-01  0.38531387152E-01  0.51100000000E-03 0. -1.
         11    1    4    4    0    0  0.52120018586E-01 -0.10419035835E-02 -0.78750570277E-01  0.94443079897E-01  0.51100000000E-03 0.  1.
</event>
<event>
 8    1  0.1088088E+005  0.1043930E+01  0.7957747E-01            NaN
         13   -1    0    0    0    0  0.00000000000E+00  0.00000000000E+00  0.74505805969E-08  0.10566000000E+00  0.10566000000E+00 0.  1.
     999900   -1    0    0    0    0 -0.00000000000E+00 -0.00000000000E+00 -0.74505805969E-08  0.93827000000E+00  0.93827000000E+00 0.  1.
     999902    2    1    2    0    0 -0.12585786344E-01 -0.18064766984E-01 -0.62655035989E-02  0.10210390769E+01  0.10207824461E+01 0.  0.
     999903    2    3    3    0    0  0.49884200412E-01 -0.21531258413E-01 -0.11851768950E+00  0.13170501761E+00  0.18647798770E-01 0.  0.
         14    1    1    2    0    0  0.12585786344E-01  0.18064766984E-01  0.62655035989E-02  0.22890923080E-01  0.00000000000E+00 0.  1.
     999901    1    3    3    0    0 -0.62469986756E-01  0.34664914289E-02  0.11225218590E+00  0.88933405931E+00  0.88000000000E+00 0. -1.
        -11    1    4    4    0    0  0.27582464971E-01 -0.17020138384E-01 -0.50760365922E-01  0.60227513265E-01  0.51100000000E-03 0. -1.
         11    1    4    4    0    0  0.22301735440E-01 -0.45111200288E-02 -0.67757323581E-01  0.71477504346E-01  0.51100000000E-03 0.  1.
</event>
<event>
 8    1  0.1088088E+005  0.1043930E+01  0.7957747E-01            NaN
         13   -1    0    0    0    0  0.00000000000E+00  0.00000000000E+00  0.74505805969E-08  0.10566000000E+00  0.10566000000E+00 0. -1.
     999900   -1    0    0    0    0 -0.00000000000E+00 -0.00000000000E+00 -0.74505805969E-08  0.93827000000E+00  0.93827000000E+00 0.  1.
     999902    2    1    2    0    0 -0.22314917479E-01 -0.58484534019E-02 -0.63650183108E-02  0.10199994044E+01  0.10197186433E+01 0.  0.
     999903    2    3    3    0    0  0.10116120908E+00 -0.75818744388E-01  0.88710436804E-02  0.12849823609E+00  0.21237444294E-01 0.  0.
         14    1    1    2    0    0  0.22314917479E-01  0.58484534019E-02  0.63650183108E-02  0.23930595633E-01  0.00000000000E+00 0. -1.
     999901    1    3    3    0    0 -0.12347612656E+00  0.69970290986E-01 -0.15236061991E-01  0.89150116827E+00  0.88000000000E+00 0.  1.
        -11    1    4    4    0    0  0.48503648895E-01 -0.25992445177E-01 -0.26338061122E-02  0.55094547989E-01  0.51100000000E-03 0.  1.
         11    1    4    4    0    0  0.52657560182E-01 -0.49826299211E-01  0.11504849793E-01  0.73403688103E-01  0.51100000000E-03 0. -1.
</event>
<event>
 8    1  0.1088088E+005  0.1043930E+01  0.7957747E-01            NaN
         13   -1    0    0    0    0  0.00000000000E+00  0.00000000000E+00  0.74505805969E-08  0.10566000000E+00  0.10566000000E+00 0. -1.
     999900   -1    0    0    0    0 -0.00000000000E+00 -0.00000000000E+00 -0.74505805969E-08  0.93827000000E+00  0.93827000000E+00 0. -1.
     999902    2    1    2    0    0  0.17921862233E-01  0.11373284289E-01 -0.13603470446E-01  0.10187189082E+01  0.10184069004E+01 0.  0.
     999903    2    3    3    0    0  0.68255756736E-01  0.63451569810E-02 -0.11097156338E+00  0.13190476278E+00  0.19623180705E-01 0.  0.
         14    1    1    2    0    0 -0.17921862233E-01 -0.11373284289E-01  0.13603470446E-01  0.25211091797E-01  0.00000000000E+00 0. -1.
     999901    1    3    3    0    0 -0.50333894503E-01  0.50281273077E-02  0.97368092932E-01  0.88681414542E+00  0.88000000000E+00 0.  1.
        -11    1    4    4    0    0  0.10706643194E-01  0.60452300403E-02 -0.31201256494E-01  0.33540371830E-01  0.51100000000E-03 0.  1.
         11    1    4    4    0    0  0.57549113542E-01  0.29992694066E-03 -0.79770306885E-01  0.98364390951E-01  0.51100000000E-03 0. -1.
</event>
<event>
 8    1  0.1088088E+005  0.1043930E+01  0.7957747E-01            NaN
         13   -1    0    0    0    0  0.00000000000E+00  0.00000000000E+00  0.74505805969E-08  0.10566000000E+00  0.10566000000E+00 0. -1.
     999900   -1    0    0    0    0 -0.00000000000E+00 -0.00000000000E+00 -0.74505805969E-08  0.93827000000E+00  0.93827000000E+00 0.  1.
     999902    2    1    2    0    0  0.19068694191E-01  0.66940410946E-02 -0.11501032111E-01  0.10206770642E+01  0.10204121571E+01 0.  0.
     999903    2    3    3    0    0  0.36606460634E-01  0.97365088013E-01  0.78045796833E-01  0.13132480182E+00  0.18304749269E-01 0.  0.
         14    1    1    2    0    0 -0.19068694191E-01 -0.66940410946E-02  0.11501032111E-01  0.23252935814E-01  0.00000000000E+00 0. -1.
     999901    1    3    3    0    0 -0.17537766443E-01 -0.90671046918E-01 -0.89546828945E-01  0.88935226237E+00  0.88000000000E+00 0.  1.
        -11    1    4    4    0    0  0.19044658348E-01  0.26906354193E-01  0.25899069855E-01  0.41924621022E-01  0.51100000000E-03 0.  1.
         11    1    4    4    0    0  0.17561802287E-01  0.70458733820E-01  0.52146726979E-01  0.89400180798E-01  0.51100000000E-03 0. -1.
</event>
<event>
 8    1  0.1088088E+005  0.1043930E+01  0.7957747E-01            NaN
         13   -1    0    0    0    0  0.00000000000E+00  0.00000000000E+00  0.74505805969E-08  0.10566000000E+00  0.10566000000E+00 0. -1.
     999900   -1    0    0    0    0 -0.00000000000E+00 -0.00000000000E+00 -0.74505805969E-08  0.93827000000E+00  0.93827000000E+00 0.  1.
     999902    2    1    2    0    0  0.16869136177E-01  0.74552332774E-02 -0.14549728661E-01  0.10204386641E+01  0.10201682333E+01 0.  0.
     999903    2    3    3    0    0 -0.86242435658E-01 -0.15575839057E-01 -0.94556546087E-01  0.13051534303E+00  0.20321168459E-01 0.  0.
         14    1    1    2    0    0 -0.16869136177E-01 -0.74552332774E-02  0.14549728661E-01  0.23491335907E-01  0.00000000000E+00 0. -1.
     999901    1    3    3    0    0  0.10311157184E+00  0.23031072335E-01  0.80006817426E-01  0.88992332106E+00  0.88000000000E+00 0. -1.
        -11    1    4    4    0    0 -0.22277065293E-01 -0.48075580389E-02 -0.38692419152E-01  0.44908180471E-01  0.51100000000E-03 0. -1.
         11    1    4    4    0    0 -0.63965370366E-01 -0.10768281019E-01 -0.55864126934E-01  0.85607162558E-01  0.51100000000E-03 0.  1.
</event>
<event>
 8    1  0.1088088E+005  0.1043930E+01  0.7957747E-01            NaN
         13   -1    0    0    0    0  0.00000000000E+00  0.00000000000E+00  0.74505805969E-08  0.10566000000E+00  0.10566000000E+00 0. -1.
     999900   -1    0    0    0    0 -0.00000000000E+00 -0.00000000000E+00 -0.74505805969E-08  0.93827000000E+00  0.93827000000E+00 0.  1.
     999902    2    1    2    0    0  0.89005042966E-02  0.22424496741E-01 -0.22728333561E-02  0.10196969069E+01  0.10194089165E+01 0.  0.
     999903    2    3    3    0    0  0.52584246162E-01  0.57991980061E-01  0.10371454048E+00  0.13154903710E+00  0.20500501456E-01 0.  0.
         14    1    1    2    0    0 -0.89005042966E-02 -0.22424496741E-01  0.22728333561E-02  0.24233093123E-01  0.00000000000E+00 0.  1.
     999901    1    3    3    0    0 -0.43683741865E-01 -0.35567483320E-01 -0.10598737384E+00  0.88814786977E+00  0.88000000000E+00 0.  1.
        -11    1    4    4    0    0  0.17102402098E-01  0.33816757187E-01  0.51651107051E-01  0.64063743294E-01  0.51100000000E-03 0.  1.
         11    1    4    4    0    0  0.35481844064E-01  0.24175222875E-01  0.52063433428E-01  0.67485293809E-01  0.51100000000E-03 0. -1.
</event>
<event>
 8    1  0.1088088E+005  0.1043930E+01  0.7957747E-01            NaN
         13   -1    0    0    0    0  0.00000000000E+00  0.00000000000E+00  0.74505805969E-08  0.10566000000E+00  0.10566000000E+00 0. -1.
     999900   -1    0    0    0    0 -0.00000000000E+00 -0.00000000000E+00 -0.74505805969E-08  0.93827000000E+00  0.93827000000E+00 0. -1.
     999902    2    1    2    0    0  0.12876334776E-01 -0.10996222284E-01 -0.16583594855E-01  0.10202291030E+01  0.10199537686E+01 0.  0.
     999903    2    3    3    0    0 -0.95865072917E-01 -0.80440207233E-01  0.26540275648E-01  0.12977594362E+00  0.21832777311E-01 0.  0.
         14    1    1    2    0    0 -0.12876334776E-01  0.10996222284E-01  0.16583594855E-01  0.23700897031E-01  0.00000000000E+00 0. -1.
     999901    1    3    3    0    0  0.10874140769E+00  0.69443984949E-01 -0.43123870502E-01  0.89045315935E+00  0.88000000000E+00 0.  1.
        -11    1    4    4    0    0 -0.50914916540E-01 -0.29636230274E-01  0.80291391538E-02  0.59458919160E-01  0.51100000000E-03 0.  1.
         11    1    4    4    0    0 -0.44950156377E-01 -0.50803976959E-01  0.18511136494E-01  0.70317024457E-01  0.51100000000E-03 0. -1.
</event>
<event>
 8    1  0.1088088E+005  0.1043930E+01  0.7957747E-01            NaN
         13   -1    0    0    0    0  0.00000000000E+00  0.00000000000E+00  0.74505805969E-08  0.10566000000E+00  0.10566000000E+00 0. -1.
     999900   -1    0    0    0    0 -0.00000000000E+00 -0.00000000000E+00 -0.74505805969E-08  0.93827000000E+00  0.93827000000E+00 0.  1.
     999902    2    1    2    0    0 -0.14696087000E-01  0.16429921020E-01  0.48406293428E-02  0.10213612391E+01  0.10211118605E+01 0.  0.
     999903    2    3    3    0    0  0.39726019052E-01 -0.12091856720E+00 -0.54667652176E-02  0.12898653344E+00  0.20203559195E-01 0.  0.
         14    1    1    2    0    0  0.14696087000E-01 -0.16429921020E-01 -0.48406293428E-02  0.22568760937E-01  0.00000000000E+00 0.  1.
     999901    1    3    3    0    0 -0.54422106051E-01  0.13734848822E+00  0.10307394560E-01  0.89237470562E+00  0.88000000000E+00 0.  1.
        -11    1    4    4    0    0  0.29547949307E-01 -0.85497094479E-01 -0.12931031199E-01  0.91380015110E-01  0.51100000000E-03 0.  1.
         11    1    4    4    0    0  0.10178069745E-01 -0.35421472724E-01  0.74642659814E-02  0.37606518335E-01  0.51100000000E-03 0. -1.
</event>
<event>
 8    1  0.1088088E+005  0.1043930E+01  0.7957747E-01            NaN
         13   -1    0    0    0    0  0.00000000000E+00  0.00000000000E+00  0.74505805969E-08  0.10566000000E+00  0.10566000000E+00 0.  1.
     999900   -1    0    0    0    0 -0.00000000000E+00 -0.00000000000E+00 -0.74505805969E-08  0.93827000000E+00  0.93827000000E+00 0. -1.
     999902    2    1    2    0    0 -0.15223851334E-01 -0.18317676068E-01  0.39099318775E-03  0.10201086696E+01  0.10198304967E+01 0.  0.
     999903    2    3    3    0    0 -0.48738680607E-01  0.70367300140E-01 -0.95283646282E-01  0.12986044275E+00  0.21394986001E-01 0.  0.
         14    1    1    2    0    0  0.15223851334E-01  0.18317676068E-01 -0.39099318775E-03  0.23821330392E-01  0.00000000000E+00 0. -1.
     999901    1    3    3    0    0  0.33514829273E-01 -0.88684976208E-01  0.95674639470E-01  0.89024822686E+00  0.88000000000E+00 0.  1.
        -11    1    4    4    0    0 -0.20005061831E-01  0.24496433667E-01 -0.50586273127E-01  0.59661628465E-01  0.51100000000E-03 0. -1.
         11    1    4    4    0    0 -0.28733618776E-01  0.45870866473E-01 -0.44697373155E-01  0.70198814284E-01  0.51100000000E-03 0.  1.
</event>
<event>
 7    1  0.1088088E+005  0.1043930E+01  0.7957747E-01            NaN
         13   -1    0    0    0    0  0.00000000000E+00  0.00000000000E+00  0.74505805969E-08  0.10566000000E+00  0.10566000000E+00 0.  1.
     999900   -1    0    0    0    0 -0.00000000000E+00 -0.00000000000E+00 -0.74505805969E-08  0.93827000000E+00  0.93827000000E+00 0. -1.
     999903    2    1    2    0    0  0.54165964326E-01 -0.84287184679E-01 -0.39945929578E-01  0.10966559009E+00  0.19813711612E-01 0.  0.
         14    1    1    2    0    0 -0.10223331585E-01 -0.32252214813E-01  0.30336136644E-01  0.45442304690E-01  0.00000000000E+00 0.  1.
     999901    1    1    2    0    0 -0.43942632741E-01  0.11653939949E+00  0.96097929342E-02  0.88882210522E+00  0.88000000000E+00 0.  1.
        -11    1    3    3    0    0  0.11320042820E-01 -0.33093336051E-01 -0.92183719238E-02  0.36173909968E-01  0.51100000000E-03 0.  1.
         11    1    3    3    0    0  0.42845921506E-01 -0.51193848628E-01 -0.30727557654E-01  0.73491680124E-01  0.51100000000E-03 0. -1.
</event>
<event>
 8    1  0.1088088E+005  0.1043930E+01  0.7957747E-01            NaN
         13   -1    0    0    0    0  0.00000000000E+00  0.00000000000E+00  0.74505805969E-08  0.10566000000E+00  0.10566000000E+00 0. -1.
     999900   -1    0    0    0    0 -0.00000000000E+00 -0.00000000000E+00 -0.74505805969E-08  0.93827000000E+00  0.93827000000E+00 0.  1.
     999902    2    1    2    0    0 -0.70897532027E-02  0.92164563268E-02 -0.20617743810E-01  0.10202593636E+01  0.10199847401E+01 0.  0.
     999903    2    3    3    0    0 -0.53468330720E-01  0.92517686023E-01  0.71632117758E-01  0.13031548656E+00  0.20798584719E-01 0.  0.
         14    1    1    2    0    0  0.70897532027E-02 -0.92164563268E-02  0.20617743810E-01  0.23670636398E-01  0.00000000000E+00 0. -1.
     999901    1    3    3    0    0  0.46378577517E-01 -0.83301229696E-01 -0.92249861568E-01  0.88994387704E+00  0.88000000000E+00 0.  1.
        -11    1    4    4    0    0 -0.20713058002E-01  0.30096509326E-01  0.13534531905E-01  0.38965052551E-01  0.51100000000E-03 0.  1.
         11    1    4    4    0    0 -0.32755272718E-01  0.62421176697E-01  0.58097585852E-01  0.91350434011E-01  0.51100000000E-03 0. -1.
</event>
<event>
 8    1  0.1088088E+005  0.1043930E+01  0.7957747E-01            NaN
         13   -1    0    0    0    0  0.00000000000E+00  0.00000000000E+00  0.74505805969E-08  0.10566000000E+00  0.10566000000E+00 0. -1.
     999900   -1    0    0    0    0 -0.00000000000E+00 -0.00000000000E+00 -0.74505805969E-08  0.93827000000E+00  0.93827000000E+00 0.  1.
     999902    2    1    2    0    0 -0.19604039667E-01 -0.53404540674E-02 -0.13240515224E-01  0.10196781946E+01  0.10193897540E+01 0.  0.
     999903    2    3    3    0    0  0.51322021876E-01  0.10710397122E+00 -0.47272095365E-01  0.12904224013E+00  0.17664601780E-01 0.  0.
         14    1    1    2    0    0  0.19604039667E-01  0.53404540674E-02  0.13240515224E-01  0.24251805383E-01  0.00000000000E+00 0. -1.
     999901    1    3    3    0    0 -0.70926061543E-01 -0.11244442529E+00  0.34031580141E-01  0.89063595449E+00  0.88000000000E+00 0. -1.
        -11    1    4    4    0    0  0.27297020094E-01  0.58767502455E-01 -0.16342518675E-01  0.66828778894E-01  0.51100000000E-03 0. -1.
         11    1    4    4    0    0  0.24025001782E-01  0.48336468766E-01 -0.30929576689E-01  0.62213461233E-01  0.51100000000E-03 0.  1.
</event>
<event>
 8    1  0.1088088E+005  0.1043930E+01  0.7957747E-01            NaN
         13   -1    0    0    0    0  0.00000000000E+00  0.00000000000E+00  0.74505805969E-08  0.10566000000E+00  0.10566000000E+00 0.  1.
     999900   -1    0    0    0    0 -0.00000000000E+00 -0.00000000000E+00 -0.74505805969E-08  0.93827000000E+00  0.93827000000E+00 0.  1.
     999902    2    1    2    0    0 -0.85227584274E-02  0.18782638970E-01  0.13830921784E-01  0.10190961655E+01  0.10187935391E+01 0.  0.
     999903    2    3    3    0    0  0.11214485875E+00 -0.22988765061E-01  0.54319285332E-01  0.12895863029E+00  0.23974797279E-01 0.  0.
         14    1    1    2    0    0  0.85227584274E-02 -0.18782638970E-01 -0.13830921784E-01  0.24833834487E-01  0.00000000000E+00 0.  1.
     999901    1    3    3    0    0 -0.12066761718E+00  0.41771404031E-01 -0.40488363547E-01  0.89013753522E+00  0.88000000000E+00 0.  1.
        -11    1    4    4    0    0  0.63461479858E-01 -0.41295541426E-02  0.20794780681E-01  0.66911110197E-01  0.51100000000E-03 0.  1.
         11    1    4    4    0    0  0.48683378891E-01 -0.18859210919E-01  0.33524504651E-01  0.62047520094E-01  0.51100000000E-03 0. -1.
</event>
<event>
 8    1  0.1088088E+005  0.1043930E+01  0.7957747E-01            NaN
         13   -1    0    0    0    0  0.00000000000E+00  0.00000000000E+00  0.74505805969E-08  0.10566000000E+00  0.10566000000E+00 0. -1.
     999900   -1    0    0    0    0 -0.00000000000E+00 -0.00000000000E+00 -0.74505805969E-08  0.93827000000E+00  0.93827000000E+00 0. -1.
     999902    2    1    2    0    0  0.55304773373E-02  0.47020462911E-02  0.22894474501E-01  0.10199122486E+01  0.10196294143E+01 0.  0.
     999903    2    3    3    0    0 -0.78039153529E-01 -0.99243403198E-01  0.23409922079E-01  0.12986235936E+00  0.19412505397E-01 0.  0.
         14    1    1    2    0    0 -0.55304773373E-02 -0.47020462911E-02 -0.22894474501E-01  0.24017751384E-01  0.00000000000E+00 0.  1.
     999901    1    3    3    0    0  0.83569630866E-01  0.10394544949E+00 -0.51544757894E-03  0.89004988925E+00  0.88000000000E+00 0.  1.
        -11    1    4    4    0    0 -0.62631921654E-01 -0.67431768913E-01  0.21201309963E-01  0.94443410220E-01  0.51100000000E-03 0. -1.
         11    1    4    4    0    0 -0.15407231875E-01 -0.31811634285E-01  0.22086121161E-02  0.35418949143E-01  0.51100000000E-03 0.  1.
</event>
<event>
 8    1  0.1088088E+005  0.1043930E+01  0.7957747E-01            NaN
         13   -1    0    0    0    0  0.00000000000E+00  0.00000000000E+00  0.74505805969E-08  0.10566000000E+00  0.10566000000E+00 0. -1.
     999900   -1    0    0    0    0 -0.00000000000E+00 -0.00000000000E+00 -0.74505805969E-08  0.93827000000E+00  0.93827000000E+00 0. -1.
     999902    2    1    2    0    0 -0.84888123811E-02  0.17624912968E-01  0.12166374119E-01  0.10208926791E+01  0.10206327176E+01 0.  0.
     999903    2    3    3    0    0 -0.10725261231E-01  0.13145893784E+00  0.15085496469E-02  0.13349379694E+00  0.20538610823E-01 0.  0.
         14    1    1    2    0    0  0.84888123811E-02 -0.17624912968E-01 -0.12166374119E-01  0.23037320850E-01  0.00000000000E+00 0.  1.
     999901    1    3    3    0    0  0.22364488495E-02 -0.11383402487E+00  0.10657824472E-01  0.88739888221E+00  0.88000000000E+00 0. -1.
        -11    1    4    4    0    0 -0.10173655311E-01  0.64060520070E-01 -0.82519659951E-02  0.65388145392E-01  0.51100000000E-03 0. -1.
         11    1    4    4    0    0 -0.55160591933E-03  0.67398417766E-01  0.97605156420E-02  0.68105651550E-01  0.51100000000E-03 0.  1.
</event>
<event>
 8    1  0.1088088E+005  0.1043930E+01  0.7957747E-01            NaN
         13   -1    0    0    0    0  0.00000000000E+00  0.00000000000E+00  0.74505805969E-08  0.10566000000E+00  0.10566000000E+00 0. -1.
     999900   -1    0    0    0    0 -0.00000000000E+00 -0.00000000000E+00 -0.74505805969E-08  0.93827000000E+00  0.93827000000E+00 0.  1.
     999902    2    1    2    0    0  0.96141645332E-02 -0.10271677533E-02 -0.21905764506E-01  0.10199852772E+01  0.10197041806E+01 0.  0.
     999903    2    3    3    0    0  0.10183202313E-01 -0.11622229571E+00 -0.57863779309E-01  0.13174926115E+00  0.19958237083E-01 0.  0.
         14    1    1    2    0    0 -0.96141645332E-02  0.10271677533E-02  0.21905764506E-01  0.23944722839E-01  0.00000000000E+00 0. -1.
     999901    1    3    3    0    0 -0.56903778001E-03  0.11519512796E+00  0.35958014804E-01  0.88823601601E+00  0.88000000000E+00 0. -1.
        -11    1    4    4    0    0  0.15661099719E-01 -0.68885262615E-01 -0.32461497585E-01  0.77746121423E-01  0.51100000000E-03 0. -1.
         11    1    4    4    0    0 -0.54778974060E-02 -0.47337033099E-01 -0.25402281724E-01  0.54003139727E-01  0.51100000000E-03 0.  1.
</event>
<event>
 8    1  0.1088088E+005  0.1043930E+01  0.7957747E-01            NaN
         13   -1    0    0    0    0  0.00000000000E+00  0.00000000000E+00  0.74505805969E-08  0.10566000000E+00  0.10566000000E+00 0. -1.
     999900   -1    0    0    0    0 -0.00000000000E+00 -0.00000000000E+00 -0.74505805969E-08  0.93827000000E+00  0.93827000000E+00 0.  1.
     999902    2    1    2    0    0 -0.17425877145E-01  0.46779771730E-02  0.14327647703E-01  0.10208903352E+01  0.10206303201E+01 0.  0.
     999903    2    3    3    0    0 -0.57876322897E-03  0.90450594768E-01 -0.91418869515E-01  0.13025960754E+00  0.20700497387E-01 0.  0.
         14    1    1    2    0    0  0.17425877145E-01 -0.46779771730E-02 -0.14327647703E-01  0.23039664785E-01  0.00000000000E+00 0.  1.
     999901    1    3    3    0    0 -0.16847113916E-01 -0.85772617595E-01  0.10574651722E+00  0.89063072768E+00  0.88000000000E+00 0. -1.
        -11    1    4    4    0    0  0.86720212494E-02  0.28868007258E-01 -0.24505080381E-01  0.38850043515E-01  0.51100000000E-03 0.  1.
         11    1    4    4    0    0 -0.92507844784E-02  0.61582587510E-01 -0.66913789134E-01  0.91409564025E-01  0.51100000000E-03 0. -1.
</event>
<event>
 8    1  0.1088088E+005  0.1043930E+01  0.7957747E-01            NaN
         13   -1    0    0    0    0  0.00000000000E+00  0.00000000000E+00  0.74505805969E-08  0.10566000000E+00  0.10566000000E+00 0.  1.
     999900   -1    0    0    0    0 -0.00000000000E+00 -0.00000000000E+00 -0.74505805969E-08  0.93827000000E+00  0.93827000000E+00 0.  1.
     999902    2    1    2    0    0  0.21341740589E-01 -0.77724575460E-02 -0.81387603531E-02  0.10198028284E+01  0.10195173802E+01 0.  0.
     999903    2    3    3    0    0  0.64502975835E-01  0.12124804436E-01  0.11102455929E+00  0.13050046702E+00  0.19906640952E-01 0.  0.
         14    1    1    2    0    0 -0.21341740589E-01  0.77724575460E-02  0.81387603531E-02  0.24127171566E-01  0.00000000000E+00 0. -1.
     999901    1    3    3    0    0 -0.43161235246E-01 -0.19897261982E-01 -0.11916331964E+00  0.88930236141E+00  0.88000000000E+00 0.  1.
        -11    1    4    4    0    0  0.15768532702E-01 -0.51268223856E-02  0.22015224458E-01  0.27565597405E-01  0.51100000000E-03 0. -1.
         11    1    4    4    0    0  0.48734443133E-01  0.17251626821E-01  0.89009334831E-01  0.10293486962E+00  0.51100000000E-03 0.  1.
</event>
<event>
 8    1  0.1088088E+005  0.1043930E+01  0.7957747E-01            NaN
         13   -1    0    0    0    0  0.00000000000E+00  0.00000000000E+00  0.74505805969E-08  0.10566000000E+00  0.10566000000E+00 0. -1.
     999900   -1    0    0    0    0 -0.00000000000E+00 -0.00000000000E+00 -0.74505805969E-08  0.93827000000E+00  0.93827000000E+00 0. -1.
     999902    2    1    2    0    0  0.20221467217E-01 -0.70461905524E-04  0.12362504897E-01  0.10202288560E+01  0.10199535158E+01 0.  0.
     999903    2    3    3    0    0  0.58867832280E-03 -0.11656502761E+00 -0.54485569533E-01  0.12982159224E+00  0.17239962917E-01 0.  0.
         14    1    1    2    0    0 -0.20221467217E-01  0.70461905524E-04 -0.12362504897E-01  0.23701144036E-01  0.00000000000E+00 0.  1.
     999901    1    3    3    0    0  0.19632788894E-01  0.11649456570E+00  0.66848074430E-01  0.89040726372E+00  0.88000000000E+00 0.  1.
        -11    1    4    4    0    0 -0.62986005837E-02 -0.26275309999E-01 -0.89819504306E-02  0.28478076470E-01  0.51100000000E-03 0.  1.
         11    1    4    4    0    0  0.68872789065E-02 -0.90289717607E-01 -0.45503619103E-01  0.10134351577E+00  0.51100000000E-03 0. -1.
</event>
<event>
 8    1  0.1088088E+005  0.1043930E+01  0.7957747E-01            NaN
         13   -1    0    0    0    0  0.00000000000E+00  0.00000000000E+00  0.74505805969E-08  0.10566000000E+00  0.10566000000E+00 0. -1.
     999900   -1    0    0    0    0 -0.00000000000E+00 -0.00000000000E+00 -0.74505805969E-08  0.93827000000E+00  0.93827000000E+00 0.  1.
     999902    2    1    2    0    0 -0.19908647594E-01  0.84571504945E-02  0.10014749128E-02  0.10222763491E+01  0.10220469918E+01 0.  0.
     999903    2    3    3    0    0 -0.57915000522E-01 -0.11383202402E+00 -0.29518256759E-01  0.13248391318E+00  0.19203718201E-01 0.  0.
         14    1    1    2    0    0  0.19908647594E-01 -0.84571504945E-02 -0.10014749128E-02  0.21653650859E-01  0.00000000000E+00 0. -1.
     999901    1    3    3    0    0  0.38006352928E-01  0.12228917451E+00  0.30519731672E-01  0.88979243596E+00  0.88000000000E+00 0. -1.
        -11    1    4    4    0    0 -0.72562354858E-02 -0.12912233234E-01 -0.10023167250E-01  0.17891442738E-01  0.51100000000E-03 0. -1.
         11    1    4    4    0    0 -0.50658765036E-01 -0.10091979078E+00 -0.19495089510E-01  0.11459247045E+00  0.51100000000E-03 0.  1.
</event>
<event>
 8    1  0.1088088E+005  0.1043930E+01  0.7957747E-01            NaN
         13   -1    0    0    0    0  0.00000000000E+00  0.00000000000E+00  0.74505805969E-08  0.10566000000E+00  0.10566000000E+00 0.  1.
     999900   -1    0    0    0    0 -0.00000000000E+00 -0.00000000000E+00 -0.74505805969E-08  0.93827000000E+00  0.93827000000E+00 0. -1.
     999902    2    1    2    0    0  0.22580948693E-01 -0.60024988555E-02 -0.38861907664E-02  0.10202438919E+01  0.10199689051E+01 0.  0.
     999903    2    3    3    0    0 -0.12367589263E+00 -0.17527869818E-01  0.18487408748E-01  0.12781771809E+00  0.19814947328E-01 0.  0.
         14    1    1    2    0    0 -0.22580948693E-01  0.60024988555E-02  0.38861907664E-02  0.23686108061E-01  0.00000000000E+00 0. -1.
     999901    1    3    3    0    0  0.14625684133E+00  0.11525370963E-01 -0.22373599515E-01  0.89242617385E+00  0.88000000000E+00 0.  1.
        -11    1    4    4    0    0 -0.38411270265E-01 -0.59415051831E-02  0.15100043334E-01  0.41701314091E-01  0.51100000000E-03 0. -1.
         11    1    4    4    0    0 -0.85264622366E-01 -0.11586364635E-01  0.33873654146E-02  0.86116404002E-01  0.51100000000E-03 0.  1.
</event>
<event>
 8    1  0.1088088E+005  0.1043930E+01  0.7957747E-01            NaN
         13   -1    0    0    0    0  0.00000000000E+00  0.00000000000E+00  0.74505805969E-08  0.10566000000E+00  0.10566000000E+00 0.  1.
     999900   -1    0    0    0    0 -0.00000000000E+00 -0.00000000000E+00 -0.74505805969E-08  0.93827000000E+00  0.93827000000E+00 0.  1.
     999902    2    1    2    0    0 -0.10490556692E-01  0.13876339040E-01 -0.15543961981E-01  0.10206014913E+01  0.10203348395E+01 0.  0.
     999903    2    3    3    0    0 -0.66616241956E-01 -0.10759857545E+00 -0.24607557834E-01  0.13043948571E+00  0.19843144880E-01 0.  0.
         14    1    1    2    0    0  0.10490556692E-01 -0.13876339040E-01  0.15543961981E-01  0.23328508716E-01  0.00000000000E+00 0.  1.
     999901    1    3    3    0    0  0.56125685264E-01  0.12147491449E+00  0.90635958530E-02  0.89016200557E+00  0.88000000000E+00 0. -1.
        -11    1    4    4    0    0 -0.15106545554E-01 -0.41078809922E-01 -0.11827178355E-01  0.45341147009E-01  0.51100000000E-03 0. -1.
         11    1    4    4    0    0 -0.51509696401E-01 -0.66519765527E-01 -0.12780379479E-01  0.85098338702E-01  0.51100000000E-03 0.  1.
</event>
<event>
 8    1  0.1088088E+005  0.1043930E+01  0.7957747E-01            NaN
         13   -1    0    0    0    0  0.00000000000E+00  0.00000000000E+00  0.74505805969E-08  0.10566000000E+00  0.10566000000E+00 0. -1.
     999900   -1    0    0    0    0 -0.00000000000E+00 -0.00000000000E+00 -0.74505805969E-08  0.93827000000E+00  0.93827000000E+00 0.  1.
     999902    2    1    2    0    0  0.18137015382E-01 -0.29751595264E-02 -0.97986848347E-03  0.10255244833E+01  0.10253593043E+01 0.  0.
     999903    2    3    3    0    0 -0.46689453612E-01 -0.10188043423E+00 -0.72064902583E-01  0.13477322372E+00  0.20271746082E-01 0.  0.
         14    1    1    2    0    0 -0.18137015382E-01  0.29751595264E-02  0.97986848347E-03  0.18405516657E-01  0.00000000000E+00 0. -1.
     999901    1    3    3    0    0  0.64826468994E-01  0.98905274708E-01  0.71085034099E-01  0.89075125962E+00  0.88000000000E+00 0. -1.
        -11    1    4    4    0    0 -0.20442984678E-01 -0.43932105578E-01 -0.19444911486E-01  0.52214090309E-01  0.51100000000E-03 0.  1.
         11    1    4    4    0    0 -0.26246468934E-01 -0.57948328656E-01 -0.52619991097E-01  0.82559133411E-01  0.51100000000E-03 0. -1.
</event>
<event>
 8    1  0.1088088E+005  0.1043930E+01  0.7957747E-01            NaN
         13   -1    0    0    0    0  0.00000000000E+00  0.00000000000E+00  0.74505805969E-08  0.10566000000E+00  0.10566000000E+00 0. -1.
     999900   -1    0    0    0    0 -0.00000000000E+00 -0.00000000000E+00 -0.74505805969E-08  0.93827000000E+00  0.93827000000E+00 0. -1.
     999902    2    1    2    0    0  0.10160678383E-01  0.78047226796E-02  0.18316287372E-01  0.10215773835E+01  0.10213328111E+01 0.  0.
     999903    2    3    3    0    0  0.30643207101E-01 -0.60611476599E-01  0.11287274246E+00  0.13363524940E+00  0.22480361552E-01 0.  0.
         14    1    1    2    0    0 -0.10160678383E-01 -0.78047226796E-02 -0.18316287372E-01  0.22352616501E-01  0.00000000000E+00 0.  1.
     999901    1    3    3    0    0 -0.20482528718E-01  0.68416199279E-01 -0.94556455087E-01  0.88794213410E+00  0.88000000000E+00 0. -1.
        -11    1    4    4    0    0  0.62781535578E-02 -0.32980626403E-01  0.65673701444E-01  0.73759291703E-01  0.51100000000E-03 0.  1.
         11    1    4    4    0    0  0.24365053543E-01 -0.27630850196E-01  0.47199041015E-01  0.59875957700E-01  0.51100000000E-03 0. -1.
</event>
<event>
 8    1  0.1088088E+005  0.1043930E+01  0.7957747E-01            NaN
         13   -1    0    0    0    0  0.00000000000E+00  0.00000000000E+00  0.74505805969E-08  0.10566000000E+00  0.10566000000E+00 0.  1.
     999900   -1    0    0    0    0 -0.00000000000E+00 -0.00000000000E+00 -0.74505805969E-08  0.93827000000E+00  0.93827000000E+00 0. -1.
     999902    2    1    2    0    0 -0.57706308217E-02 -0.18012746291E-01 -0.13397436662E-01  0.10207513348E+01  0.10204881367E+01 0.  0.
     999903    2    3    3    0    0  0.17745513117E-01  0.18591026376E-01 -0.12805841284E+00  0.13224698221E+00  0.20731080722E-01 0.  0.
         14    1    1    2    0    0  0.57706308217E-02  0.18012746291E-01  0.13397436662E-01  0.23178665150E-01  0.00000000000E+00 0.  1.
     999901    1    3    3    0    0 -0.23516143939E-01 -0.36603772667E-01  0.11466097618E+00  0.88850435264E+00  0.88000000000E+00 0.  1.
        -11    1    4    4    0    0  0.17187903003E-01  0.34008023965E-02 -0.77093631235E-01  0.79061233007E-01  0.51100000000E-03 0.  1.
         11    1    4    4    0    0  0.55761011436E-03  0.15190223980E-01 -0.50964781604E-01  0.53185749205E-01  0.51100000000E-03 0. -1.
</event>
<event>
 8    1  0.1088088E+005  0.1043930E+01  0.7957747E-01            NaN
         13   -1    0    0    0    0  0.00000000000E+00  0.00000000000E+00  0.74505805969E-08  0.10566000000E+00  0.10566000000E+00 0. -1.
     999900   -1    0    0    0    0 -0.00000000000E+00 -0.00000000000E+00 -0.74505805969E-08  0.93827000000E+00  0.93827000000E+00 0. -1.
     999902    2    1    2    0    0 -0.66241956624E-02 -0.14452104808E-01  0.16485511011E-01  0.10210276994E+01  0.10207708105E+01 0.  0.
     999903    2    3    3    0    0 -0.82237941048E-01  0.89365959879E-01  0.45288750115E-01  0.13123825481E+00  0.20568298540E-01 0.  0.
         14    1    1    2    0    0  0.66241956624E-02  0.14452104808E-01 -0.16485511011E-01  0.22902300645E-01  0.00000000000E+00 0.  1.
     999901    1    3    3    0    0  0.75613745385E-01 -0.10381806469E+00 -0.28803239105E-01  0.88978944455E+00  0.88000000000E+00 0.  1.
        -11    1    4    4    0    0 -0.52380762859E-01  0.42282958165E-01  0.22095362725E-01  0.70852375005E-01  0.51100000000E-03 0. -1.
         11    1    4    4    0    0 -0.29857178188E-01  0.47083001714E-01  0.23193387390E-01  0.60385879802E-01  0.51100000000E-03 0.  1.
</event>
<event>
 8    1  0.1088088E+005  0.1043930E+01  0.7957747E-01            NaN
         13   -1    0    0    0    0  0.00000000000E+00  0.00000000000E+00  0.74505805969E-08  0.10566000000E+00  0.10566000000E+00 0. -1.
     999900   -1    0    0    0    0 -0.00000000000E+00 -0.00000000000E+00 -0.74505805969E-08  0.93827000000E+00  0.93827000000E+00 0.  1.
     999902    2    1    2    0    0  0.11513318214E-01 -0.19115296187E-01 -0.92915907460E-02  0.10197580182E+01  0.10194714959E+01 0.  0.
     999903    2    3    3    0    0  0.20815768732E-01  0.63376206845E-01 -0.10992303487E+00  0.13014120677E+00  0.20095280112E-01 0.  0.
         14    1    1    2    0    0 -0.11513318214E-01  0.19115296187E-01  0.92915907460E-02  0.24171981781E-01  0.00000000000E+00 0.  1.
     999901    1    3    3    0    0 -0.93024505182E-02 -0.82491503032E-01  0.10063144413E+00  0.88961681144E+00  0.88000000000E+00 0. -1.
        -11    1    4    4    0    0  0.10386965740E-01  0.36549414050E-01 -0.80285398178E-01  0.88824292884E-01  0.51100000000E-03 0.  1.
         11    1    4    4    0    0  0.10428802992E-01  0.26826792795E-01 -0.29637636696E-01  0.41316913891E-01  0.51100000000E-03 0. -1.
</event>
<event>
 8    1  0.1088088E+005  0.1043930E+01  0.7957747E-01            NaN
         13   -1    0    0    0    0  0.00000000000E+00  0.00000000000E+00  0.74505805969E-08  0.10566000000E+00  0.10566000000E+00 0. -1.
     999900   -1    0    0    0    0 -0.00000000000E+00 -0.00000000000E+00 -0.74505805969E-08  0.93827000000E+00  0.93827000000E+00 0. -1.
     999902    2    1    2    0    0 -0.41210158681E-02 -0.52179679120E-03  0.22729944269E-01  0.10208236067E+01  0.10205620660E+01 0.  0.
     999903    2    3    3    0    0  0.44255146491E-02  0.12928026909E+00 -0.34011968861E-02  0.13087728473E+00  0.19604141500E-01 0.  0.
         14    1    1    2    0    0  0.41210158681E-02  0.52179679120E-03 -0.22729944269E-01  0.23106393275E-01  0.00000000000E+00 0.  1.
     999901    1    3    3    0    0 -0.85465305171E-02 -0.12980206588E+00  0.26131141156E-01  0.88994632199E+00  0.88000000000E+00 0. -1.
        -11    1    4    4    0    0  0.71619742838E-02  0.75053300716E-01 -0.10474682489E-01  0.76120115070E-01  0.51100000000E-03 0. -1.
         11    1    4    4    0    0 -0.27364596348E-02  0.54226968370E-01  0.70734856031E-02  0.54757169663E-01  0.51100000000E-03 0.  1.
</event>
<event>
 8    1  0.1088088E+005  0.1043930E+01  0.7957747E-01            NaN
         13   -1    0    0    0    0  0.00000000000E+00  0.00000000000E+00  0.74505805969E-08  0.10566000000E+00  0.10566000000E+00 0. -1.
     999900   -1    0    0    0    0 -0.00000000000E+00 -0.00000000000E+00 -0.74505805969E-08  0.93827000000E+00  0.93827000000E+00 0.  1.
     999902    2    1    2    0    0  0.12456812720E-01 -0.89751209469E-02  0.17492107863E-01  0.10206555759E+01  0.10203901733E+01 0.  0.
     999903    2    3    3    0    0 -0.73002560541E-01 -0.67047588507E-01  0.85136392989E-01  0.13203222191E+00  0.18961783710E-01 0.  0.
         14    1    1    2    0    0 -0.12456812720E-01  0.89751209469E-02 -0.17492107863E-01  0.23274424088E-01  0.00000000000E+00 0.  1.
     999901    1    3    3    0    0  0.85459373260E-01  0.58072467560E-01 -0.67644285126E-01  0.88862335400E+00  0.88000000000E+00 0.  1.
        -11    1    4    4    0    0 -0.53796082846E-01 -0.39259223004E-01  0.49926715644E-01  0.83236068963E-01  0.51100000000E-03 0. -1.
         11    1    4    4    0    0 -0.19206477695E-01 -0.27788365502E-01  0.35209677345E-01  0.48796152947E-01  0.51100000000E-03 0.  1.
</event>
<event>
 8    1  0.1088088E+005  0.1043930E+01  0.7957747E-01            NaN
         13   -1    0    0    0    0  0.00000000000E+00  0.00000000000E+00  0.74505805969E-08  0.10566000000E+00  0.10566000000E+00 0. -1.
     999900   -1    0    0    0    0 -0.00000000000E+00 -0.00000000000E+00 -0.74505805969E-08  0.93827000000E+00  0.93827000000E+00 0.  1.
     999902    2    1    2    0    0 -0.20406883952E-01 -0.20126610835E-02  0.11728406238E-01  0.10203069767E+01  0.10200334698E+01 0.  0.
     999903    2    3    3    0    0 -0.50540998912E-02  0.39004642572E-01 -0.12139997443E+00  0.12921703010E+00  0.20302241477E-01 0.  0.
         14    1    1    2    0    0  0.20406883952E-01  0.20126610835E-02 -0.11728406238E-01  0.23623023307E-01  0.00000000000E+00 0.  1.
     999901    1    3    3    0    0 -0.15352784061E-01 -0.41017303656E-01  0.13312838067E+00  0.89108994659E+00  0.88000000000E+00 0. -1.
        -11    1    4    4    0    0  0.32861006763E-02  0.27607946201E-01 -0.58828417960E-01  0.65069509233E-01  0.51100000000E-03 0. -1.
         11    1    4    4    0    0 -0.83402005676E-02  0.11396696371E-01 -0.62571556469E-01  0.64147520869E-01  0.51100000000E-03 0.  1.
</event>
<event>
 8    1  0.1088088E+005  0.1043930E+01  0.7957747E-01            NaN
         13   -1    0    0    0    0  0.00000000000E+00  0.00000000000E+00  0.74505805969E-08  0.10566000000E+00  0.10566000000E+00 0.  1.
     999900   -1    0    0    0    0 -0.00000000000E+00 -0.00000000000E+00 -0.74505805969E-08  0.93827000000E+00  0.93827000000E+00 0. -1.
     999902    2    1    2    0    0 -0.15702483078E-01  0.11546201741E-01 -0.19027238404E-01  0.10166918181E+01  0.10163268837E+01 0.  0.
     999903    2    3    3    0    0 -0.52553259419E-01  0.64016485489E-01 -0.99172735922E-01  0.13072657551E+00  0.19855742321E-01 0.  0.
         14    1    1    2    0    0  0.15702483078E-01 -0.11546201741E-01  0.19027238404E-01  0.27238181855E-01  0.00000000000E+00 0.  1.
     999901    1    3    3    0    0  0.36850776341E-01 -0.52470283748E-01  0.80145497518E-01  0.88596524264E+00  0.88000000000E+00 0. -1.
        -11    1    4    4    0    0 -0.52698590490E-01  0.58438161225E-01 -0.86899069816E-01  0.11723425089E+00  0.51100000000E-03 0.  1.
         11    1    4    4    0    0  0.14533107024E-03  0.55783242635E-02 -0.12273666106E-01  0.13492324610E-01  0.51100000000E-03 0. -1.
</event>
<event>
 8    1  0.1088088E+005  0.1043930E+01  0.7957747E-01            NaN
         13   -1    0    0    0    0  0.00000000000E+00  0.00000000000E+00  0.74505805969E-08  0.10566000000E+00  0.10566000000E+00 0. -1.
     999900   -1    0    0    0    0 -0.00000000000E+00 -0.00000000000E+00 -0.74505805969E-08  0.93827000000E+00  0.93827000000E+00 0. -1.
     999902    2    1    2    0    0 -0.21577220305E-01  0.45192586185E-02  0.25270211967E-02  0.10217402282E+01  0.10214992452E+01 0.  0.
     999903    2    3    3    0    0 -0.67118214290E-01 -0.99834414573E-01 -0.52131722136E-01  0.13272321521E+00  0.20639049872E-01 0.  0.
         14    1    1    2    0    0  0.21577220305E-01 -0.45192586185E-02 -0.25270211967E-02  0.22189771758E-01  0.00000000000E+00 0. -1.
     999901    1    3    3    0    0  0.45540993985E-01  0.10435367319E+00  0.54658743333E-01  0.88901701303E+00  0.88000000000E+00 0. -1.
        -11    1    4    4    0    0 -0.30013940553E-01 -0.29173705332E-01 -0.22993083051E-01  0.47758608643E-01  0.51100000000E-03 0. -1.
         11    1    4    4    0    0 -0.37104273738E-01 -0.70660709241E-01 -0.29138639085E-01  0.84964606565E-01  0.51100000000E-03 0.  1.
</event>
<event>
 8    1  0.1088088E+005  0.1043930E+01  0.7957747E-01            NaN
         13   -1    0    0    0    0  0.00000000000E+00  0.00000000000E+00  0.74505805969E-08  0.10566000000E+00  0.10566000000E+00 0.  1.
     999900   -1    0    0    0    0 -0.00000000000E+00 -0.00000000000E+00 -0.74505805969E-08  0.93827000000E+00  0.93827000000E+00 0. -1.
     999902    2    1    2    0    0 -0.14808166153E-01  0.45563969361E-02  0.18064007093E-01  0.10201318721E+01  0.10198542473E+01 0.  0.
     999903    2    3    3    0    0  0.88049451998E-03  0.91473989620E-01  0.93674559571E-01  0.13248455611E+00  0.20222968358E-01 0.  0.
         14    1    1    2    0    0  0.14808166153E-01 -0.45563969361E-02 -0.18064007093E-01  0.23798127870E-01  0.00000000000E+00 0. -1.
     999901    1    3    3    0    0 -0.15688660673E-01 -0.86917592684E-01 -0.75610552478E-01  0.88764731602E+00  0.88000000000E+00 0. -1.
        -11    1    4    4    0    0 -0.53499646407E-02  0.91753122448E-02  0.15547758303E-01  0.18836198812E-01  0.51100000000E-03 0.  1.
         11    1    4    4    0    0  0.62304591607E-02  0.82298677375E-01  0.78126801268E-01  0.11364835730E+00  0.51100000000E-03 0. -1.
</event>
<event>
 8    1  0.1088088E+005  0.1043930E+01  0.7957747E-01            NaN
         13   -1    0    0    0    0  0.00000000000E+00  0.00000000000E+00  0.74505805969E-08  0.10566000000E+00  0.10566000000E+00 0. -1.
     999900   -1    0    0    0    0 -0.00000000000E+00 -0.00000000000E+00 -0.74505805969E-08  0.93827000000E+00  0.93827000000E+00 0.  1.
     999902    2    1    2    0    0 -0.21282603373E-01  0.82046460781E-02 -0.71041233067E-02  0.10200399604E+01  0.10197601614E+01 0.  0.
     999903    2    3    3    0    0 -0.45410550074E-02 -0.74195381825E-01 -0.10533545762E+00  0.13059100792E+00  0.20805692824E-01 0.  0.
         14    1    1    2    0    0  0.21282603373E-01 -0.82046460781E-02  0.71041233067E-02  0.23890039589E-01  0.00000000000E+00 0. -1.
     999901    1    3    3    0    0 -0.16741548365E-01  0.82400027903E-01  0.98231334313E-01  0.88944895249E+00  0.88000000000E+00 0. -1.
        -11    1    4    4    0    0  0.75107483776E-02 -0.16170863664E-01 -0.27073050237E-01  0.32420970729E-01  0.51100000000E-03 0.  1.
         11    1    4    4    0    0 -0.12051803385E-01 -0.58024518161E-01 -0.78262407383E-01  0.98170037195E-01  0.51100000000E-03 0. -1.
</event>
<event>
 7    1  0.1088088E+005  0.1043930E+01  0.7957747E-01            NaN
         13   -1    0    0    0    0  0.00000000000E+00  0.00000000000E+00  0.74505805969E-08  0.10566000000E+00  0.10566000000E+00 0. -1.
     999900   -1    0    0    0    0 -0.00000000000E+00 -0.00000000000E+00 -0.74505805969E-08  0.93827000000E+00  0.93827000000E+00 0. -1.
     999903    2    1    2    0    0 -0.10666623394E+00  0.11219742527E-01  0.41095910120E-01  0.11643716693E+00  0.19109472230E-01 0.  0.
         14    1    1    2    0    0  0.27768494477E-01  0.41147872124E-02  0.29862932792E-01  0.40985552507E-01  0.00000000000E+00 0. -1.
     999901    1    1    2    0    0  0.78897739468E-01 -0.15334529740E-01 -0.70958842912E-01  0.88650728056E+00  0.88000000000E+00 0. -1.
        -11    1    3    3    0    0 -0.47667267808E-01 -0.30575128775E-02  0.12744841229E-01  0.49438941172E-01  0.51100000000E-03 0.  1.
         11    1    3    3    0    0 -0.58998966137E-01  0.14277255405E-01  0.28351068891E-01  0.66998225763E-01  0.51100000000E-03 0. -1.
</event>
<event>
 8    1  0.1260024E+005  0.1043930E+01  0.7957747E-01            NaN
         13   -1    0    0    0    0  0.00000000000E+00  0.00000000000E+00  0.74505805969E-08  0.10566000000E+00  0.10566000000E+00 0. -1.
     999900   -1    0    0    0    0 -0.00000000000E+00 -0.00000000000E+00 -0.74505805969E-08  0.93827000000E+00  0.93827000000E+00 0.  1.
     999902    2    1    2    0    0  0.48586589515E-02 -0.23500757771E-01 -0.10105662905E-04  0.10199322442E+01  0.10196498862E+01 0.  0.
     999903    2    3    3    0    0  0.43383046335E-01 -0.44872934773E-01 -0.11416889627E+00  0.13146551556E+00  0.18787653471E-01 0.  0.
         14    1    1    2    0    0 -0.48586589515E-02  0.23500757771E-01  0.10105662905E-04  0.23997755827E-01  0.00000000000E+00 0. -1.
     999901    1    3    3    0    0 -0.38524387383E-01  0.21372177002E-01  0.11415879060E+00  0.88846672861E+00  0.88000000000E+00 0. -1.
        -11    1    4    4    0    0  0.10659597599E-01 -0.22149507748E-01 -0.53560889960E-01  0.58934351348E-01  0.51100000000E-03 0.  1.
         11    1    4    4    0    0  0.32723448735E-01 -0.22723427025E-01 -0.60608006307E-01  0.72531164216E-01  0.51100000000E-03 0. -1.
</event>
<event>
 8    1  0.1088088E+005  0.1043930E+01  0.7957747E-01            NaN
         13   -1    0    0    0    0  0.00000000000E+00  0.00000000000E+00  0.74505805969E-08  0.10566000000E+00  0.10566000000E+00 0. -1.
     999900   -1    0    0    0    0 -0.00000000000E+00 -0.00000000000E+00 -0.74505805969E-08  0.93827000000E+00  0.93827000000E+00 0. -1.
     999902    2    1    2    0    0 -0.17960689725E-01  0.85817921605E-02 -0.13664904117E-01  0.10197853704E+01  0.10194995040E+01 0.  0.
     999903    2    3    3    0    0  0.79398182935E-01  0.52645751663E-01 -0.86764782081E-01  0.13031138275E+00  0.19423759780E-01 0.  0.
         14    1    1    2    0    0  0.17960689725E-01 -0.85817921605E-02  0.13664904117E-01  0.24144629560E-01  0.00000000000E+00 0. -1.
     999901    1    3    3    0    0 -0.97358872659E-01 -0.44063959503E-01  0.73099877964E-01  0.88947398769E+00  0.88000000000E+00 0.  1.
        -11    1    4    4    0    0  0.40138034050E-02  0.72781734800E-02 -0.13284885143E-01  0.15679021693E-01  0.51100000000E-03 0. -1.
         11    1    4    4    0    0  0.75384379530E-01  0.45367578183E-01 -0.73479896938E-01  0.11463236106E+00  0.51100000000E-03 0.  1.
</event>
<event>
 8    1  0.1088088E+005  0.1043930E+01  0.7957747E-01            NaN
         13   -1    0    0    0    0  0.00000000000E+00  0.00000000000E+00  0.74505805969E-08  0.10566000000E+00  0.10566000000E+00 0.  1.
     999900   -1    0    0    0    0 -0.00000000000E+00 -0.00000000000E+00 -0.74505805969E-08  0.93827000000E+00  0.93827000000E+00 0.  1.
     999902    2    1    2    0    0  0.26277536187E-01 -0.27567174989E-02  0.19746668109E-01  0.10109445593E+01  0.10104062859E+01 0.  0.
     999903    2    3    3    0    0  0.18677644575E-01  0.98246702099E-01 -0.65007133182E-01  0.12108914631E+00  0.20865883860E-01 0.  0.
         14    1    1    2    0    0 -0.26277536187E-01  0.27567174989E-02 -0.19746668109E-01  0.32985440741E-01  0.00000000000E+00 0. -1.
     999901    1    3    3    0    0  0.75998916121E-02 -0.10100341960E+00  0.84753801291E-01  0.88985541295E+00  0.88000000000E+00 0. -1.
        -11    1    4    4    0    0  0.13525182384E-01  0.22993925941E-01 -0.18624088506E-01  0.32538730497E-01  0.51100000000E-03 0.  1.
         11    1    4    4    0    0  0.51524621908E-02  0.75252776158E-01 -0.46383044676E-01  0.88550415812E-01  0.51100000000E-03 0. -1.
</event>
<event>
 8    1  0.1088088E+005  0.1043930E+01  0.7957747E-01            NaN
         13   -1    0    0    0    0  0.00000000000E+00  0.00000000000E+00  0.74505805969E-08  0.10566000000E+00  0.10566000000E+00 0. -1.
     999900   -1    0    0    0    0 -0.00000000000E+00 -0.00000000000E+00 -0.74505805969E-08  0.93827000000E+00  0.93827000000E+00 0. -1.
     999902    2    1    2    0    0  0.18081431443E-02 -0.12594105101E-01 -0.19162557983E-01  0.10209281633E+01  0.10206690110E+01 0.  0.
     999903    2    3    3    0    0  0.50526350579E-02  0.80271592443E-01 -0.10288318050E+00  0.13208413468E+00  0.19804346250E-01 0.  0.
         14    1    1    2    0    0 -0.18081431443E-02  0.12594105101E-01  0.19162557983E-01  0.23001836739E-01  0.00000000000E+00 0. -1.
     999901    1    3    3    0    0 -0.32444919136E-02 -0.92865697544E-01  0.83720622516E-01  0.88884402858E+00  0.88000000000E+00 0.  1.
        -11    1    4    4    0    0  0.10536739427E-01  0.26710013533E-01 -0.30802064505E-01  0.42112658423E-01  0.51100000000E-03 0.  1.
         11    1    4    4    0    0 -0.54841043687E-02  0.53561578910E-01 -0.72081115993E-01  0.89971476257E-01  0.51100000000E-03 0. -1.
</event>
<event>
 8    1  0.1088088E+005  0.1043930E+01  0.7957747E-01            NaN
         13   -1    0    0    0    0  0.00000000000E+00  0.00000000000E+00  0.74505805969E-08  0.10566000000E+00  0.10566000000E+00 0.  1.
     999900   -1    0    0    0    0 -0.00000000000E+00 -0.00000000000E+00 -0.74505805969E-08  0.93827000000E+00  0.93827000000E+00 0. -1.
     999902    2    1    2    0    0 -0.85500818933E-02  0.10910331162E-01 -0.17294639784E-01  0.10217659798E+01  0.10215255619E+01 0.  0.
     999903    2    3    3    0    0  0.27267651220E-02  0.58755060073E-01 -0.11989455201E+00  0.13444246080E+00  0.15507396052E-01 0.  0.
         14    1    1    2    0    0  0.85500818933E-02 -0.10910331162E-01  0.17294639784E-01  0.22164020206E-01  0.00000000000E+00 0.  1.
     999901    1    3    3    0    0 -0.11276847015E-01 -0.47844728911E-01  0.10259991223E+00  0.88732351899E+00  0.88000000000E+00 0.  1.
        -11    1    4    4    0    0 -0.49962103101E-02  0.31858460141E-01 -0.54805676785E-01  0.63591248839E-01  0.51100000000E-03 0.  1.
         11    1    4    4    0    0  0.77229754321E-02  0.26896599932E-01 -0.65088875228E-01  0.70851211965E-01  0.51100000000E-03 0. -1.
</event>
<event>
 8    1  0.1088088E+005  0.1043930E+01  0.7957747E-01            NaN
         13   -1    0    0    0    0  0.00000000000E+00  0.00000000000E+00  0.74505805969E-08  0.10566000000E+00  0.10566000000E+00 0.  1.
     999900   -1    0    0    0    0 -0.00000000000E+00 -0.00000000000E+00 -0.74505805969E-08  0.93827000000E+00  0.93827000000E+00 0.  1.
     999902    2    1    2    0    0 -0.23029179017E-01 -0.72283547249E-02 -0.53032922097E-03  0.10197872278E+01  0.10195014059E+01 0.  0.
     999903    2    3    3    0    0 -0.48723823773E-01 -0.10121341530E+00  0.66549315689E-01  0.13187220649E+00  0.18528383275E-01 0.  0.
         14    1    1    2    0    0  0.23029179017E-01  0.72283547249E-02  0.53032922097E-03  0.24142772154E-01  0.00000000000E+00 0. -1.
     999901    1    3    3    0    0  0.25694644756E-01  0.93985060577E-01 -0.67079644910E-01  0.88791502135E+00  0.88000000000E+00 0.  1.
        -11    1    4    4    0    0 -0.16162400525E-01 -0.24262327830E-01  0.93819109678E-02  0.30629481172E-01  0.51100000000E-03 0.  1.
         11    1    4    4    0    0 -0.32561423248E-01 -0.76951087471E-01  0.57167404722E-01  0.10124272532E+00  0.51100000000E-03 0. -1.
</event>
<event>
 8    1  0.1088088E+005  0.1043930E+01  0.7957747E-01            NaN
         13   -1    0    0    0    0  0.00000000000E+00  0.00000000000E+00  0.74505805969E-08  0.10566000000E+00  0.10566000000E+00 0.  1.
     999900   -1    0    0    0    0 -0.00000000000E+00 -0.00000000000E+00 -0.74505805969E-08  0.93827000000E+00  0.93827000000E+00 0.  1.
     999902    2    1    2    0    0 -0.23782651443E-01 -0.15443495160E-04  0.36035845832E-02  0.10198758825E+01  0.10195921808E+01 0.  0.
     999903    2    3    3    0    0 -0.15928570541E-01 -0.88516470967E-02 -0.12729171646E+00  0.13011560863E+00  0.19870065725E-01 0.  0.
         14    1    1    2    0    0  0.23782651443E-01  0.15443495160E-04 -0.36035845832E-02  0.24054117527E-01  0.00000000000E+00 0. -1.
     999901    1    3    3    0    0 -0.78540809014E-02  0.88362036016E-02  0.13089530105E+00  0.88976027385E+00  0.88000000000E+00 0. -1.
        -11    1    4    4    0    0 -0.81640269782E-02 -0.86035863799E-02 -0.11469139455E+00  0.11530416359E+00  0.51100000000E-03 0.  1.
         11    1    4    4    0    0 -0.77645435630E-02 -0.24806071681E-03 -0.12600321910E-01  0.14811445037E-01  0.51100000000E-03 0. -1.
</event>
<event>
 8    1  0.1088088E+005  0.1043930E+01  0.7957747E-01            NaN
         13   -1    0    0    0    0  0.00000000000E+00  0.00000000000E+00  0.74505805969E-08  0.10566000000E+00  0.10566000000E+00 0. -1.
     999900   -1    0    0    0    0 -0.00000000000E+00 -0.00000000000E+00 -0.74505805969E-08  0.93827000000E+00  0.93827000000E+00 0. -1.
     999902    2    1    2    0    0  0.14680075691E-01 -0.13501000319E-01  0.11723315986E-01  0.10207952260E+01  0.10205330350E+01 0.  0.
     999903    2    3    3    0    0  0.63980936148E-01 -0.10370131789E+00 -0.48770893756E-01  0.13274893126E+00  0.19903646663E-01 0.  0.
         14    1    1    2    0    0 -0.14680075691E-01  0.13501000319E-01 -0.11723315986E-01  0.23134774034E-01  0.00000000000E+00 0.  1.
     999901    1    3    3    0    0 -0.49300860458E-01  0.90200317568E-01  0.60494209742E-01  0.88804629471E+00  0.88000000000E+00 0.  1.
        -11    1    4    4    0    0  0.27613228566E-01 -0.27692360240E-01 -0.13088669285E-01  0.41242351924E-01  0.51100000000E-03 0.  1.
         11    1    4    4    0    0  0.36367707582E-01 -0.76008957647E-01 -0.35682224471E-01  0.91506579335E-01  0.51100000000E-03 0. -1.
</event>
<event>
 8    1  0.1088088E+005  0.1043930E+01  0.7957747E-01            NaN
         13   -1    0    0    0    0  0.00000000000E+00  0.00000000000E+00  0.74505805969E-08  0.10566000000E+00  0.10566000000E+00 0. -1.
     999900   -1    0    0    0    0 -0.00000000000E+00 -0.00000000000E+00 -0.74505805969E-08  0.93827000000E+00  0.93827000000E+00 0.  1.
     999902    2    1    2    0    0  0.15787093333E-01  0.16760490874E-02  0.17302905128E-01  0.10204474111E+01  0.10201771840E+01 0.  0.
     999903    2    3    3    0    0  0.39125533321E-01  0.21543056885E-01 -0.11971011810E+00  0.12931781932E+00  0.19941799346E-01 0.  0.
         14    1    1    2    0    0 -0.15787093333E-01 -0.16760490874E-02 -0.17302905128E-01  0.23482588919E-01  0.00000000000E+00 0.  1.
     999901    1    3    3    0    0 -0.23338439988E-01 -0.19867007798E-01  0.13701302323E+00  0.89112959176E+00  0.88000000000E+00 0. -1.
        -11    1    4    4    0    0  0.24646318050E-01  0.22043944869E-01 -0.95897761837E-01  0.10143972765E+00  0.51100000000E-03 0.  1.
         11    1    4    4    0    0  0.14479215271E-01 -0.50088798378E-03 -0.23812356259E-01  0.27878091672E-01  0.51100000000E-03 0. -1.
</event>
<event>
 8    1  0.1088088E+005  0.1043930E+01  0.7957747E-01            NaN
         13   -1    0    0    0    0  0.00000000000E+00  0.00000000000E+00  0.74505805969E-08  0.10566000000E+00  0.10566000000E+00 0. -1.
     999900   -1    0    0    0    0 -0.00000000000E+00 -0.00000000000E+00 -0.74505805969E-08  0.93827000000E+00  0.93827000000E+00 0.  1.
     999902    2    1    2    0    0  0.36214600726E-02  0.24151254617E-01 -0.77284741864E-02  0.10183150164E+01  0.10179928021E+01 0.  0.
     999903    2    3    3    0    0  0.77761600867E-01  0.99641660468E-01 -0.31031492513E-01  0.13167044694E+00  0.19970628430E-01 0.  0.
         14    1    1    2    0    0 -0.36214600726E-02 -0.24151254617E-01  0.77284741864E-02  0.25614983620E-01  0.00000000000E+00 0. -1.
     999901    1    3    3    0    0 -0.74140140794E-01 -0.75490405851E-01  0.23303018326E-01  0.88664456944E+00  0.88000000000E+00 0. -1.
        -11    1    4    4    0    0  0.27930359919E-01  0.46654504262E-01 -0.20772806021E-01  0.58210981474E-01  0.51100000000E-03 0. -1.
         11    1    4    4    0    0  0.49831240948E-01  0.52987156206E-01 -0.10258686491E-01  0.73459465467E-01  0.51100000000E-03 0.  1.
</event>
<event>
 8    1  0.1088088E+005  0.1043930E+01  0.7957747E-01            NaN
         13   -1    0    0    0    0  0.00000000000E+00  0.00000000000E+00  0.74505805969E-08  0.10566000000E+00  0.10566000000E+00 0.  1.
     999900   -1    0    0    0    0 -0.00000000000E+00 -0.00000000000E+00 -0.74505805969E-08  0.93827000000E+00  0.93827000000E+00 0.  1.
     999902    2    1    2    0    0  0.36172954674E-03  0.24189133499E-01 -0.75945018410E-02  0.10185741035E+01  0.10182584558E+01 0.  0.
     999903    2    3    3    0    0  0.80414611589E-02  0.12313655547E+00  0.35948266711E-01  0.13192561439E+00  0.29745814223E-01 0.  0.
         14    1    1    2    0    0 -0.36172954674E-03 -0.24189133499E-01  0.75945018410E-02  0.25355896472E-01  0.00000000000E+00 0.  1.
     999901    1    3    3    0    0 -0.76797316122E-02 -0.98947421968E-01 -0.43542768552E-01  0.88664848913E+00  0.88000000000E+00 0.  1.
        -11    1    4    4    0    0 -0.30946905547E-02  0.10843337386E+00  0.31049976843E-01  0.11283499395E+00  0.51100000000E-03 0. -1.
         11    1    4    4    0    0  0.11136151714E-01  0.14703181605E-01  0.48982898679E-02  0.19090620444E-01  0.51100000000E-03 0.  1.
</event>
<event>
 8    1  0.1088088E+005  0.1043930E+01  0.7957747E-01            NaN
         13   -1    0    0    0    0  0.00000000000E+00  0.00000000000E+00  0.74505805969E-08  0.10566000000E+00  0.10566000000E+00 0.  1.
     999900   -1    0    0    0    0 -0.00000000000E+00 -0.00000000000E+00 -0.74505805969E-08  0.93827000000E+00  0.93827000000E+00 0.  1.
     999902    2    1    2    0    0  0.94050153821E-02  0.64794773231E-02  0.23531901171E-01  0.10177730064E+01  0.10174368306E+01 0.  0.
     999903    2    3    3    0    0  0.48771314697E-01  0.11590694849E+00 -0.20479499672E-01  0.12903171652E+00  0.20413527733E-01 0.  0.
         14    1    1    2    0    0 -0.94050153821E-02 -0.64794773231E-02 -0.23531901171E-01  0.26156993586E-01  0.00000000000E+00 0. -1.
     999901    1    3    3    0    0 -0.39366299315E-01 -0.10942747117E+00  0.44011400843E-01  0.88874128990E+00  0.88000000000E+00 0. -1.
        -11    1    4    4    0    0  0.23954687475E-01  0.56964351194E-01 -0.20391907504E-01  0.65075766393E-01  0.51100000000E-03 0. -1.
         11    1    4    4    0    0  0.24816627221E-01  0.58942597296E-01 -0.87592168709E-04  0.63955950122E-01  0.51100000000E-03 0.  1.
</event>
<event>
 8    1  0.1088088E+005  0.1043930E+01  0.7957747E-01            NaN
         13   -1    0    0    0    0  0.00000000000E+00  0.00000000000E+00  0.74505805969E-08  0.10566000000E+00  0.10566000000E+00 0. -1.
     999900   -1    0    0    0    0 -0.00000000000E+00 -0.00000000000E+00 -0.74505805969E-08  0.93827000000E+00  0.93827000000E+00 0. -1.
     999902    2    1    2    0    0  0.21000800836E-01  0.11050698441E-01 -0.25821716499E-02  0.10200591143E+01  0.10197797691E+01 0.  0.
     999903    2    3    3    0    0 -0.10486089358E+00  0.71712500252E-01  0.10722952389E-01  0.12893732320E+00  0.19270752759E-01 0.  0.
         14    1    1    2    0    0 -0.21000800836E-01 -0.11050698441E-01  0.25821716499E-02  0.23870885660E-01  0.00000000000E+00 0.  1.
     999901    1    3    3    0    0  0.12586169441E+00 -0.60661801811E-01 -0.13305124039E-01  0.89112179114E+00  0.88000000000E+00 0. -1.
        -11    1    4    4    0    0 -0.78019757702E-01  0.58001635996E-01  0.15402944012E-01  0.98431621826E-01  0.51100000000E-03 0.  1.
         11    1    4    4    0    0 -0.26841135875E-01  0.13710864256E-01 -0.46799916235E-02  0.30505701373E-01  0.51100000000E-03 0. -1.
</event>
<event>
 8    1  0.1088088E+005  0.1043930E+01  0.7957747E-01            NaN
         13   -1    0    0    0    0  0.00000000000E+00  0.00000000000E+00  0.74505805969E-08  0.10566000000E+00  0.10566000000E+00 0. -1.
     999900   -1    0    0    0    0 -0.00000000000E+00 -0.00000000000E+00 -0.74505805969E-08  0.93827000000E+00  0.93827000000E+00 0.  1.
     999902    2    1    2    0    0  0.11327396313E-01 -0.11411950736E-01  0.16629478266E-01  0.10207981589E+01  0.10205360352E+01 0.  0.
     999903    2    3    3    0    0 -0.40370322122E-01 -0.12149756375E+00  0.26263684115E-01  0.13238141307E+00  0.21062680729E-01 0.  0.
         14    1    1    2    0    0 -0.11327396313E-01  0.11411950736E-01 -0.16629478266E-01  0.23131841134E-01  0.00000000000E+00 0. -1.
     999901    1    3    3    0    0  0.51697718434E-01  0.11008561301E+00 -0.96342058483E-02  0.88841674579E+00  0.88000000000E+00 0.  1.
        -11    1    4    4    0    0 -0.32342607939E-01 -0.93816148499E-01  0.29102908683E-01  0.10341544576E+00  0.51100000000E-03 0. -1.
         11    1    4    4    0    0 -0.80277141828E-02 -0.27681415247E-01 -0.28392245681E-02  0.28965967310E-01  0.51100000000E-03 0.  1.
</event>
<event>
 8    1  0.1088088E+005  0.1043930E+01  0.7957747E-01            NaN
         13   -1    0    0    0    0  0.00000000000E+00  0.00000000000E+00  0.74505805969E-08  0.10566000000E+00  0.10566000000E+00 0.  1.
     999900   -1    0    0    0    0 -0.00000000000E+00 -0.00000000000E+00 -0.74505805969E-08  0.93827000000E+00  0.93827000000E+00 0.  1.
     999902    2    1    2    0    0  0.19308038994E-01 -0.14500125125E-01 -0.14211715541E-02  0.10197417027E+01  0.10194547888E+01 0.  0.
     999903    2    3    3    0    0  0.62899481406E-01 -0.26179233751E-01 -0.11110778258E+00  0.13178462711E+00  0.19507730547E-01 0.  0.
         14    1    1    2    0    0 -0.19308038994E-01  0.14500125125E-01  0.14211715541E-02  0.24188297316E-01  0.00000000000E+00 0. -1.
     999901    1    3    3    0    0 -0.43591442412E-01  0.11679108625E-01  0.10968661103E+00  0.88795707558E+00  0.88000000000E+00 0. -1.
        -11    1    4    4    0    0  0.47205324685E-01 -0.10525461769E-01 -0.81880178157E-01  0.95098647309E-01  0.51100000000E-03 0.  1.
         11    1    4    4    0    0  0.15694156721E-01 -0.15653771981E-01 -0.29227604423E-01  0.36685979798E-01  0.51100000000E-03 0. -1.
</event>
<event>
 8    1  0.1088088E+005  0.1043930E+01  0.7957747E-01            NaN
         13   -1    0    0    0    0  0.00000000000E+00  0.00000000000E+00  0.74505805969E-08  0.10566000000E+00  0.10566000000E+00 0. -1.
     999900   -1    0    0    0    0 -0.00000000000E+00 -0.00000000000E+00 -0.74505805969E-08  0.93827000000E+00  0.93827000000E+00 0. -1.
     999902    2    1    2    0    0  0.11489706776E-01  0.18423697343E-01 -0.85880076708E-02  0.10205804848E+01  0.10203133470E+01 0.  0.
     999903    2    3    3    0    0  0.86488857157E-02  0.94531115902E-01  0.89179208020E-01  0.13189671768E+00  0.20805717841E-01 0.  0.
         14    1    1    2    0    0 -0.11489706776E-01 -0.18423697343E-01  0.85880076708E-02  0.23349515227E-01  0.00000000000E+00 0. -1.
     999901    1    3    3    0    0  0.28408210606E-02 -0.76107418559E-01 -0.97767215691E-01  0.88868376709E+00  0.88000000000E+00 0. -1.
        -11    1    4    4    0    0  0.35039495682E-02  0.86156612101E-01  0.85378021809E-01  0.12134622862E+00  0.51100000000E-03 0.  1.
         11    1    4    4    0    0  0.51449361475E-02  0.83745038004E-02  0.38011862109E-02  0.10550489063E-01  0.51100000000E-03 0. -1.
</event>
<event>
 8    1  0.1088088E+005  0.1043930E+01  0.7957747E-01            NaN
         13   -1    0    0    0    0  0.00000000000E+00  0.00000000000E+00  0.74505805969E-08  0.10566000000E+00  0.10566000000E+00 0. -1.
     999900   -1    0    0    0    0 -0.00000000000E+00 -0.00000000000E+00 -0.74505805969E-08  0.93827000000E+00  0.93827000000E+00 0. -1.
     999902    2    1    2    0    0  0.65760096868E-02 -0.22467097221E-01 -0.50609871516E-03  0.10205148234E+01  0.10202461635E+01 0.  0.
     999903    2    3    3    0    0  0.10447307625E+00 -0.25380025262E-01 -0.73627983307E-01  0.13206722739E+00  0.21491935240E-01 0.  0.
         14    1    1    2    0    0 -0.65760096868E-02  0.22467097221E-01  0.50609871516E-03  0.23415176635E-01  0.00000000000E+00 0. -1.
     999901    1    3    3    0    0 -0.97897066564E-01  0.29129280418E-02  0.73121884592E-01  0.88844759598E+00  0.88000000000E+00 0.  1.
        -11    1    4    4    0    0  0.48201297204E-01 -0.20753738979E-01 -0.28077304275E-01  0.59520407173E-01  0.51100000000E-03 0. -1.
         11    1    4    4    0    0  0.56271779047E-01 -0.46262862835E-02 -0.45550679033E-01  0.72546820215E-01  0.51100000000E-03 0.  1.
</event>
<event>
 8    1  0.1088088E+005  0.1043930E+01  0.7957747E-01            NaN
         13   -1    0    0    0    0  0.00000000000E+00  0.00000000000E+00  0.74505805969E-08  0.10566000000E+00  0.10566000000E+00 0. -1.
     999900   -1    0    0    0    0 -0.00000000000E+00 -0.00000000000E+00 -0.74505805969E-08  0.93827000000E+00  0.93827000000E+00 0.  1.
     999902    2    1    2    0    0  0.23619591169E-01 -0.54233800265E-04  0.17717318854E-03  0.10203096821E+01  0.10200362385E+01 0.  0.
     999903    2    3    3    0    0  0.81643975634E-01  0.95413046795E-01  0.37349212856E-01  0.13246814701E+00  0.19582084060E-01 0.  0.
         14    1    1    2    0    0 -0.23619591169E-01  0.54233800265E-04 -0.17717318854E-03  0.23620317920E-01  0.00000000000E+00 0.  1.
     999901    1    3    3    0    0 -0.58024384465E-01 -0.95467280595E-01 -0.37172039668E-01  0.88784153507E+00  0.88000000000E+00 0.  1.
        -11    1    4    4    0    0  0.51816519607E-01  0.66267106115E-01  0.16056779432E-01  0.85640891773E-01  0.51100000000E-03 0. -1.
         11    1    4    4    0    0  0.29827456027E-01  0.29145940680E-01  0.21292433424E-01  0.46827255240E-01  0.51100000000E-03 0.  1.
</event>
<event>
 8    1  0.1088088E+005  0.1043930E+01  0.7957747E-01            NaN
         13   -1    0    0    0    0  0.00000000000E+00  0.00000000000E+00  0.74505805969E-08  0.10566000000E+00  0.10566000000E+00 0.  1.
     999900   -1    0    0    0    0 -0.00000000000E+00 -0.00000000000E+00 -0.74505805969E-08  0.93827000000E+00  0.93827000000E+00 0. -1.
     999902    2    1    2    0    0  0.99795341614E-02 -0.87495767599E-02  0.16661055052E-01  0.10226288979E+01  0.10224070255E+01 0.  0.
     999903    2    3    3    0    0 -0.12917713838E+00  0.22129015457E-02  0.15086378699E-01  0.13162539899E+00  0.20149859209E-01 0.  0.
         14    1    1    2    0    0 -0.99795341614E-02  0.87495767599E-02 -0.16661055052E-01  0.21301102108E-01  0.00000000000E+00 0. -1.
     999901    1    3    3    0    0  0.13915667254E+00 -0.10962478306E-01  0.15746763530E-02  0.89100349890E+00  0.88000000000E+00 0. -1.
        -11    1    4    4    0    0 -0.46699939959E-01 -0.87067932462E-02  0.72716725287E-02  0.48060701027E-01  0.51100000000E-03 0.  1.
         11    1    4    4    0    0 -0.82477198416E-01  0.10919694792E-01  0.78147061703E-02  0.83564697968E-01  0.51100000000E-03 0. -1.
</event>
<event>
 8    1  0.1088088E+005  0.1043930E+01  0.7957747E-01            NaN
         13   -1    0    0    0    0  0.00000000000E+00  0.00000000000E+00  0.74505805969E-08  0.10566000000E+00  0.10566000000E+00 0.  1.
     999900   -1    0    0    0    0 -0.00000000000E+00 -0.00000000000E+00 -0.74505805969E-08  0.93827000000E+00  0.93827000000E+00 0.  1.
     999902    2    1    2    0    0 -0.51035121968E-03 -0.57477685675E-03 -0.24676417246E-01  0.10192416142E+01  0.10189425654E+01 0.  0.
     999903    2    3    3    0    0  0.52300298249E-01 -0.76994243821E-01 -0.91375330553E-01  0.13184224260E+00  0.19222151841E-01 0.  0.
         14    1    1    2    0    0  0.51035121968E-03  0.57477685675E-03  0.24676417246E-01  0.24688385830E-01  0.00000000000E+00 0.  1.
     999901    1    3    3    0    0 -0.52810649469E-01  0.76419466964E-01  0.66698913307E-01  0.88739937157E+00  0.88000000000E+00 0. -1.
        -11    1    4    4    0    0  0.18268157081E-01 -0.43973954570E-01 -0.45772589391E-01  0.66051686612E-01  0.51100000000E-03 0. -1.
         11    1    4    4    0    0  0.34032141168E-01 -0.33020289251E-01 -0.45602741161E-01  0.65790555988E-01  0.51100000000E-03 0.  1.
</event>
<event>
 8    1  0.1179365E+005  0.1043930E+01  0.7957747E-01            NaN
         13   -1    0    0    0    0  0.00000000000E+00  0.00000000000E+00  0.74505805969E-08  0.10566000000E+00  0.10566000000E+00 0. -1.
     999900   -1    0    0    0    0 -0.00000000000E+00 -0.00000000000E+00 -0.74505805969E-08  0.93827000000E+00  0.93827000000E+00 0. -1.
     999902    2    1    2    0    0 -0.69232160614E-02 -0.58906381761E-02 -0.21631938741E-01  0.10204657439E+01  0.10201959436E+01 0.  0.
     999903    2    3    3    0    0  0.87691251158E-01 -0.84976857212E-01 -0.44849934075E-01  0.13156439803E+00  0.19668565067E-01 0.  0.
         14    1    1    2    0    0  0.69232160614E-02  0.58906381761E-02  0.21631938741E-01  0.23464256060E-01  0.00000000000E+00 0. -1.
     999901    1    3    3    0    0 -0.94614467220E-01  0.79086219035E-01  0.23217995333E-01  0.88890134591E+00  0.88000000000E+00 0.  1.
        -11    1    4    4    0    0  0.22243891483E-01 -0.33302517847E-01 -0.18440184103E-01  0.44092515397E-01  0.51100000000E-03 0. -1.
         11    1    4    4    0    0  0.65447359675E-01 -0.51674339364E-01 -0.26409749972E-01  0.87471882635E-01  0.51100000000E-03 0.  1.
</event>
<event>
 8    1  0.1088088E+005  0.1043930E+01  0.7957747E-01            NaN
         13   -1    0    0    0    0  0.00000000000E+00  0.00000000000E+00  0.74505805969E-08  0.10566000000E+00  0.10566000000E+00 0. -1.
     999900   -1    0    0    0    0 -0.00000000000E+00 -0.00000000000E+00 -0.74505805969E-08  0.93827000000E+00  0.93827000000E+00 0. -1.
     999902    2    1    2    0    0  0.36897521821E-02 -0.95889491279E-02 -0.24110013493E-01  0.10177220820E+01  0.10173845788E+01 0.  0.
     999903    2    3    3    0    0 -0.18785619852E-01  0.79478834226E-01 -0.99053371090E-01  0.12977235410E+00  0.18960721559E-01 0.  0.
         14    1    1    2    0    0 -0.36897521821E-02  0.95889491279E-02  0.24110013493E-01  0.26207918025E-01  0.00000000000E+00 0. -1.
     999901    1    3    3    0    0  0.22475372034E-01 -0.89067783354E-01  0.74943357597E-01  0.88794972787E+00  0.88000000000E+00 0.  1.
        -11    1    4    4    0    0 -0.83585583328E-03 -0.34289260277E-03 -0.50276670448E-02  0.51336913838E-02  0.51100000000E-03 0.  1.
         11    1    4    4    0    0 -0.17949764018E-01  0.79821726829E-01 -0.94025704045E-01  0.12463866272E+00  0.51100000000E-03 0. -1.
</event>
<event>
 8    1  0.1105837E+005  0.1043930E+01  0.7957747E-01            NaN
         13   -1    0    0    0    0  0.00000000000E+00  0.00000000000E+00  0.74505805969E-08  0.10566000000E+00  0.10566000000E+00 0. -1.
     999900   -1    0    0    0    0 -0.00000000000E+00 -0.00000000000E+00 -0.74505805969E-08  0.93827000000E+00  0.93827000000E+00 0. -1.
     999902    2    1    2    0    0 -0.20752074204E-02  0.22766991492E-01  0.11595084083E-01  0.10182962652E+01  0.10179735730E+01 0.  0.
     999903    2    3    3    0    0  0.38174775799E-02 -0.47231538233E-01 -0.11547605156E+00  0.12639851798E+00  0.19911693122E-01 0.  0.
         14    1    1    2    0    0  0.20752074204E-02 -0.22766991492E-01 -0.11595084083E-01  0.25633734849E-01  0.00000000000E+00 0.  1.
     999901    1    3    3    0    0 -0.58926850003E-02  0.69998529724E-01  0.12707113565E+00  0.89189774717E+00  0.88000000000E+00 0.  1.
        -11    1    4    4    0    0 -0.43766344785E-02 -0.27660558228E-01 -0.47043389255E-01  0.54750369902E-01  0.51100000000E-03 0.  1.
         11    1    4    4    0    0  0.81941120584E-02 -0.19570980005E-01 -0.68432662310E-01  0.71648148075E-01  0.51100000000E-03 0. -1.
</event>
<event>
 8    1  0.1088088E+005  0.1043930E+01  0.7957747E-01            NaN
         13   -1    0    0    0    0  0.00000000000E+00  0.00000000000E+00  0.74505805969E-08  0.10566000000E+00  0.10566000000E+00 0.  1.
     999900   -1    0    0    0    0 -0.00000000000E+00 -0.00000000000E+00 -0.74505805969E-08  0.93827000000E+00  0.93827000000E+00 0.  1.
     999902    2    1    2    0    0 -0.14844459475E-01  0.27824093965E-02 -0.26669066835E-01  0.10132813637E+01  0.10128177443E+01 0.  0.
     999903    2    3    3    0    0 -0.33195177377E-01 -0.11797497319E+00 -0.11390436067E-01  0.12471367872E+00  0.20093419939E-01 0.  0.
         14    1    1    2    0    0  0.14844459475E-01 -0.27824093965E-02  0.26669066835E-01  0.30648636267E-01  0.00000000000E+00 0.  1.
     999901    1    3    3    0    0  0.18350717902E-01  0.12075738259E+00 -0.15278630769E-01  0.88856768502E+00  0.88000000000E+00 0.  1.
        -11    1    4    4    0    0 -0.23756645622E-02 -0.38787837093E-01  0.78066827446E-03  0.38871720472E-01  0.51100000000E-03 0. -1.
         11    1    4    4    0    0 -0.30819512815E-01 -0.79187136098E-01 -0.12171104341E-01  0.85841958245E-01  0.51100000000E-03 0.  1.
</event>
<event>
 8    1  0.1088088E+005  0.1043930E+01  0.7957747E-01            NaN
         13   -1    0    0    0    0  0.00000000000E+00  0.00000000000E+00  0.74505805969E-08  0.10566000000E+00  0.10566000000E+00 0. -1.
     999900   -1    0    0    0    0 -0.00000000000E+00 -0.00000000000E+00 -0.74505805969E-08  0.93827000000E+00  0.93827000000E+00 0. -1.
     999902    2    1    2    0    0 -0.17247833310E-01  0.16365713304E-01 -0.22938656389E-02  0.10200430549E+01  0.10197633293E+01 0.  0.
     999903    2    3    3    0    0  0.11065179688E-01 -0.11992373781E+00  0.38544819720E-01  0.12816624761E+00  0.20898392467E-01 0.  0.
         14    1    1    2    0    0  0.17247833310E-01 -0.16365713304E-01  0.22938656389E-02  0.23886945084E-01  0.00000000000E+00 0. -1.
     999901    1    3    3    0    0 -0.28313012999E-01  0.13628945111E+00 -0.40838685359E-01  0.89187680731E+00  0.88000000000E+00 0. -1.
        -11    1    4    4    0    0  0.27147309663E-02 -0.10556027796E+00  0.32629186648E-01  0.11052269898E+00  0.51100000000E-03 0. -1.
         11    1    4    4    0    0  0.83504487219E-02 -0.14363459850E-01  0.59156330723E-02  0.17643548633E-01  0.51100000000E-03 0.  1.
</event>
<event>
 8    1  0.1088088E+005  0.1043930E+01  0.7957747E-01            NaN
         13   -1    0    0    0    0  0.00000000000E+00  0.00000000000E+00  0.74505805969E-08  0.10566000000E+00  0.10566000000E+00 0.  1.
     999900   -1    0    0    0    0 -0.00000000000E+00 -0.00000000000E+00 -0.74505805969E-08  0.93827000000E+00  0.93827000000E+00 0.  1.
     999902    2    1    2    0    0  0.31194458468E-02 -0.22140733417E-01  0.90001065080E-02  0.10198272007E+01  0.10195423357E+01 0.  0.
     999903    2    3    3    0    0 -0.11470030797E+00 -0.29951032525E-01  0.51881844434E-01  0.13090575385E+00  0.19782962650E-01 0.  0.
         14    1    1    2    0    0 -0.31194458468E-02  0.22140733417E-01 -0.90001065080E-02  0.24102799335E-01  0.00000000000E+00 0. -1.
     999901    1    3    3    0    0  0.11781975382E+00  0.78102991078E-02 -0.42881737925E-01  0.88892144682E+00  0.88000000000E+00 0. -1.
        -11    1    4    4    0    0 -0.33711088637E-01 -0.15709118646E-01  0.94805634563E-02  0.38384321150E-01  0.51100000000E-03 0. -1.
         11    1    4    4    0    0 -0.80989219333E-01 -0.14241913879E-01  0.42401280977E-01  0.92521432699E-01  0.51100000000E-03 0.  1.
</event>
<event>
 8    1  0.1088088E+005  0.1043930E+01  0.7957747E-01            NaN
         13   -1    0    0    0    0  0.00000000000E+00  0.00000000000E+00  0.74505805969E-08  0.10566000000E+00  0.10566000000E+00 0. -1.
     999900   -1    0    0    0    0 -0.00000000000E+00 -0.00000000000E+00 -0.74505805969E-08  0.93827000000E+00  0.93827000000E+00 0. -1.
     999902    2    1    2    0    0 -0.95996700584E-02 -0.49890347788E-02 -0.21506190237E-01  0.10198559403E+01  0.10195717623E+01 0.  0.
     999903    2    3    3    0    0  0.85123263478E-01  0.80179102814E-01  0.47340529733E-01  0.12802304300E+00  0.21774188192E-01 0.  0.
         14    1    1    2    0    0  0.95996700584E-02  0.49890347788E-02  0.21506190237E-01  0.24074059728E-01  0.00000000000E+00 0. -1.
     999901    1    3    3    0    0 -0.94722933537E-01 -0.85168137593E-01 -0.68846719970E-01  0.89183289727E+00  0.88000000000E+00 0.  1.
        -11    1    4    4    0    0  0.32925204007E-01  0.38703359675E-01  0.30465131840E-01  0.59248666550E-01  0.51100000000E-03 0.  1.
         11    1    4    4    0    0  0.52198059472E-01  0.41475743139E-01  0.16875397894E-01  0.68774376454E-01  0.51100000000E-03 0. -1.
</event>
<event>
 8    1  0.1088088E+005  0.1043930E+01  0.7957747E-01            NaN
         13   -1    0    0    0    0  0.00000000000E+00  0.00000000000E+00  0.74505805969E-08  0.10566000000E+00  0.10566000000E+00 0. -1.
     999900   -1    0    0    0    0 -0.00000000000E+00 -0.00000000000E+00 -0.74505805969E-08  0.93827000000E+00  0.93827000000E+00 0. -1.
     999902    2    1    2    0    0 -0.11784929226E-01  0.47227574339E-02 -0.20289294901E-01  0.10199958302E+01  0.10197149843E+01 0.  0.
     999903    2    3    3    0    0 -0.92081510181E-01 -0.39132605357E-01  0.79973468868E-01  0.12958948729E+00  0.19680299155E-01 0.  0.
         14    1    1    2    0    0  0.11784929226E-01 -0.47227574339E-02  0.20289294901E-01  0.23934169762E-01  0.00000000000E+00 0. -1.
     999901    1    3    3    0    0  0.80296580955E-01  0.43855362791E-01 -0.10026276377E+00  0.89040634295E+00  0.88000000000E+00 0. -1.
        -11    1    4    4    0    0 -0.20747410976E-01 -0.14848664868E-01  0.28912825359E-01  0.38563590364E-01  0.51100000000E-03 0. -1.
         11    1    4    4    0    0 -0.71334099205E-01 -0.24283940489E-01  0.51060643509E-01  0.91025896928E-01  0.51100000000E-03 0.  1.
</event>
<event>
 8    1  0.1088088E+005  0.1043930E+01  0.7957747E-01            NaN
         13   -1    0    0    0    0  0.00000000000E+00  0.00000000000E+00  0.74505805969E-08  0.10566000000E+00  0.10566000000E+00 0. -1.
     999900   -1    0    0    0    0 -0.00000000000E+00 -0.00000000000E+00 -0.74505805969E-08  0.93827000000E+00  0.93827000000E+00 0. -1.
     999902    2    1    2    0    0  0.22904615207E-01  0.36037891744E-02  0.96437002000E-02  0.10188180577E+01  0.10185085297E+01 0.  0.
     999903    2    3    3    0    0 -0.18548874341E-01 -0.10813503276E+00 -0.62712137602E-01  0.12784144552E+00  0.19322964122E-01 0.  0.
         14    1    1    2    0    0 -0.22904615207E-01 -0.36037891744E-02 -0.96437002000E-02  0.25111942333E-01  0.00000000000E+00 0.  1.
     999901    1    3    3    0    0  0.41453489549E-01  0.11173882193E+00  0.72355837802E-01  0.89097661214E+00  0.88000000000E+00 0.  1.
        -11    1    4    4    0    0 -0.16979554894E-01 -0.86185070752E-01 -0.41061814556E-01  0.96966517111E-01  0.51100000000E-03 0.  1.
         11    1    4    4    0    0 -0.15693194471E-02 -0.21949962004E-01 -0.21650323046E-01  0.30874928413E-01  0.51100000000E-03 0. -1.
</event>
<event>
 8    1  0.1088088E+005  0.1043930E+01  0.7957747E-01            NaN
         13   -1    0    0    0    0  0.00000000000E+00  0.00000000000E+00  0.74505805969E-08  0.10566000000E+00  0.10566000000E+00 0. -1.
     999900   -1    0    0    0    0 -0.00000000000E+00 -0.00000000000E+00 -0.74505805969E-08  0.93827000000E+00  0.93827000000E+00 0.  1.
     999902    2    1    2    0    0  0.20072276108E-01  0.78112677248E-02 -0.11892697096E-01  0.10193261707E+01  0.10190291919E+01 0.  0.
     999903    2    3    3    0    0 -0.39620366955E-01 -0.10728844119E+00 -0.55480558160E-01  0.12875834271E+00  0.20494765029E-01 0.  0.
         14    1    1    2    0    0 -0.20072276108E-01 -0.78112677248E-02  0.11892697096E-01  0.24603829293E-01  0.00000000000E+00 0.  1.
     999901    1    3    3    0    0  0.59692643063E-01  0.11509970891E+00  0.43587861064E-01  0.89056782800E+00  0.88000000000E+00 0.  1.
        -11    1    4    4    0    0 -0.32315870043E-01 -0.97421034486E-01 -0.55028025989E-01  0.11646251836E+00  0.51100000000E-03 0.  1.
         11    1    4    4    0    0 -0.73044969116E-02 -0.98674067039E-02 -0.45253217172E-03  0.12295824355E-01  0.51100000000E-03 0. -1.
</event>
<event>
 8    1  0.1088088E+005  0.1043930E+01  0.7957747E-01            NaN
         13   -1    0    0    0    0  0.00000000000E+00  0.00000000000E+00  0.74505805969E-08  0.10566000000E+00  0.10566000000E+00 0. -1.
     999900   -1    0    0    0    0 -0.00000000000E+00 -0.00000000000E+00 -0.74505805969E-08  0.93827000000E+00  0.93827000000E+00 0.  1.
     999902    2    1    2    0    0  0.67988893058E-02  0.64942680564E-03 -0.27438719656E-01  0.10156540387E+01  0.10152603589E+01 0.  0.
     999903    2    3    3    0    0 -0.45970522294E-01  0.97933571095E-01  0.58463775805E-01  0.12457152049E+00  0.19894154148E-01 0.  0.
         14    1    1    2    0    0 -0.67988893058E-02 -0.64942680564E-03  0.27438719656E-01  0.28275961298E-01  0.00000000000E+00 0. -1.
     999901    1    3    3    0    0  0.52769411600E-01 -0.97284144289E-01 -0.85902495461E-01  0.89108251821E+00  0.88000000000E+00 0. -1.
        -11    1    4    4    0    0 -0.49695511188E-02  0.30780076221E-01  0.13843283888E-01  0.34117549155E-01  0.51100000000E-03 0. -1.
         11    1    4    4    0    0 -0.41000971175E-01  0.67153494874E-01  0.44620491917E-01  0.90453971339E-01  0.51100000000E-03 0.  1.
</event>
<event>
 8    1  0.1088088E+005  0.1043930E+01  0.7957747E-01            NaN
         13   -1    0    0    0    0  0.00000000000E+00  0.00000000000E+00  0.74505805969E-08  0.10566000000E+00  0.10566000000E+00 0.  1.
     999900   -1    0    0    0    0 -0.00000000000E+00 -0.00000000000E+00 -0.74505805969E-08  0.93827000000E+00  0.93827000000E+00 0.  1.
     999902    2    1    2    0    0 -0.14816394087E-01  0.16917136300E-01  0.71340343738E-02  0.10203374274E+01  0.10200646334E+01 0.  0.
     999903    2    3    3    0    0 -0.34136523513E-01 -0.12213613043E+00 -0.11756442653E-01  0.12900924515E+00  0.20558083497E-01 0.  0.
         14    1    1    2    0    0  0.14816394087E-01 -0.16917136300E-01 -0.71340343738E-02  0.23592572577E-01  0.00000000000E+00 0. -1.
     999901    1    3    3    0    0  0.19320129426E-01  0.13905326673E+00  0.18890477027E-01  0.89132818227E+00  0.88000000000E+00 0. -1.
        -11    1    4    4    0    0 -0.26902681606E-01 -0.67148340722E-01 -0.12587553185E-03  0.72338999889E-01  0.51100000000E-03 0. -1.
         11    1    4    4    0    0 -0.72338419075E-02 -0.54987789706E-01 -0.11630567121E-01  0.56670245262E-01  0.51100000000E-03 0.  1.
</event>
<event>
 8    1  0.1088088E+005  0.1043930E+01  0.7957747E-01            NaN
         13   -1    0    0    0    0  0.00000000000E+00  0.00000000000E+00  0.74505805969E-08  0.10566000000E+00  0.10566000000E+00 0. -1.
     999900   -1    0    0    0    0 -0.00000000000E+00 -0.00000000000E+00 -0.74505805969E-08  0.93827000000E+00  0.93827000000E+00 0. -1.
     999902    2    1    2    0    0  0.20130090412E-01  0.14039174474E-01  0.43163147923E-02  0.10190111410E+01  0.10187064130E+01 0.  0.
     999903    2    3    3    0    0  0.37754796828E-01  0.54553345268E-01 -0.11048149963E+00  0.13045581549E+00  0.20274759462E-01 0.  0.
         14    1    1    2    0    0 -0.20130090412E-01 -0.14039174474E-01 -0.43163147923E-02  0.24918858988E-01  0.00000000000E+00 0. -1.
     999901    1    3    3    0    0 -0.17624706416E-01 -0.40514170794E-01  0.11479781443E+00  0.88855532552E+00  0.88000000000E+00 0.  1.
        -11    1    4    4    0    0  0.36950317076E-01  0.46861887750E-01 -0.85268646316E-01  0.10407865113E+00  0.51100000000E-03 0.  1.
         11    1    4    4    0    0  0.80447975205E-03  0.76914575179E-02 -0.25212853317E-01  0.26377164363E-01  0.51100000000E-03 0. -1.
</event>
<event>
 8    1  0.1088088E+005  0.1043930E+01  0.7957747E-01            NaN
         13   -1    0    0    0    0  0.00000000000E+00  0.00000000000E+00  0.74505805969E-08  0.10566000000E+00  0.10566000000E+00 0. -1.
     999900   -1    0    0    0    0 -0.00000000000E+00 -0.00000000000E+00 -0.74505805969E-08  0.93827000000E+00  0.93827000000E+00 0. -1.
     999902    2    1    2    0    0  0.33492010524E-02  0.16161173417E-01  0.17599845349E-01  0.10198021068E+01  0.10195166413E+01 0.  0.
     999903    2    3    3    0    0  0.91685929961E-02  0.12227173081E+00 -0.43887033258E-01  0.13127863950E+00  0.16539959119E-01 0.  0.
         14    1    1    2    0    0 -0.33492010524E-02 -0.16161173417E-01 -0.17599845349E-01  0.24127893199E-01  0.00000000000E+00 0. -1.
     999901    1    3    3    0    0 -0.58193919438E-02 -0.10611055739E+00  0.61486878608E-01  0.88852346731E+00  0.88000000000E+00 0. -1.
        -11    1    4    4    0    0  0.92300922416E-02  0.39073284948E-01 -0.95532209685E-02  0.41272767672E-01  0.51100000000E-03 0.  1.
         11    1    4    4    0    0 -0.61499245467E-04  0.83198445858E-01 -0.34333812290E-01  0.90005871823E-01  0.51100000000E-03 0. -1.
</event>
<event>
 8    1  0.1088088E+005  0.1043930E+01  0.7957747E-01            NaN
         13   -1    0    0    0    0  0.00000000000E+00  0.00000000000E+00  0.74505805969E-08  0.10566000000E+00  0.10566000000E+00 0. -1.
     999900   -1    0    0    0    0 -0.00000000000E+00 -0.00000000000E+00 -0.74505805969E-08  0.93827000000E+00  0.93827000000E+00 0. -1.
     999902    2    1    2    0    0  0.23389436362E-02  0.16075216542E-01 -0.16767425404E-01  0.10205841267E+01  0.10203170732E+01 0.  0.
     999903    2    3    3    0    0 -0.78492970391E-01  0.10282532073E+00 -0.20901577276E-01  0.13262215113E+00  0.20434433019E-01 0.  0.
         14    1    1    2    0    0 -0.23389436362E-02 -0.16075216542E-01  0.16767425404E-01  0.23345873273E-01  0.00000000000E+00 0. -1.
     999901    1    3    3    0    0  0.80831914027E-01 -0.86750104188E-01  0.41341518717E-02  0.88796197560E+00  0.88000000000E+00 0.  1.
        -11    1    4    4    0    0 -0.59998554491E-01  0.76877794031E-01 -0.67524767793E-02  0.97754175459E-01  0.51100000000E-03 0.  1.
         11    1    4    4    0    0 -0.18494415900E-01  0.25947526698E-01 -0.14149100496E-01  0.34867975667E-01  0.51100000000E-03 0. -1.
</event>
<event>
 8    1  0.1088088E+005  0.1043930E+01  0.7957747E-01            NaN
         13   -1    0    0    0    0  0.00000000000E+00  0.00000000000E+00  0.74505805969E-08  0.10566000000E+00  0.10566000000E+00 0. -1.
     999900   -1    0    0    0    0 -0.00000000000E+00 -0.00000000000E+00 -0.74505805969E-08  0.93827000000E+00  0.93827000000E+00 0.  1.
     999902    2    1    2    0    0  0.11820349739E-01  0.14732818471E-01 -0.19010300571E-01  0.10171313408E+01  0.10167782434E+01 0.  0.
     999903    2    3    3    0    0  0.96883851333E-01 -0.11361487235E-01  0.77977550252E-01  0.12734296409E+00  0.24903174858E-01 0.  0.
         14    1    1    2    0    0 -0.11820349739E-01 -0.14732818471E-01  0.19010300571E-01  0.26798659217E-01  0.00000000000E+00 0.  1.
     999901    1    3    3    0    0 -0.85063501594E-01  0.26094305705E-01 -0.96987850824E-01  0.88978837669E+00  0.88000000000E+00 0.  1.
        -11    1    4    4    0    0  0.35441524603E-01 -0.12434593052E-01  0.41073301921E-01  0.55659662434E-01  0.51100000000E-03 0.  1.
         11    1    4    4    0    0  0.61442326730E-01  0.10731058177E-02  0.36904248332E-01  0.71683301654E-01  0.51100000000E-03 0. -1.
</event>
<event>
 8    1  0.1088088E+005  0.1043930E+01  0.7957747E-01            NaN
         13   -1    0    0    0    0  0.00000000000E+00  0.00000000000E+00  0.74505805969E-08  0.10566000000E+00  0.10566000000E+00 0. -1.
     999900   -1    0    0    0    0 -0.00000000000E+00 -0.00000000000E+00 -0.74505805969E-08  0.93827000000E+00  0.93827000000E+00 0.  1.
     999902    2    1    2    0    0  0.24411977591E-01 -0.24757818423E-02  0.46611568649E-02  0.10189540009E+01  0.10186478565E+01 0.  0.
     999903    2    3    3    0    0 -0.38577929030E-01 -0.10602914747E+00 -0.57948714466E-01  0.12844233686E+00  0.20222355671E-01 0.  0.
         14    1    1    2    0    0 -0.24411977591E-01  0.24757818423E-02 -0.46611568649E-02  0.24975999058E-01  0.00000000000E+00 0.  1.
     999901    1    3    3    0    0  0.62989906620E-01  0.10355336563E+00  0.62609871331E-01  0.89051166408E+00  0.88000000000E+00 0. -1.
        -11    1    4    4    0    0 -0.31905314379E-01 -0.95570467888E-01 -0.44523686230E-01  0.11015572239E+00  0.51100000000E-03 0.  1.
         11    1    4    4    0    0 -0.66726146504E-02 -0.10458679586E-01 -0.13425028237E-01  0.18286614479E-01  0.51100000000E-03 0. -1.
</event>
<event>
 8    1  0.1088088E+005  0.1043930E+01  0.7957747E-01            NaN
         13   -1    0    0    0    0  0.00000000000E+00  0.00000000000E+00  0.74505805969E-08  0.10566000000E+00  0.10566000000E+00 0. -1.
     999900   -1    0    0    0    0 -0.00000000000E+00 -0.00000000000E+00 -0.74505805969E-08  0.93827000000E+00  0.93827000000E+00 0. -1.
     999902    2    1    2    0    0 -0.62497133157E-02 -0.19596642341E-01  0.11756942957E-01  0.10202379546E+01  0.10199628282E+01 0.  0.
     999903    2    3    3    0    0 -0.34725758998E-01  0.25179870043E-01  0.12278146714E+00  0.13167604555E+00  0.20576396786E-01 0.  0.
         14    1    1    2    0    0  0.62497133157E-02  0.19596642341E-01 -0.11756942957E-01  0.23692045401E-01  0.00000000000E+00 0.  1.
     999901    1    3    3    0    0  0.28476045682E-01 -0.44776512384E-01 -0.11102452419E+00  0.88856190905E+00  0.88000000000E+00 0. -1.
        -11    1    4    4    0    0 -0.31658324805E-01  0.20392111343E-01  0.78930139947E-01  0.87454650234E-01  0.51100000000E-03 0.  1.
         11    1    4    4    0    0 -0.30674341928E-02  0.47877587001E-02  0.43851327197E-01  0.44221395318E-01  0.51100000000E-03 0. -1.
</event>
<event>
 8    1  0.1088088E+005  0.1043930E+01  0.7957747E-01            NaN
         13   -1    0    0    0    0  0.00000000000E+00  0.00000000000E+00  0.74505805969E-08  0.10566000000E+00  0.10566000000E+00 0.  1.
     999900   -1    0    0    0    0 -0.00000000000E+00 -0.00000000000E+00 -0.74505805969E-08  0.93827000000E+00  0.93827000000E+00 0.  1.
     999902    2    1    2    0    0 -0.20674080311E-01  0.66048955107E-02 -0.11476345601E-01  0.10193790581E+01  0.10190833701E+01 0.  0.
     999903    2    3    3    0    0 -0.12320919299E+00 -0.39699402699E-01 -0.18446122559E-01  0.13218904733E+00  0.19420015056E-01 0.  0.
         14    1    1    2    0    0  0.20674080311E-01 -0.66048955107E-02  0.11476345601E-01  0.24550941932E-01  0.00000000000E+00 0.  1.
     999901    1    3    3    0    0  0.10253511268E+00  0.46304298210E-01  0.69697769580E-02  0.88719001074E+00  0.88000000000E+00 0.  1.
        -11    1    4    4    0    0 -0.91777559008E-01 -0.28891550569E-01 -0.50561887939E-02  0.96351793953E-01  0.51100000000E-03 0. -1.
         11    1    4    4    0    0 -0.31431633980E-01 -0.10807852130E-01 -0.13389933765E-01  0.35837253376E-01  0.51100000000E-03 0.  1.
</event>
<event>
 8    1  0.1088088E+005  0.1043930E+01  0.7957747E-01            NaN
         13   -1    0    0    0    0  0.00000000000E+00  0.00000000000E+00  0.74505805969E-08  0.10566000000E+00  0.10566000000E+00 0. -1.
     999900   -1    0    0    0    0 -0.00000000000E+00 -0.00000000000E+00 -0.74505805969E-08  0.93827000000E+00  0.93827000000E+00 0.  1.
     999902    2    1    2    0    0  0.16790820627E-01  0.11127015576E-01 -0.74426447055E-02  0.10224559437E+01  0.10222304152E+01 0.  0.
     999903    2    3    3    0    0  0.52008936200E-01  0.52902268506E-01  0.10858701040E+00  0.13315938560E+00  0.20897456511E-01 0.  0.
         14    1    1    2    0    0 -0.16790820627E-01 -0.11127015576E-01  0.74426447055E-02  0.21474056281E-01  0.00000000000E+00 0.  1.
     999901    1    3    3    0    0 -0.35218115573E-01 -0.41775252930E-01 -0.11602965510E+00  0.88929655812E+00  0.88000000000E+00 0.  1.
        -11    1    4    4    0    0  0.30724106463E-01  0.32346859783E-01  0.46847891244E-01  0.64693709824E-01  0.51100000000E-03 0. -1.
         11    1    4    4    0    0  0.21284829737E-01  0.20555408723E-01  0.61739119151E-01  0.68465675774E-01  0.51100000000E-03 0.  1.
</event>
<event>
 8    1  0.1088088E+005  0.1043930E+01  0.7957747E-01            NaN
         13   -1    0    0    0    0  0.00000000000E+00  0.00000000000E+00  0.74505805969E-08  0.10566000000E+00  0.10566000000E+00 0. -1.
     999900   -1    0    0    0    0 -0.00000000000E+00 -0.00000000000E+00 -0.74505805969E-08  0.93827000000E+00  0.93827000000E+00 0.  1.
     999902    2    1    2    0    0 -0.14646001612E-01  0.19077763021E-01 -0.41422553499E-02  0.10195245767E+01  0.10192324258E+01 0.  0.
     999903    2    3    3    0    0  0.10472699632E+00  0.12381055421E-01  0.70302996092E-01  0.12832490552E+00  0.20093178548E-01 0.  0.
         14    1    1    2    0    0  0.14646001612E-01 -0.19077763021E-01  0.41422553499E-02  0.24405423260E-01  0.00000000000E+00 0.  1.
     999901    1    3    3    0    0 -0.11937299793E+00  0.66967076004E-02 -0.74445251441E-01  0.89119967122E+00  0.88000000000E+00 0.  1.
        -11    1    4    4    0    0  0.85535064220E-01  0.15200175445E-01  0.64059486055E-01  0.10794059208E+00  0.51100000000E-03 0. -1.
         11    1    4    4    0    0  0.19191932102E-01 -0.28191200242E-02  0.62435100363E-02  0.20384313432E-01  0.51100000000E-03 0.  1.
</event>
<event>
 8    1  0.1088088E+005  0.1043930E+01  0.7957747E-01            NaN
         13   -1    0    0    0    0  0.00000000000E+00  0.00000000000E+00  0.74505805969E-08  0.10566000000E+00  0.10566000000E+00 0. -1.
     999900   -1    0    0    0    0 -0.00000000000E+00 -0.00000000000E+00 -0.74505805969E-08  0.93827000000E+00  0.93827000000E+00 0. -1.
     999902    2    1    2    0    0 -0.16693008345E-01  0.13603150579E-01 -0.93672980651E-02  0.10204470592E+01  0.10201768240E+01 0.  0.
     999903    2    3    3    0    0  0.10658292747E+00  0.58532591335E-01 -0.41654967212E-01  0.13013357256E+00  0.20337790877E-01 0.  0.
         14    1    1    2    0    0  0.16693008345E-01 -0.13603150579E-01  0.93672980651E-02  0.23482940751E-01  0.00000000000E+00 0. -1.
     999901    1    3    3    0    0 -0.12327593582E+00 -0.44929440756E-01  0.32287669147E-01  0.89031348669E+00  0.88000000000E+00 0.  1.
        -11    1    4    4    0    0  0.41941615400E-01  0.20123931763E-01 -0.26117083894E-01  0.53351990817E-01  0.51100000000E-03 0. -1.
         11    1    4    4    0    0  0.64641312072E-01  0.38408659571E-01 -0.15537883317E-01  0.76781581746E-01  0.51100000000E-03 0.  1.
</event>
<event>
 8    1  0.1088088E+005  0.1043930E+01  0.7957747E-01            NaN
         13   -1    0    0    0    0  0.00000000000E+00  0.00000000000E+00  0.74505805969E-08  0.10566000000E+00  0.10566000000E+00 0.  1.
     999900   -1    0    0    0    0 -0.00000000000E+00 -0.00000000000E+00 -0.74505805969E-08  0.93827000000E+00  0.93827000000E+00 0. -1.
     999902    2    1    2    0    0 -0.33022574320E-02 -0.15647989466E-01 -0.16211253942E-01  0.10211578848E+01  0.10209039408E+01 0.  0.
     999903    2    3    3    0    0  0.73019615469E-01  0.43708593512E-02 -0.10944615375E+00  0.13272188304E+00  0.16901745835E-01 0.  0.
         14    1    1    2    0    0  0.33022574320E-02  0.15647989466E-01  0.16211253942E-01  0.22772115248E-01  0.00000000000E+00 0.  1.
     999901    1    3    3    0    0 -0.76321872901E-01 -0.20018848817E-01  0.93234899811E-01  0.88843600171E+00  0.88000000000E+00 0.  1.
        -11    1    4    4    0    0  0.51070752614E-01  0.99198802844E-02 -0.69692941598E-01  0.86971219533E-01  0.51100000000E-03 0.  1.
         11    1    4    4    0    0  0.21948862855E-01 -0.55490209332E-02 -0.39753212155E-01  0.45750663510E-01  0.51100000000E-03 0. -1.
</event>
<event>
 8    1  0.1088088E+005  0.1043930E+01  0.7957747E-01            NaN
         13   -1    0    0    0    0  0.00000000000E+00  0.00000000000E+00  0.74505805969E-08  0.10566000000E+00  0.10566000000E+00 0. -1.
     999900   -1    0    0    0    0 -0.00000000000E+00 -0.00000000000E+00 -0.74505805969E-08  0.93827000000E+00  0.93827000000E+00 0. -1.
     999902    2    1    2    0    0  0.13090177786E-01 -0.18077269932E-01 -0.98694502725E-02  0.10195261788E+01  0.10192340667E+01 0.  0.
     999903    2    3    3    0    0 -0.11914927380E+00 -0.21553341276E-01 -0.40229548259E-01  0.12912116351E+00  0.19818232659E-01 0.  0.
         14    1    1    2    0    0 -0.13090177786E-01  0.18077269932E-01  0.98694502725E-02  0.24403821244E-01  0.00000000000E+00 0. -1.
     999901    1    3    3    0    0  0.13223945158E+00  0.34760713440E-02  0.30360097987E-01  0.89040501525E+00  0.88000000000E+00 0. -1.
        -11    1    4    4    0    0 -0.13695309617E-01 -0.53561697252E-02  0.98095459078E-03  0.14746981133E-01  0.51100000000E-03 0.  1.
         11    1    4    4    0    0 -0.10545396418E+00 -0.16197171550E-01 -0.41210502850E-01  0.11437418238E+00  0.51100000000E-03 0. -1.
</event>
<event>
 8    1  0.1088088E+005  0.1043930E+01  0.7957747E-01            NaN
         13   -1    0    0    0    0  0.00000000000E+00  0.00000000000E+00  0.74505805969E-08  0.10566000000E+00  0.10566000000E+00 0.  1.
     999900   -1    0    0    0    0 -0.00000000000E+00 -0.00000000000E+00 -0.74505805969E-08  0.93827000000E+00  0.93827000000E+00 0. -1.
     999902    2    1    2    0    0 -0.64594963721E-02  0.18243238517E-01  0.88915900047E-02  0.10226320842E+01  0.10224102789E+01 0.  0.
     999903    2    3    3    0    0 -0.61363243057E-01 -0.49093883110E-01  0.10560121197E+00  0.13308081511E+00  0.19576271947E-01 0.  0.
         14    1    1    2    0    0  0.64594963721E-02 -0.18243238517E-01 -0.88915900047E-02  0.21297915808E-01  0.00000000000E+00 0. -1.
     999901    1    3    3    0    0  0.54903746685E-01  0.67337121627E-01 -0.96709621963E-01  0.88955126908E+00  0.88000000000E+00 0. -1.
        -11    1    4    4    0    0 -0.27308205819E-01 -0.20499557663E-01  0.62105178340E-01  0.70875131513E-01  0.51100000000E-03 0.  1.
         11    1    4    4    0    0 -0.34055037238E-01 -0.28594325447E-01  0.43496033628E-01  0.62205683594E-01  0.51100000000E-03 0. -1.
</event>
<event>
 8    1  0.1088088E+005  0.1043930E+01  0.7957747E-01            NaN
         13   -1    0    0    0    0  0.00000000000E+00  0.00000000000E+00  0.74505805969E-08  0.10566000000E+00  0.10566000000E+00 0. -1.
     999900   -1    0    0    0    0 -0.00000000000E+00 -0.00000000000E+00 -0.74505805969E-08  0.93827000000E+00  0.93827000000E+00 0.  1.
     999902    2    1    2    0    0  0.21601149613E-01  0.61764256836E-02 -0.90686603702E-02  0.10197019481E+01  0.10194140790E+01 0.  0.
     999903    2    3    3    0    0 -0.42807206556E-01 -0.11887896125E+00  0.10759821675E-01  0.12830952336E+00  0.19567719877E-01 0.  0.
         14    1    1    2    0    0 -0.21601149613E-01 -0.61764256836E-02  0.90686603702E-02  0.24228051918E-01  0.00000000000E+00 0.  1.
     999901    1    3    3    0    0  0.64408356169E-01  0.12505538694E+00 -0.19828482045E-01  0.89139242472E+00  0.88000000000E+00 0. -1.
        -11    1    4    4    0    0 -0.22965521067E-01 -0.38746423298E-01  0.77103254385E-02  0.45699132548E-01  0.51100000000E-03 0. -1.
         11    1    4    4    0    0 -0.19841685489E-01 -0.80132537956E-01  0.30494962362E-02  0.82610390815E-01  0.51100000000E-03 0.  1.
</event>
<event>
 8    1  0.1088088E+005  0.1043930E+01  0.7957747E-01            NaN
         13   -1    0    0    0    0  0.00000000000E+00  0.00000000000E+00  0.74505805969E-08  0.10566000000E+00  0.10566000000E+00 0.  1.
     999900   -1    0    0    0    0 -0.00000000000E+00 -0.00000000000E+00 -0.74505805969E-08  0.93827000000E+00  0.93827000000E+00 0.  1.
     999902    2    1    2    0    0 -0.10893271514E-02  0.29524103311E-02  0.22864233231E-01  0.10208502140E+01  0.10205892822E+01 0.  0.
     999903    2    3    3    0    0  0.42506428926E-01 -0.97901228187E-01  0.75788609106E-01  0.13243981564E+00  0.20123233270E-01 0.  0.
         14    1    1    2    0    0  0.10893271514E-02 -0.29524103311E-02 -0.22864233231E-01  0.23079785996E-01  0.00000000000E+00 0. -1.
     999901    1    3    3    0    0 -0.43595756077E-01  0.10085363852E+00 -0.52924375876E-01  0.88841039836E+00  0.88000000000E+00 0.  1.
        -11    1    4    4    0    0  0.26691148423E-01 -0.53116265679E-01  0.30517637812E-01  0.66823217690E-01  0.51100000000E-03 0.  1.
         11    1    4    4    0    0  0.15815280503E-01 -0.44784962508E-01  0.45270971295E-01  0.65616597955E-01  0.51100000000E-03 0. -1.
</event>
<event>
 8    1  0.1088088E+005  0.1043930E+01  0.7957747E-01            NaN
         13   -1    0    0    0    0  0.00000000000E+00  0.00000000000E+00  0.74505805969E-08  0.10566000000E+00  0.10566000000E+00 0.  1.
     999900   -1    0    0    0    0 -0.00000000000E+00 -0.00000000000E+00 -0.74505805969E-08  0.93827000000E+00  0.93827000000E+00 0. -1.
     999902    2    1    2    0    0  0.17808804017E-01 -0.17406631654E-02 -0.15761037090E-01  0.10200847972E+01  0.10198060598E+01 0.  0.
     999903    2    3    3    0    0 -0.67582159051E-01 -0.90410062719E-01  0.58158069126E-01  0.12844702695E+00  0.19363627351E-01 0.  0.
         14    1    1    2    0    0 -0.17808804017E-01  0.17406631654E-02  0.15761037090E-01  0.23845202849E-01  0.00000000000E+00 0.  1.
     999901    1    3    3    0    0  0.85390963068E-01  0.88669399553E-01 -0.73919106216E-01  0.89163777020E+00  0.88000000000E+00 0. -1.
        -11    1    4    4    0    0 -0.17898336281E-01 -0.19834412889E-01  0.22975259215E-01  0.35240289915E-01  0.51100000000E-03 0. -1.
         11    1    4    4    0    0 -0.49683822770E-01 -0.70575649829E-01  0.35182809911E-01  0.93206737032E-01  0.51100000000E-03 0.  1.
</event>
<event>
 8    1  0.1137400E+005  0.1043930E+01  0.7957747E-01            NaN
         13   -1    0    0    0    0  0.00000000000E+00  0.00000000000E+00  0.74505805969E-08  0.10566000000E+00  0.10566000000E+00 0.  1.
     999900   -1    0    0    0    0 -0.00000000000E+00 -0.00000000000E+00 -0.74505805969E-08  0.93827000000E+00  0.93827000000E+00 0.  1.
     999902    2    1    2    0    0 -0.22193967761E-01  0.52428891775E-02  0.44680054431E-02  0.10206916015E+01  0.10204270293E+01 0.  0.
     999903    2    3    3    0    0 -0.12645284244E+00 -0.30315451505E-01 -0.22223966876E-01  0.13342232450E+00  0.19956553037E-01 0.  0.
         14    1    1    2    0    0  0.22193967761E-01 -0.52428891775E-02 -0.44680054431E-02  0.23238398493E-01  0.00000000000E+00 0. -1.
     999901    1    3    3    0    0  0.10425887468E+00  0.35558340682E-01  0.26691972319E-01  0.88726927701E+00  0.88000000000E+00 0. -1.
        -11    1    4    4    0    0 -0.64008153681E-01 -0.11473272557E-01 -0.17382804749E-02  0.65053535345E-01  0.51100000000E-03 0. -1.
         11    1    4    4    0    0 -0.62444688758E-01 -0.18842178947E-01 -0.20485686401E-01  0.68368789151E-01  0.51100000000E-03 0.  1.
</event>
<event>
 8    1  0.1088088E+005  0.1043930E+01  0.7957747E-01            NaN
         13   -1    0    0    0    0  0.00000000000E+00  0.00000000000E+00  0.74505805969E-08  0.10566000000E+00  0.10566000000E+00 0.  1.
     999900   -1    0    0    0    0 -0.00000000000E+00 -0.00000000000E+00 -0.74505805969E-08  0.93827000000E+00  0.93827000000E+00 0. -1.
     999902    2    1    2    0    0  0.48579205396E-02 -0.19123653317E-01 -0.12181773492E-01  0.10207414443E+01  0.10204780189E+01 0.  0.
     999903    2    3    3    0    0 -0.10191310979E+00 -0.56539710339E-01  0.56204951541E-01  0.13086686981E+00  0.19598985795E-01 0.  0.
         14    1    1    2    0    0 -0.48579205396E-02  0.19123653317E-01  0.12181773492E-01  0.23188555659E-01  0.00000000000E+00 0.  1.
     999901    1    3    3    0    0  0.10677103033E+00  0.37416057022E-01 -0.68386725033E-01  0.88987457453E+00  0.88000000000E+00 0. -1.
        -11    1    4    4    0    0 -0.65976656611E-02 -0.79393697613E-02  0.98060902927E-02  0.14247221210E-01  0.51100000000E-03 0. -1.
         11    1    4    4    0    0 -0.95315444124E-01 -0.48600340577E-01  0.46398861248E-01  0.11661964860E+00  0.51100000000E-03 0.  1.
</event>
<event>
 8    1  0.1088088E+005  0.1043930E+01  0.7957747E-01            NaN
         13   -1    0    0    0    0  0.00000000000E+00  0.00000000000E+00  0.74505805969E-08  0.10566000000E+00  0.10566000000E+00 0.  1.
     999900   -1    0    0    0    0 -0.00000000000E+00 -0.00000000000E+00 -0.74505805969E-08  0.93827000000E+00  0.93827000000E+00 0.  1.
     999902    2    1    2    0    0 -0.59777865785E-02 -0.19434858840E-01  0.13175882624E-01  0.10197008532E+01  0.10194129578E+01 0.  0.
     999903    2    3    3    0    0  0.60754226970E-01 -0.11348539049E+00 -0.17327721067E-01  0.13165291872E+00  0.21499561398E-01 0.  0.
         14    1    1    2    0    0  0.59777865785E-02  0.19434858840E-01 -0.13175882624E-01  0.24229146775E-01  0.00000000000E+00 0.  1.
     999901    1    3    3    0    0 -0.66732013548E-01  0.94050531654E-01  0.30503603691E-01  0.88804793450E+00  0.88000000000E+00 0.  1.
        -11    1    4    4    0    0  0.46351136923E-01 -0.77345246653E-01 -0.20959983804E-01  0.92575899218E-01  0.51100000000E-03 0. -1.
         11    1    4    4    0    0  0.14403090047E-01 -0.36140143841E-01  0.36322627368E-02  0.39077019504E-01  0.51100000000E-03 0.  1.
</event>
<event>
 8    1  0.1088088E+005  0.1043930E+01  0.7957747E-01            NaN
         13   -1    0    0    0    0  0.00000000000E+00  0.00000000000E+00  0.74505805969E-08  0.10566000000E+00  0.10566000000E+00 0. -1.
     999900   -1    0    0    0    0 -0.00000000000E+00 -0.00000000000E+00 -0.74505805969E-08  0.93827000000E+00  0.93827000000E+00 0.  1.
     999902    2    1    2    0    0  0.21426983193E-01  0.11855487927E-01 -0.12259927058E-02  0.10194112060E+01  0.10191163013E+01 0.  0.
     999903    2    3    3    0    0  0.64542000878E-01 -0.56691107511E-01  0.95939501802E-01  0.13036752098E+00  0.20291647832E-01 0.  0.
         14    1    1    2    0    0 -0.21426983193E-01 -0.11855487927E-01  0.12259927058E-02  0.24518794033E-01  0.00000000000E+00 0.  1.
     999901    1    3    3    0    0 -0.43115017685E-01  0.68546595438E-01 -0.97165494507E-01  0.88904368499E+00  0.88000000000E+00 0.  1.
        -11    1    4    4    0    0  0.20007212895E-01 -0.10187138257E-01  0.15300458679E-01  0.27174096315E-01  0.51100000000E-03 0. -1.
         11    1    4    4    0    0  0.44534787983E-01 -0.46503969254E-01  0.80639043122E-01  0.10319342466E+00  0.51100000000E-03 0.  1.
</event>
<event>
 8    1  0.1088088E+005  0.1043930E+01  0.7957747E-01            NaN
         13   -1    0    0    0    0  0.00000000000E+00  0.00000000000E+00  0.74505805969E-08  0.10566000000E+00  0.10566000000E+00 0. -1.
     999900   -1    0    0    0    0 -0.00000000000E+00 -0.00000000000E+00 -0.74505805969E-08  0.93827000000E+00  0.93827000000E+00 0. -1.
     999902    2    1    2    0    0 -0.10270213225E-01 -0.44360880144E-03  0.14389425468E-01  0.10262458366E+01  0.10260934595E+01 0.  0.
     999903    2    3    3    0    0  0.12598791423E+00  0.15430298972E-01 -0.38337249745E-01  0.13405843451E+00  0.19770444776E-01 0.  0.
         14    1    1    2    0    0  0.10270213225E-01  0.44360880144E-03 -0.14389425468E-01  0.17684163361E-01  0.00000000000E+00 0.  1.
     999901    1    3    3    0    0 -0.13625812745E+00 -0.15873907774E-01  0.52726675214E-01  0.89218740213E+00  0.88000000000E+00 0. -1.
        -11    1    4    4    0    0  0.99624489416E-01  0.39641013800E-02 -0.29473351289E-01  0.10396967129E+00  0.51100000000E-03 0.  1.
         11    1    4    4    0    0  0.26363424811E-01  0.11466197592E-01 -0.88638984565E-02  0.30088763216E-01  0.51100000000E-03 0. -1.
</event>
<event>
 8    1  0.1088088E+005  0.1043930E+01  0.7957747E-01            NaN
         13   -1    0    0    0    0  0.00000000000E+00  0.00000000000E+00  0.74505805969E-08  0.10566000000E+00  0.10566000000E+00 0.  1.
     999900   -1    0    0    0    0 -0.00000000000E+00 -0.00000000000E+00 -0.74505805969E-08  0.93827000000E+00  0.93827000000E+00 0.  1.
     999902    2    1    2    0    0 -0.78348925496E-02  0.91748053747E-02  0.20846100834E-01  0.10198442674E+01  0.10195598105E+01 0.  0.
     999903    2    3    3    0    0  0.50529596007E-01  0.11302815879E-01 -0.11478658640E+00  0.12753985309E+00  0.20235117740E-01 0.  0.
         14    1    1    2    0    0  0.78348925496E-02 -0.91748053747E-02 -0.20846100834E-01  0.24085732600E-01  0.00000000000E+00 0. -1.
     999901    1    3    3    0    0 -0.58364488556E-01 -0.21280105038E-02  0.13563268723E+00  0.89230441431E+00  0.88000000000E+00 0. -1.
        -11    1    4    4    0    0  0.11924727069E-01  0.84502036205E-02 -0.17331897367E-01  0.22677320041E-01  0.51100000000E-03 0. -1.
         11    1    4    4    0    0  0.38604868938E-01  0.28526122580E-02 -0.97454689030E-01  0.10486253305E+00  0.51100000000E-03 0.  1.
</event>
<event>
 8    1  0.1088088E+005  0.1043930E+01  0.7957747E-01            NaN
         13   -1    0    0    0    0  0.00000000000E+00  0.00000000000E+00  0.74505805969E-08  0.10566000000E+00  0.10566000000E+00 0. -1.
     999900   -1    0    0    0    0 -0.00000000000E+00 -0.00000000000E+00 -0.74505805969E-08  0.93827000000E+00  0.93827000000E+00 0. -1.
     999902    2    1    2    0    0  0.25363709464E-01 -0.47632302229E-02 -0.49385146532E-02  0.10176546304E+01  0.10173153649E+01 0.  0.
     999903    2    3    3    0    0  0.82774456905E-01 -0.98517586497E-01 -0.13359159128E-01  0.13077426616E+00  0.19134157742E-01 0.  0.
         14    1    1    2    0    0 -0.25363709464E-01  0.47632302229E-02  0.49385146532E-02  0.26275369586E-01  0.00000000000E+00 0.  1.
     999901    1    3    3    0    0 -0.57410747442E-01  0.93754356274E-01  0.84206444752E-02  0.88688036425E+00  0.88000000000E+00 0. -1.
        -11    1    4    4    0    0  0.45690011644E-01 -0.39852211448E-01 -0.81113785783E-02  0.61170511725E-01  0.51100000000E-03 0.  1.
         11    1    4    4    0    0  0.37084445261E-01 -0.58665375049E-01 -0.52477805501E-02  0.69603754437E-01  0.51100000000E-03 0. -1.
</event>
<event>
 8    1  0.1088088E+005  0.1043930E+01  0.7957747E-01            NaN
         13   -1    0    0    0    0  0.00000000000E+00  0.00000000000E+00  0.74505805969E-08  0.10566000000E+00  0.10566000000E+00 0. -1.
     999900   -1    0    0    0    0 -0.00000000000E+00 -0.00000000000E+00 -0.74505805969E-08  0.93827000000E+00  0.93827000000E+00 0. -1.
     999902    2    1    2    0    0 -0.12825883164E-01  0.12928557132E-01  0.17332395364E-01  0.10187891409E+01  0.10184788907E+01 0.  0.
     999903    2    3    3    0    0 -0.11986900193E+00  0.84557222080E-03 -0.45762005937E-01  0.12997806349E+00  0.20756762421E-01 0.  0.
         14    1    1    2    0    0  0.12825883164E-01 -0.12928557132E-01 -0.17332395364E-01  0.25140859124E-01  0.00000000000E+00 0.  1.
     999901    1    3    3    0    0  0.10704311877E+00  0.12082984911E-01  0.63094401301E-01  0.88881107738E+00  0.88000000000E+00 0. -1.
        -11    1    4    4    0    0 -0.66712889907E-01  0.65538071953E-02 -0.34290089410E-01  0.75296968208E-01  0.51100000000E-03 0. -1.
         11    1    4    4    0    0 -0.53156112023E-01 -0.57082349745E-02 -0.11471916527E-01  0.54681095287E-01  0.51100000000E-03 0.  1.
</event>
<event>
 8    1  0.1088088E+005  0.1043930E+01  0.7957747E-01            NaN
         13   -1    0    0    0    0  0.00000000000E+00  0.00000000000E+00  0.74505805969E-08  0.10566000000E+00  0.10566000000E+00 0. -1.
     999900   -1    0    0    0    0 -0.00000000000E+00 -0.00000000000E+00 -0.74505805969E-08  0.93827000000E+00  0.93827000000E+00 0.  1.
     999902    2    1    2    0    0 -0.10703447179E-02 -0.18433109341E-01  0.64540059966E-02  0.10243703642E+01  0.10241836084E+01 0.  0.
     999903    2    3    3    0    0  0.84890634963E-01 -0.10246652394E+00  0.18762799779E-01  0.13611228732E+00  0.21649565188E-01 0.  0.
         14    1    1    2    0    0  0.10703447179E-02  0.18433109341E-01 -0.64540059966E-02  0.19559635763E-01  0.00000000000E+00 0. -1.
     999901    1    3    3    0    0 -0.85960979681E-01  0.84033414596E-01 -0.12308793782E-01  0.88825807691E+00  0.88000000000E+00 0.  1.
        -11    1    4    4    0    0  0.19820573100E-01 -0.16316003489E-01 -0.33855099204E-02  0.25899611701E-01  0.51100000000E-03 0.  1.
         11    1    4    4    0    0  0.65070061863E-01 -0.86150520448E-01  0.22148309699E-01  0.11021267562E+00  0.51100000000E-03 0. -1.
</event>
<event>
 8    1  0.1088088E+005  0.1043930E+01  0.7957747E-01            NaN
         13   -1    0    0    0    0  0.00000000000E+00  0.00000000000E+00  0.74505805969E-08  0.10566000000E+00  0.10566000000E+00 0.  1.
     999900   -1    0    0    0    0 -0.00000000000E+00 -0.00000000000E+00 -0.74505805969E-08  0.93827000000E+00  0.93827000000E+00 0.  1.
     999902    2    1    2    0    0 -0.15514196878E-01 -0.62959735565E-02 -0.16604735204E-01  0.10203493550E+01  0.10200768400E+01 0.  0.
     999903    2    3    3    0    0 -0.85273292851E-01  0.94651832302E-01  0.22040738196E-01  0.13099550888E+00  0.21060042142E-01 0.  0.
         14    1    1    2    0    0  0.15514196878E-01  0.62959735565E-02  0.16604735204E-01  0.23580645008E-01  0.00000000000E+00 0.  1.
     999901    1    3    3    0    0  0.69759095973E-01 -0.10094780586E+00 -0.38645473401E-01  0.88935384611E+00  0.88000000000E+00 0.  1.
        -11    1    4    4    0    0 -0.50004431980E-01  0.40774987031E-01  0.73141792873E-02  0.64936901101E-01  0.51100000000E-03 0. -1.
         11    1    4    4    0    0 -0.35268860871E-01  0.53876845271E-01  0.14726558909E-01  0.66058607779E-01  0.51100000000E-03 0.  1.
</event>
<event>
 8    1  0.1088088E+005  0.1043930E+01  0.7957747E-01            NaN
         13   -1    0    0    0    0  0.00000000000E+00  0.00000000000E+00  0.74505805969E-08  0.10566000000E+00  0.10566000000E+00 0. -1.
     999900   -1    0    0    0    0 -0.00000000000E+00 -0.00000000000E+00 -0.74505805969E-08  0.93827000000E+00  0.93827000000E+00 0.  1.
     999902    2    1    2    0    0  0.19489720873E-02  0.19811722818E-01  0.12731490667E-01  0.10202996444E+01  0.10200259656E+01 0.  0.
     999903    2    3    3    0    0  0.48741750953E-01  0.10526568844E+00  0.62710835653E-01  0.13351337962E+00  0.20893783312E-01 0.  0.
         14    1    1    2    0    0 -0.19489720873E-02 -0.19811722818E-01 -0.12731490667E-01  0.23630355643E-01  0.00000000000E+00 0.  1.
     999901    1    3    3    0    0 -0.46792778865E-01 -0.85453965624E-01 -0.49979344987E-01  0.88678626473E+00  0.88000000000E+00 0.  1.
        -11    1    4    4    0    0  0.36136990951E-02  0.38756047576E-02  0.84275440430E-02  0.99681368863E-02  0.51100000000E-03 0.  1.
         11    1    4    4    0    0  0.45128051858E-01  0.10139008368E+00  0.54283291610E-01  0.12354524274E+00  0.51100000000E-03 0. -1.
</event>
<event>
 8    1  0.1088088E+005  0.1043930E+01  0.7957747E-01            NaN
         13   -1    0    0    0    0  0.00000000000E+00  0.00000000000E+00  0.74505805969E-08  0.10566000000E+00  0.10566000000E+00 0. -1.
     999900   -1    0    0    0    0 -0.00000000000E+00 -0.00000000000E+00 -0.74505805969E-08  0.93827000000E+00  0.93827000000E+00 0. -1.
     999902    2    1    2    0    0  0.15563683706E-01  0.19531054299E-01 -0.76549910097E-03  0.10189444778E+01  0.10186380969E+01 0.  0.
     999903    2    3    3    0    0  0.20198124127E-01  0.50492682712E-01  0.11683736802E+00  0.13056925590E+00  0.20973430666E-01 0.  0.
         14    1    1    2    0    0 -0.15563683706E-01 -0.19531054299E-01  0.76549910097E-03  0.24985522236E-01  0.00000000000E+00 0. -1.
     999901    1    3    3    0    0 -0.46344404209E-02 -0.30961628414E-01 -0.11760286712E+00  0.88837522187E+00  0.88000000000E+00 0. -1.
        -11    1    4    4    0    0  0.11428341692E-01  0.39493019589E-01  0.65490481212E-01  0.77327678360E-01  0.51100000000E-03 0.  1.
         11    1    4    4    0    0  0.87697824347E-02  0.10999663123E-01  0.51346886808E-01  0.53241577537E-01  0.51100000000E-03 0. -1.
</event>
<event>
 8    1  0.1088088E+005  0.1043930E+01  0.7957747E-01            NaN
         13   -1    0    0    0    0  0.00000000000E+00  0.00000000000E+00  0.74505805969E-08  0.10566000000E+00  0.10566000000E+00 0. -1.
     999900   -1    0    0    0    0 -0.00000000000E+00 -0.00000000000E+00 -0.74505805969E-08  0.93827000000E+00  0.93827000000E+00 0.  1.
     999902    2    1    2    0    0 -0.31768077099E-02  0.18262414774E-02 -0.22836310530E-01  0.10208015685E+01  0.10205395229E+01 0.  0.
     999903    2    3    3    0    0 -0.10308564665E+00  0.78321641575E-01 -0.13372746171E-01  0.13180051035E+00  0.20775324400E-01 0.  0.
         14    1    1    2    0    0  0.31768077099E-02 -0.18262414774E-02  0.22836310530E-01  0.23128431503E-01  0.00000000000E+00 0. -1.
     999901    1    3    3    0    0  0.99908838942E-01 -0.76495400098E-01 -0.94635643592E-02  0.88900105815E+00  0.88000000000E+00 0. -1.
        -11    1    4    4    0    0 -0.15645114431E-01  0.10006265100E-01 -0.92641519352E-02  0.20760071746E-01  0.51100000000E-03 0.  1.
         11    1    4    4    0    0 -0.87440532220E-01  0.68315376476E-01 -0.41085942359E-02  0.11104043860E+00  0.51100000000E-03 0. -1.
</event>
<event>
 8    1  0.1088088E+005  0.1043930E+01  0.7957747E-01            NaN
         13   -1    0    0    0    0  0.00000000000E+00  0.00000000000E+00  0.74505805969E-08  0.10566000000E+00  0.10566000000E+00 0.  1.
     999900   -1    0    0    0    0 -0.00000000000E+00 -0.00000000000E+00 -0.74505805969E-08  0.93827000000E+00  0.93827000000E+00 0. -1.
     999902    2    1    2    0    0 -0.11120816251E-01 -0.11472933303E-01  0.82698560354E-02  0.10259385778E+01  0.10257808120E+01 0.  0.
     999903    2    3    3    0    0  0.10804516391E+00  0.53414879154E-01  0.54901193741E-01  0.13431901732E+00  0.22372987758E-01 0.  0.
         14    1    1    2    0    0  0.11120816251E-01  0.11472933303E-01 -0.82698560354E-02  0.17991422164E-01  0.00000000000E+00 0.  1.
     999901    1    3    3    0    0 -0.11916598016E+00 -0.64887812456E-01 -0.46631337706E-01  0.89161956051E+00  0.88000000000E+00 0.  1.
        -11    1    4    4    0    0  0.40166738007E-01  0.19904415229E-01  0.32502453338E-01  0.55373488076E-01  0.51100000000E-03 0.  1.
         11    1    4    4    0    0  0.67878425903E-01  0.33510463924E-01  0.22398740403E-01  0.78945529247E-01  0.51100000000E-03 0. -1.
</event>
<event>
 8    1  0.1088088E+005  0.1043930E+01  0.7957747E-01            NaN
         13   -1    0    0    0    0  0.00000000000E+00  0.00000000000E+00  0.74505805969E-08  0.10566000000E+00  0.10566000000E+00 0.  1.
     999900   -1    0    0    0    0 -0.00000000000E+00 -0.00000000000E+00 -0.74505805969E-08  0.93827000000E+00  0.93827000000E+00 0.  1.
     999902    2    1    2    0    0  0.50463966575E-02  0.14410410063E-01  0.18903412315E-01  0.10196305137E+01  0.10193409240E+01 0.  0.
     999903    2    3    3    0    0  0.50221388915E-01 -0.46937984187E-01  0.11050307265E+00  0.13160185246E+00  0.19564157060E-01 0.  0.
         14    1    1    2    0    0 -0.50463966575E-02 -0.14410410063E-01 -0.18903412315E-01  0.24299486302E-01  0.00000000000E+00 0. -1.
     999901    1    3    3    0    0 -0.45174992257E-01  0.61348394251E-01 -0.91599660338E-01  0.88802866124E+00  0.88000000000E+00 0.  1.
        -11    1    4    4    0    0  0.30812802173E-01 -0.37171820963E-01  0.63104566589E-01  0.79458294072E-01  0.51100000000E-03 0.  1.
         11    1    4    4    0    0  0.19408586742E-01 -0.97661632250E-02  0.47398506064E-01  0.52143558390E-01  0.51100000000E-03 0. -1.
</event>
<event>
 8    1  0.1088088E+005  0.1043930E+01  0.7957747E-01            NaN
         13   -1    0    0    0    0  0.00000000000E+00  0.00000000000E+00  0.74505805969E-08  0.10566000000E+00  0.10566000000E+00 0.  1.
     999900   -1    0    0    0    0 -0.00000000000E+00 -0.00000000000E+00 -0.74505805969E-08  0.93827000000E+00  0.93827000000E+00 0. -1.
     999902    2    1    2    0    0 -0.45575291237E-02  0.74246487853E-02  0.23631405483E-01  0.10187438966E+01  0.10184325147E+01 0.  0.
     999903    2    3    3    0    0  0.24837300756E-01  0.51193128464E-01  0.11764292678E+00  0.13216739001E+00  0.19766963612E-01 0.  0.
         14    1    1    2    0    0  0.45575291237E-02 -0.74246487853E-02 -0.23631405483E-01  0.25186103438E-01  0.00000000000E+00 0. -1.
     999901    1    3    3    0    0 -0.29394829880E-01 -0.43768479679E-01 -0.94011521293E-01  0.88657650655E+00  0.88000000000E+00 0. -1.
        -11    1    4    4    0    0  0.12176991564E-01  0.24893382129E-01  0.35810120764E-01  0.45283390636E-01  0.51100000000E-03 0. -1.
         11    1    4    4    0    0  0.12660309193E-01  0.26299746335E-01  0.81832806012E-01  0.86883999372E-01  0.51100000000E-03 0.  1.
</event>
<event>
 8    1  0.1088088E+005  0.1043930E+01  0.7957747E-01            NaN
         13   -1    0    0    0    0  0.00000000000E+00  0.00000000000E+00  0.74505805969E-08  0.10566000000E+00  0.10566000000E+00 0. -1.
     999900   -1    0    0    0    0 -0.00000000000E+00 -0.00000000000E+00 -0.74505805969E-08  0.93827000000E+00  0.93827000000E+00 0.  1.
     999902    2    1    2    0    0  0.20042741187E-01 -0.56901568060E-03  0.12171355832E-01  0.10204741445E+01  0.10202045395E+01 0.  0.
     999903    2    3    3    0    0  0.95902900293E-02 -0.22688592831E-01 -0.12507842754E+00  0.12949937919E+00  0.22775650748E-01 0.  0.
         14    1    1    2    0    0 -0.20042741187E-01  0.56901568060E-03 -0.12171355832E-01  0.23455855472E-01  0.00000000000E+00 0. -1.
     999901    1    3    3    0    0  0.10452451157E-01  0.22119577150E-01  0.13724978338E+00  0.89097476534E+00  0.88000000000E+00 0. -1.
        -11    1    4    4    0    0  0.75506672632E-02 -0.56296791693E-02 -0.12729104834E-01  0.15842887822E-01  0.51100000000E-03 0. -1.
         11    1    4    4    0    0  0.20396227661E-02 -0.17058913662E-01 -0.11234932271E+00  0.11365649137E+00  0.51100000000E-03 0.  1.
</event>
<event>
 8    1  0.1088088E+005  0.1043930E+01  0.7957747E-01            NaN
         13   -1    0    0    0    0  0.00000000000E+00  0.00000000000E+00  0.74505805969E-08  0.10566000000E+00  0.10566000000E+00 0. -1.
     999900   -1    0    0    0    0 -0.00000000000E+00 -0.00000000000E+00 -0.74505805969E-08  0.93827000000E+00  0.93827000000E+00 0.  1.
     999902    2    1    2    0    0 -0.22150198037E-02 -0.19824955704E-01  0.12684029893E-01  0.10202906304E+01  0.10200167404E+01 0.  0.
     999903    2    3    3    0    0 -0.39263140533E-02 -0.11211577729E+00 -0.66475624470E-01  0.13192878116E+00  0.20020768982E-01 0.  0.
         14    1    1    2    0    0  0.22150198037E-02  0.19824955704E-01 -0.12684029893E-01  0.23639369613E-01  0.00000000000E+00 0.  1.
     999901    1    3    3    0    0  0.17112942496E-02  0.92290821589E-01  0.79159654363E-01  0.88836184922E+00  0.88000000000E+00 0.  1.
        -11    1    4    4    0    0 -0.80179447939E-02 -0.26039661951E-01 -0.10686093555E-01  0.29271234168E-01  0.51100000000E-03 0.  1.
         11    1    4    4    0    0  0.40916307406E-02 -0.86076115342E-01 -0.55789530915E-01  0.10265754700E+00  0.51100000000E-03 0. -1.
</event>
<event>
 8    1  0.1088088E+005  0.1043930E+01  0.7957747E-01            NaN
         13   -1    0    0    0    0  0.00000000000E+00  0.00000000000E+00  0.74505805969E-08  0.10566000000E+00  0.10566000000E+00 0. -1.
     999900   -1    0    0    0    0 -0.00000000000E+00 -0.00000000000E+00 -0.74505805969E-08  0.93827000000E+00  0.93827000000E+00 0.  1.
     999902    2    1    2    0    0 -0.11386786743E-01 -0.77014405180E-02 -0.18810977989E-01  0.10206314165E+01  0.10203654563E+01 0.  0.
     999903    2    3    3    0    0 -0.12603590089E+00  0.31055268581E-01 -0.14048459027E-01  0.13233575435E+00  0.21585056366E-01 0.  0.
         14    1    1    2    0    0  0.11386786743E-01  0.77014405180E-02  0.18810977989E-01  0.23298583461E-01  0.00000000000E+00 0. -1.
     999901    1    3    3    0    0  0.11464911415E+00 -0.38756709099E-01 -0.47625189617E-02  0.88829566219E+00  0.88000000000E+00 0. -1.
        -11    1    4    4    0    0 -0.10139364726E+00  0.32929964335E-01 -0.81263825913E-02  0.10691750779E+00  0.51100000000E-03 0.  1.
         11    1    4    4    0    0 -0.24642253631E-01 -0.18746957531E-02 -0.59220764357E-02  0.25418246566E-01  0.51100000000E-03 0. -1.
</event>
<event>
 8    1  0.1088088E+005  0.1043930E+01  0.7957747E-01            NaN
         13   -1    0    0    0    0  0.00000000000E+00  0.00000000000E+00  0.74505805969E-08  0.10566000000E+00  0.10566000000E+00 0. -1.
     999900   -1    0    0    0    0 -0.00000000000E+00 -0.00000000000E+00 -0.74505805969E-08  0.93827000000E+00  0.93827000000E+00 0.  1.
     999902    2    1    2    0    0 -0.16513749087E-01  0.10885499437E-01  0.12818550018E-01  0.10203606718E+01  0.10200884213E+01 0.  0.
     999903    2    3    3    0    0  0.53336969876E-02  0.74616486246E-01 -0.10449915850E+00  0.13002231236E+00  0.19739788257E-01 0.  0.
         14    1    1    2    0    0  0.16513749087E-01 -0.10885499437E-01 -0.12818550018E-01  0.23569328193E-01  0.00000000000E+00 0.  1.
     999901    1    3    3    0    0 -0.21847446075E-01 -0.63730986809E-01  0.11731770852E+00  0.89033835945E+00  0.88000000000E+00 0. -1.
        -11    1    4    4    0    0 -0.62837921623E-02  0.24276981642E-01 -0.26726808290E-01  0.36652984653E-01  0.51100000000E-03 0. -1.
         11    1    4    4    0    0  0.11617489150E-01  0.50339504604E-01 -0.77772350208E-01  0.93369327703E-01  0.51100000000E-03 0.  1.
</event>
<event>
 8    1  0.1088088E+005  0.1043930E+01  0.7957747E-01            NaN
         13   -1    0    0    0    0  0.00000000000E+00  0.00000000000E+00  0.74505805969E-08  0.10566000000E+00  0.10566000000E+00 0. -1.
     999900   -1    0    0    0    0 -0.00000000000E+00 -0.00000000000E+00 -0.74505805969E-08  0.93827000000E+00  0.93827000000E+00 0. -1.
     999902    2    1    2    0    0 -0.12409910316E-01 -0.15257555735E-01 -0.12474730184E-01  0.10206401358E+01  0.10203743769E+01 0.  0.
     999903    2    3    3    0    0  0.97625198243E-01 -0.84664296825E-01  0.49830217271E-02  0.13090433573E+00  0.20307440005E-01 0.  0.
         14    1    1    2    0    0  0.12409910316E-01  0.15257555735E-01  0.12474730184E-01  0.23289864196E-01  0.00000000000E+00 0. -1.
     999901    1    3    3    0    0 -0.11003510856E+00  0.69406741090E-01 -0.17457751912E-01  0.88973580007E+00  0.88000000000E+00 0. -1.
        -11    1    4    4    0    0  0.14742868217E-01 -0.23492392396E-01  0.26269979688E-02  0.27864079082E-01  0.51100000000E-03 0.  1.
         11    1    4    4    0    0  0.82882330026E-01 -0.61171904429E-01  0.23560237583E-02  0.10304025665E+00  0.51100000000E-03 0. -1.
</event>
<event>
 8    1  0.1088088E+005  0.1043930E+01  0.7957747E-01            NaN
         13   -1    0    0    0    0  0.00000000000E+00  0.00000000000E+00  0.74505805969E-08  0.10566000000E+00  0.10566000000E+00 0.  1.
     999900   -1    0    0    0    0 -0.00000000000E+00 -0.00000000000E+00 -0.74505805969E-08  0.93827000000E+00  0.93827000000E+00 0. -1.
     999902    2    1    2    0    0  0.15895937546E-01  0.10497152160E-01  0.37377770122E-02  0.10245175810E+01  0.10243336526E+01 0.  0.
     999903    2    3    3    0    0  0.74425616572E-01  0.51953462095E-01 -0.98805486204E-01  0.13566468554E+00  0.20100949547E-01 0.  0.
         14    1    1    2    0    0 -0.15895937546E-01 -0.10497152160E-01 -0.37377770122E-02  0.19412418987E-01  0.00000000000E+00 0.  1.
     999901    1    3    3    0    0 -0.58529679026E-01 -0.41456309935E-01  0.10254326322E+00  0.88885289547E+00  0.88000000000E+00 0.  1.
        -11    1    4    4    0    0  0.27655585602E-01  0.19426143737E-01 -0.23196257200E-01  0.40994316003E-01  0.51100000000E-03 0.  1.
         11    1    4    4    0    0  0.46770030970E-01  0.32527318358E-01 -0.75609229005E-01  0.94670369537E-01  0.51100000000E-03 0. -1.
</event>
<event>
 8    1  0.1088088E+005  0.1043930E+01  0.7957747E-01            NaN
         13   -1    0    0    0    0  0.00000000000E+00  0.00000000000E+00  0.74505805969E-08  0.10566000000E+00  0.10566000000E+00 0. -1.
     999900   -1    0    0    0    0 -0.00000000000E+00 -0.00000000000E+00 -0.74505805969E-08  0.93827000000E+00  0.93827000000E+00 0. -1.
     999902    2    1    2    0    0 -0.16965238096E-01  0.21080307430E-01 -0.70522549315E-02  0.10159669357E+01  0.10155820407E+01 0.  0.
     999903    2    3    3    0    0  0.69118814955E-01 -0.70515920004E-01  0.71613655283E-01  0.12356082944E+00  0.19719467397E-01 0.  0.
         14    1    1    2    0    0  0.16965238096E-01 -0.21080307430E-01  0.70522549315E-02  0.27963064293E-01  0.00000000000E+00 0. -1.
     999901    1    3    3    0    0 -0.86084053052E-01  0.91596227435E-01 -0.78665910215E-01  0.89240610627E+00  0.88000000000E+00 0.  1.
        -11    1    4    4    0    0  0.24600047573E-01 -0.33537059633E-01  0.39550745620E-01  0.57397032236E-01  0.51100000000E-03 0.  1.
         11    1    4    4    0    0  0.44518767382E-01 -0.36978860371E-01  0.32062909663E-01  0.66163797206E-01  0.51100000000E-03 0. -1.
</event>
<event>
 8    1  0.1088088E+005  0.1043930E+01  0.7957747E-01            NaN
         13   -1    0    0    0    0  0.00000000000E+00  0.00000000000E+00  0.74505805969E-08  0.10566000000E+00  0.10566000000E+00 0. -1.
     999900   -1    0    0    0    0 -0.00000000000E+00 -0.00000000000E+00 -0.74505805969E-08  0.93827000000E+00  0.93827000000E+00 0. -1.
     999902    2    1    2    0    0 -0.10133395017E-01  0.17314397071E-01  0.11884359786E-01  0.10206123662E+01  0.10203459658E+01 0.  0.
     999903    2    3    3    0    0  0.81558412561E-01  0.77338612285E-01 -0.64854365687E-01  0.13050050466E+00  0.13829582733E-01 0.  0.
         14    1    1    2    0    0  0.10133395017E-01 -0.17314397071E-01 -0.11884359786E-01  0.23317633842E-01  0.00000000000E+00 0.  1.
     999901    1    3    3    0    0 -0.91691807578E-01 -0.60024215214E-01  0.76738725473E-01  0.89011186150E+00  0.88000000000E+00 0.  1.
        -11    1    4    4    0    0  0.11270975804E-01  0.52147008584E-02 -0.54096340741E-02  0.13555562048E-01  0.51100000000E-03 0.  1.
         11    1    4    4    0    0  0.70287436757E-01  0.72123911426E-01 -0.59444731613E-01  0.11694494261E+00  0.51100000000E-03 0. -1.
</event>
<event>
 8    1  0.1088088E+005  0.1043930E+01  0.7957747E-01            NaN
         13   -1    0    0    0    0  0.00000000000E+00  0.00000000000E+00  0.74505805969E-08  0.10566000000E+00  0.10566000000E+00 0. -1.
     999900   -1    0    0    0    0 -0.00000000000E+00 -0.00000000000E+00 -0.74505805969E-08  0.93827000000E+00  0.93827000000E+00 0. -1.
     999902    2    1    2    0    0  0.23269565796E-01 -0.90760481369E-02 -0.77686219338E-02  0.10177728054E+01  0.10174366244E+01 0.  0.
     999903    2    3    3    0    0 -0.10476049740E+00 -0.62716012067E-01  0.25337386927E-01  0.12627689929E+00  0.19895027829E-01 0.  0.
         14    1    1    2    0    0 -0.23269565796E-01  0.90760481369E-02  0.77686219338E-02  0.26157194591E-01  0.00000000000E+00 0. -1.
     999901    1    3    3    0    0  0.12803006319E+00  0.53639963930E-01 -0.33106008861E-01  0.89149590612E+00  0.88000000000E+00 0. -1.
        -11    1    4    4    0    0 -0.40934621508E-01 -0.33729694225E-01  0.49649074855E-02  0.53275200026E-01  0.51100000000E-03 0. -1.
         11    1    4    4    0    0 -0.63825875890E-01 -0.28986317841E-01  0.20372479442E-01  0.73001699259E-01  0.51100000000E-03 0.  1.
</event>
<event>
 8    1  0.1088088E+005  0.1043930E+01  0.7957747E-01            NaN
         13   -1    0    0    0    0  0.00000000000E+00  0.00000000000E+00  0.74505805969E-08  0.10566000000E+00  0.10566000000E+00 0.  1.
     999900   -1    0    0    0    0 -0.00000000000E+00 -0.00000000000E+00 -0.74505805969E-08  0.93827000000E+00  0.93827000000E+00 0. -1.
     999902    2    1    2    0    0 -0.72057458751E-02  0.18919759800E-01 -0.12534043592E-01  0.10201186092E+01  0.10198406711E+01 0.  0.
     999903    2    3    3    0    0  0.20388366926E-01 -0.84349466004E-01  0.91022832689E-01  0.12762211355E+00  0.21719343368E-01 0.  0.
         14    1    1    2    0    0  0.72057458751E-02 -0.18919759800E-01  0.12534043592E-01  0.23811390831E-01  0.00000000000E+00 0. -1.
     999901    1    3    3    0    0 -0.27594112801E-01  0.10326922580E+00 -0.10355687628E+00  0.89249649561E+00  0.88000000000E+00 0. -1.
        -11    1    4    4    0    0  0.18641730909E-01 -0.31730833245E-01  0.37484447342E-01  0.52532892775E-01  0.51100000000E-03 0. -1.
         11    1    4    4    0    0  0.17466360169E-02 -0.52618632759E-01  0.53538385347E-01  0.75089220780E-01  0.51100000000E-03 0.  1.
</event>
<event>
 8    1  0.1088088E+005  0.1043930E+01  0.7957747E-01            NaN
         13   -1    0    0    0    0  0.00000000000E+00  0.00000000000E+00  0.74505805969E-08  0.10566000000E+00  0.10566000000E+00 0.  1.
     999900   -1    0    0    0    0 -0.00000000000E+00 -0.00000000000E+00 -0.74505805969E-08  0.93827000000E+00  0.93827000000E+00 0.  1.
     999902    2    1    2    0    0 -0.15429755884E-01  0.13909321933E-01  0.11364098299E-01  0.10202511205E+01  0.10199763034E+01 0.  0.
     999903    2    3    3    0    0  0.30045393873E-01 -0.44677527555E-01 -0.11460969868E+00  0.12819181436E+00  0.19973759729E-01 0.  0.
         14    1    1    2    0    0  0.15429755884E-01 -0.13909321933E-01 -0.11364098299E-01  0.23678879480E-01  0.00000000000E+00 0.  1.
     999901    1    3    3    0    0 -0.45475149757E-01  0.58586849488E-01  0.12597379697E+00  0.89205930616E+00  0.88000000000E+00 0. -1.
        -11    1    4    4    0    0  0.11905429603E-02 -0.15164688402E-02 -0.21434629398E-01  0.21527227613E-01  0.51100000000E-03 0. -1.
         11    1    4    4    0    0  0.28854850912E-01 -0.43161058715E-01 -0.93175069277E-01  0.10666458675E+00  0.51100000000E-03 0.  1.
</event>
<event>
 8    1  0.1088088E+005  0.1043930E+01  0.7957747E-01            NaN
         13   -1    0    0    0    0  0.00000000000E+00  0.00000000000E+00  0.74505805969E-08  0.10566000000E+00  0.10566000000E+00 0.  1.
     999900   -1    0    0    0    0 -0.00000000000E+00 -0.00000000000E+00 -0.74505805969E-08  0.93827000000E+00  0.93827000000E+00 0.  1.
     999902    2    1    2    0    0 -0.51962623814E-02 -0.15281751265E-01  0.16573745926E-01  0.10207951320E+01  0.10205329389E+01 0.  0.
     999903    2    3    3    0    0 -0.11450630348E+00 -0.50560182541E-01  0.37957355845E-01  0.13307304057E+00  0.24487704443E-01 0.  0.
         14    1    1    2    0    0  0.51962623814E-02  0.15281751265E-01 -0.16573745926E-01  0.23134868024E-01  0.00000000000E+00 0. -1.
     999901    1    3    3    0    0  0.10931004110E+00  0.35278431276E-01 -0.21383609918E-01  0.88772209141E+00  0.88000000000E+00 0. -1.
        -11    1    4    4    0    0 -0.42229455206E-01 -0.31789779179E-01  0.14970356955E-01  0.54938963000E-01  0.51100000000E-03 0. -1.
         11    1    4    4    0    0 -0.72276848273E-01 -0.18770403362E-01  0.22986998890E-01  0.78134077569E-01  0.51100000000E-03 0.  1.
</event>
<event>
 8    1  0.1088088E+005  0.1043930E+01  0.7957747E-01            NaN
         13   -1    0    0    0    0  0.00000000000E+00  0.00000000000E+00  0.74505805969E-08  0.10566000000E+00  0.10566000000E+00 0.  1.
     999900   -1    0    0    0    0 -0.00000000000E+00 -0.00000000000E+00 -0.74505805969E-08  0.93827000000E+00  0.93827000000E+00 0.  1.
     999902    2    1    2    0    0  0.24227558903E-02  0.21758971059E-01 -0.64689012682E-02  0.10211008684E+01  0.10208456368E+01 0.  0.
     999903    2    3    3    0    0  0.71778338827E-02 -0.78132903813E-01 -0.10152876498E+00  0.13034985090E+00  0.22950415066E-01 0.  0.
         14    1    1    2    0    0 -0.24227558903E-02 -0.21758971059E-01  0.64689012682E-02  0.22829131636E-01  0.00000000000E+00 0.  1.
     999901    1    3    3    0    0 -0.47550779924E-02  0.99891874872E-01  0.95059863715E-01  0.89075101747E+00  0.88000000000E+00 0.  1.
        -11    1    4    4    0    0  0.98430439652E-02 -0.74540930554E-01 -0.10085421858E+00  0.12579773594E+00  0.51100000000E-03 0.  1.
         11    1    4    4    0    0 -0.26652100825E-02 -0.35919732590E-02 -0.67454640471E-03  0.45521149512E-02  0.51100000000E-03 0. -1.
</event>
<event>
 8    1  0.1088088E+005  0.1043930E+01  0.7957747E-01            NaN
         13   -1    0    0    0    0  0.00000000000E+00  0.00000000000E+00  0.74505805969E-08  0.10566000000E+00  0.10566000000E+00 0.  1.
     999900   -1    0    0    0    0 -0.00000000000E+00 -0.00000000000E+00 -0.74505805969E-08  0.93827000000E+00  0.93827000000E+00 0. -1.
     999902    2    1    2    0    0  0.12305509585E-01  0.52450023638E-02  0.19886329400E-01  0.10199633208E+01  0.10196817023E+01 0.  0.
     999903    2    3    3    0    0  0.85895045715E-01 -0.74912107536E-01  0.63793521753E-01  0.13217481914E+00  0.20267872704E-01 0.  0.
         14    1    1    2    0    0 -0.12305509585E-01 -0.52450023638E-02 -0.19886329400E-01  0.23966679222E-01  0.00000000000E+00 0. -1.
     999901    1    3    3    0    0 -0.73589536129E-01  0.80157109900E-01 -0.43907192353E-01  0.88778850164E+00  0.88000000000E+00 0. -1.
        -11    1    4    4    0    0  0.36310330870E-01 -0.40796821575E-01  0.38830852930E-01  0.67014304732E-01  0.51100000000E-03 0.  1.
         11    1    4    4    0    0  0.49584714845E-01 -0.34115285961E-01  0.24962668822E-01  0.65160514410E-01  0.51100000000E-03 0. -1.
</event>
<event>
 8    1  0.1088088E+005  0.1043930E+01  0.7957747E-01            NaN
         13   -1    0    0    0    0  0.00000000000E+00  0.00000000000E+00  0.74505805969E-08  0.10566000000E+00  0.10566000000E+00 0.  1.
     999900   -1    0    0    0    0 -0.00000000000E+00 -0.00000000000E+00 -0.74505805969E-08  0.93827000000E+00  0.93827000000E+00 0. -1.
     999902    2    1    2    0    0 -0.72542861279E-02  0.22428902777E-01  0.34563641964E-02  0.10201050803E+01  0.10198268225E+01 0.  0.
     999903    2    3    3    0    0 -0.11558713959E+00 -0.40091562794E-01 -0.39315220157E-01  0.13023192965E+00  0.21141161717E-01 0.  0.
         14    1    1    2    0    0  0.72542861279E-02 -0.22428902777E-01 -0.34563641964E-02  0.23824919737E-01  0.00000000000E+00 0.  1.
     999901    1    3    3    0    0  0.10833285346E+00  0.62520465571E-01  0.42771584353E-01  0.88987315061E+00  0.88000000000E+00 0. -1.
        -11    1    4    4    0    0 -0.65123329260E-01 -0.13755584762E-01 -0.14446168119E-01  0.68111797953E-01  0.51100000000E-03 0.  1.
         11    1    4    4    0    0 -0.50463810329E-01 -0.26335978031E-01 -0.24869052038E-01  0.62120131697E-01  0.51100000000E-03 0. -1.
</event>
<event>
 8    1  0.1088088E+005  0.1043930E+01  0.7957747E-01            NaN
         13   -1    0    0    0    0  0.00000000000E+00  0.00000000000E+00  0.74505805969E-08  0.10566000000E+00  0.10566000000E+00 0.  1.
     999900   -1    0    0    0    0 -0.00000000000E+00 -0.00000000000E+00 -0.74505805969E-08  0.93827000000E+00  0.93827000000E+00 0.  1.
     999902    2    1    2    0    0  0.15472391918E-01 -0.10921653414E-01 -0.14533304236E-01  0.10200575398E+01  0.10197781573E+01 0.  0.
     999903    2    3    3    0    0  0.66145930990E-01 -0.20027389225E-01 -0.11217782723E+00  0.13316116767E+00  0.19278255809E-01 0.  0.
         14    1    1    2    0    0 -0.15472391918E-01  0.10921653414E-01  0.14533304236E-01  0.23872460221E-01  0.00000000000E+00 0.  1.
     999901    1    3    3    0    0 -0.50673539072E-01  0.91057358110E-02  0.97644522997E-01  0.88689637211E+00  0.88000000000E+00 0. -1.
        -11    1    4    4    0    0  0.33846777285E-01 -0.18193447298E-01 -0.49932496882E-01  0.63008897967E-01  0.51100000000E-03 0.  1.
         11    1    4    4    0    0  0.32299153705E-01 -0.18339419267E-02 -0.62245330352E-01  0.70152269704E-01  0.51100000000E-03 0. -1.
</event>
<event>
 8    1  0.1088088E+005  0.1043930E+01  0.7957747E-01            NaN
         13   -1    0    0    0    0  0.00000000000E+00  0.00000000000E+00  0.74505805969E-08  0.10566000000E+00  0.10566000000E+00 0.  1.
     999900   -1    0    0    0    0 -0.00000000000E+00 -0.00000000000E+00 -0.74505805969E-08  0.93827000000E+00  0.93827000000E+00 0.  1.
     999902    2    1    2    0    0 -0.17547869632E-01 -0.22316443954E-01 -0.20072850431E-01  0.10091611817E+01  0.10085620556E+01 0.  0.
     999903    2    3    3    0    0 -0.64632598593E-01  0.97783000652E-01  0.81041275923E-02  0.11931018837E+00  0.20745027052E-01 0.  0.
         14    1    1    2    0    0  0.17547869632E-01  0.22316443954E-01  0.20072850431E-01  0.34768818269E-01  0.00000000000E+00 0.  1.
     999901    1    3    3    0    0  0.47084728961E-01 -0.12009944461E+00 -0.28176978023E-01  0.88985099336E+00  0.88000000000E+00 0. -1.
        -11    1    4    4    0    0 -0.22010813346E-01  0.49043297882E-01  0.92631825132E-02  0.54550789568E-01  0.51100000000E-03 0. -1.
         11    1    4    4    0    0 -0.42621785247E-01  0.48739702770E-01 -0.11590549209E-02  0.64759398801E-01  0.51100000000E-03 0.  1.
</event>
<event>
 8    1  0.1088088E+005  0.1043930E+01  0.7957747E-01            NaN
         13   -1    0    0    0    0  0.00000000000E+00  0.00000000000E+00  0.74505805969E-08  0.10566000000E+00  0.10566000000E+00 0.  1.
     999900   -1    0    0    0    0 -0.00000000000E+00 -0.00000000000E+00 -0.74505805969E-08  0.93827000000E+00  0.93827000000E+00 0.  1.
     999902    2    1    2    0    0 -0.21433292812E-01  0.60598511135E-02 -0.46754736437E-02  0.10211710921E+01  0.10209174459E+01 0.  0.
     999903    2    3    3    0    0 -0.99991004323E-01  0.41691849931E-01 -0.76429476309E-01  0.13404675452E+00  0.19765025991E-01 0.  0.
         14    1    1    2    0    0  0.21433292812E-01 -0.60598511135E-02  0.46754736437E-02  0.22758907928E-01  0.00000000000E+00 0.  1.
     999901    1    3    3    0    0  0.78557711512E-01 -0.35631998818E-01  0.71754002666E-01  0.88712433755E+00  0.88000000000E+00 0. -1.
        -11    1    4    4    0    0 -0.55017170011E-01  0.30176013386E-01 -0.52490863273E-01  0.81810956650E-01  0.51100000000E-03 0.  1.
         11    1    4    4    0    0 -0.44973834313E-01  0.11515836545E-01 -0.23938613037E-01  0.52235797871E-01  0.51100000000E-03 0. -1.
</event>
<event>
 8    1  0.1088088E+005  0.1043930E+01  0.7957747E-01            NaN
         13   -1    0    0    0    0  0.00000000000E+00  0.00000000000E+00  0.74505805969E-08  0.10566000000E+00  0.10566000000E+00 0.  1.
     999900   -1    0    0    0    0 -0.00000000000E+00 -0.00000000000E+00 -0.74505805969E-08  0.93827000000E+00  0.93827000000E+00 0.  1.
     999902    2    1    2    0    0 -0.16205499840E-01 -0.55818036129E-02 -0.16627603196E-01  0.10200500514E+01  0.10197704915E+01 0.  0.
     999903    2    3    3    0    0 -0.12045420045E+00 -0.40483625067E-01 -0.34303305384E-01  0.13303350186E+00  0.19314697873E-01 0.  0.
         14    1    1    2    0    0  0.16205499840E-01  0.55818036129E-02  0.16627603196E-01  0.23879948590E-01  0.00000000000E+00 0.  1.
     999901    1    3    3    0    0  0.10424870061E+00  0.34901821454E-01  0.17675702188E-01  0.88701654955E+00  0.88000000000E+00 0. -1.
        -11    1    4    4    0    0 -0.38624236516E-01 -0.69805545982E-02 -0.17719883767E-01  0.43067565414E-01  0.51100000000E-03 0. -1.
         11    1    4    4    0    0 -0.81829963932E-01 -0.33503070469E-01 -0.16583421617E-01  0.89965936451E-01  0.51100000000E-03 0.  1.
</event>
<event>
 8    1  0.1088088E+005  0.1043930E+01  0.7957747E-01            NaN
         13   -1    0    0    0    0  0.00000000000E+00  0.00000000000E+00  0.74505805969E-08  0.10566000000E+00  0.10566000000E+00 0.  1.
     999900   -1    0    0    0    0 -0.00000000000E+00 -0.00000000000E+00 -0.74505805969E-08  0.93827000000E+00  0.93827000000E+00 0.  1.
     999902    2    1    2    0    0 -0.15504161088E-03  0.58038599807E-02  0.23854521031E-01  0.10193790937E+01  0.10190834066E+01 0.  0.
     999903    2    3    3    0    0 -0.10353024194E+00 -0.18947874884E-01 -0.70464568618E-01  0.12797841434E+00  0.18321739737E-01 0.  0.
         14    1    1    2    0    0  0.15504161088E-03 -0.58038599807E-02 -0.23854521031E-01  0.24550906342E-01  0.00000000000E+00 0. -1.
     999901    1    3    3    0    0  0.10337520033E+00  0.24751734865E-01  0.94319089650E-01  0.89140067932E+00  0.88000000000E+00 0. -1.
        -11    1    4    4    0    0 -0.25168115172E-01 -0.11425583922E-01 -0.23691212759E-01  0.36407590861E-01  0.51100000000E-03 0.  1.
         11    1    4    4    0    0 -0.78362126767E-01 -0.75222909620E-02 -0.46773355859E-01  0.91570823477E-01  0.51100000000E-03 0. -1.
</event>
<event>
 8    1  0.1088088E+005  0.1043930E+01  0.7957747E-01            NaN
         13   -1    0    0    0    0  0.00000000000E+00  0.00000000000E+00  0.74505805969E-08  0.10566000000E+00  0.10566000000E+00 0.  1.
     999900   -1    0    0    0    0 -0.00000000000E+00 -0.00000000000E+00 -0.74505805969E-08  0.93827000000E+00  0.93827000000E+00 0.  1.
     999902    2    1    2    0    0  0.48537643003E-02 -0.17005479720E-01 -0.15603136971E-01  0.10203460383E+01  0.10200734457E+01 0.  0.
     999903    2    3    3    0    0 -0.88479095871E-01  0.76753532600E-01 -0.51747048133E-01  0.12972369545E+00  0.20756324309E-01 0.  0.
         14    1    1    2    0    0 -0.48537643003E-02  0.17005479720E-01  0.15603136971E-01  0.23583961748E-01  0.00000000000E+00 0. -1.
     999901    1    3    3    0    0  0.93332860171E-01 -0.93759012319E-01  0.36143911162E-01  0.89062234280E+00  0.88000000000E+00 0. -1.
        -11    1    4    4    0    0 -0.53538387298E-01  0.45234106848E-01 -0.19762432302E-01  0.72823747420E-01  0.51100000000E-03 0. -1.
         11    1    4    4    0    0 -0.34940708573E-01  0.31519425751E-01 -0.31984615831E-01  0.56899948033E-01  0.51100000000E-03 0.  1.
</event>
<event>
 8    1  0.1088088E+005  0.1043930E+01  0.7957747E-01            NaN
         13   -1    0    0    0    0  0.00000000000E+00  0.00000000000E+00  0.74505805969E-08  0.10566000000E+00  0.10566000000E+00 0.  1.
     999900   -1    0    0    0    0 -0.00000000000E+00 -0.00000000000E+00 -0.74505805969E-08  0.93827000000E+00  0.93827000000E+00 0.  1.
     999902    2    1    2    0    0 -0.72904531425E-02 -0.23107734909E-01  0.23472195090E-02  0.10195860570E+01  0.10192953940E+01 0.  0.
     999903    2    3    3    0    0  0.63465569729E-01 -0.70396074388E-02 -0.11081154091E+00  0.12937849441E+00  0.19548979616E-01 0.  0.
         14    1    1    2    0    0  0.72904531425E-02  0.23107734909E-01 -0.23472195090E-02  0.24343942965E-01  0.00000000000E+00 0.  1.
     999901    1    3    3    0    0 -0.70756022871E-01 -0.16068127470E-01  0.11315876042E+00  0.89020756262E+00  0.88000000000E+00 0.  1.
        -11    1    4    4    0    0  0.48267298779E-02 -0.57851598578E-02 -0.79226459332E-02  0.10945082708E-01  0.51100000000E-03 0. -1.
         11    1    4    4    0    0  0.58638839851E-01 -0.12544475810E-02 -0.10288889497E+00  0.11843341170E+00  0.51100000000E-03 0.  1.
</event>
<event>
 8    1  0.1088088E+005  0.1043930E+01  0.7957747E-01            NaN
         13   -1    0    0    0    0  0.00000000000E+00  0.00000000000E+00  0.74505805969E-08  0.10566000000E+00  0.10566000000E+00 0. -1.
     999900   -1    0    0    0    0 -0.00000000000E+00 -0.00000000000E+00 -0.74505805969E-08  0.93827000000E+00  0.93827000000E+00 0.  1.
     999902    2    1    2    0    0 -0.94710095599E-02  0.10426065857E-01 -0.19598530608E-01  0.10197948540E+01  0.10195092147E+01 0.  0.
     999903    2    3    3    0    0 -0.81367760193E-01  0.72336617481E-01  0.70616434072E-01  0.13010906731E+00  0.94015960070E-02 0.  0.
         14    1    1    2    0    0  0.94710095599E-02 -0.10426065857E-01  0.19598530608E-01  0.24135146019E-01  0.00000000000E+00 0. -1.
     999901    1    3    3    0    0  0.71896750633E-01 -0.61910551624E-01 -0.90214964681E-01  0.88968578667E+00  0.88000000000E+00 0.  1.
        -11    1    4    4    0    0 -0.41465643758E-01  0.39415499657E-01  0.32002041662E-01  0.65554351625E-01  0.51100000000E-03 0.  1.
         11    1    4    4    0    0 -0.39902116435E-01  0.32921117825E-01  0.38614392410E-01  0.64554715684E-01  0.51100000000E-03 0. -1.
</event>
<event>
 8    1  0.1088088E+005  0.1043930E+01  0.7957747E-01            NaN
         13   -1    0    0    0    0  0.00000000000E+00  0.00000000000E+00  0.74505805969E-08  0.10566000000E+00  0.10566000000E+00 0.  1.
     999900   -1    0    0    0    0 -0.00000000000E+00 -0.00000000000E+00 -0.74505805969E-08  0.93827000000E+00  0.93827000000E+00 0. -1.
     999902    2    1    2    0    0  0.19101001664E-01  0.15151870653E-01 -0.56528467589E-02  0.10189023728E+01  0.10185949455E+01 0.  0.
     999903    2    3    3    0    0 -0.10527555359E+00  0.68233302040E-01  0.18060032315E-01  0.12825683918E+00  0.19619539651E-01 0.  0.
         14    1    1    2    0    0 -0.19101001664E-01 -0.15151870653E-01  0.56528467589E-02  0.25027627242E-01  0.00000000000E+00 0. -1.
     999901    1    3    3    0    0  0.12437655526E+00 -0.53081431387E-01 -0.23712879073E-01  0.89064553358E+00  0.88000000000E+00 0.  1.
        -11    1    4    4    0    0 -0.33151485079E-01  0.11512108907E-01  0.24659161427E-02  0.35183681982E-01  0.51100000000E-03 0. -1.
         11    1    4    4    0    0 -0.72124068516E-01  0.56721193133E-01  0.15594116172E-01  0.93073157193E-01  0.51100000000E-03 0.  1.
</event>
<event>
 8    1  0.1088088E+005  0.1043930E+01  0.7957747E-01            NaN
         13   -1    0    0    0    0  0.00000000000E+00  0.00000000000E+00  0.74505805969E-08  0.10566000000E+00  0.10566000000E+00 0. -1.
     999900   -1    0    0    0    0 -0.00000000000E+00 -0.00000000000E+00 -0.74505805969E-08  0.93827000000E+00  0.93827000000E+00 0. -1.
     999902    2    1    2    0    0  0.70703983039E-02  0.48362567115E-02 -0.21562237885E-01  0.10207284911E+01  0.10204647679E+01 0.  0.
     999903    2    3    3    0    0  0.10283881859E+00  0.18889668962E-01  0.74063174196E-01  0.13027169366E+00  0.23509959500E-01 0.  0.
         14    1    1    2    0    0 -0.70703983039E-02 -0.48362567115E-02  0.21562237885E-01  0.23201508868E-01  0.00000000000E+00 0. -1.
     999901    1    3    3    0    0 -0.95768420287E-01 -0.14053412251E-01 -0.95625412080E-01  0.89045679747E+00  0.88000000000E+00 0. -1.
        -11    1    4    4    0    0  0.54604409469E-01  0.18260555472E-01  0.29952669360E-01  0.64903874633E-01  0.51100000000E-03 0.  1.
         11    1    4    4    0    0  0.48234409122E-01  0.62911349059E-03  0.44110504835E-01  0.65367819032E-01  0.51100000000E-03 0. -1.
</event>
<event>
 8    1  0.1088088E+005  0.1043930E+01  0.7957747E-01            NaN
         13   -1    0    0    0    0  0.00000000000E+00  0.00000000000E+00  0.74505805969E-08  0.10566000000E+00  0.10566000000E+00 0. -1.
     999900   -1    0    0    0    0 -0.00000000000E+00 -0.00000000000E+00 -0.74505805969E-08  0.93827000000E+00  0.93827000000E+00 0.  1.
     999902    2    1    2    0    0  0.11169676708E-01  0.12541358553E-01  0.16131365847E-01  0.10206433447E+01  0.10203776598E+01 0.  0.
     999903    2    3    3    0    0 -0.86302006603E-01 -0.33538749064E-01  0.90276278991E-01  0.13096836272E+00  0.20736958641E-01 0.  0.
         14    1    1    2    0    0 -0.11169676708E-01 -0.12541358553E-01 -0.16131365847E-01  0.23286655324E-01  0.00000000000E+00 0.  1.
     999901    1    3    3    0    0  0.97471683311E-01  0.46080107617E-01 -0.74144913144E-01  0.88967498195E+00  0.88000000000E+00 0.  1.
        -11    1    4    4    0    0 -0.20845598742E-01 -0.12280601703E-01  0.12937880865E-01  0.27440882774E-01  0.51100000000E-03 0.  1.
         11    1    4    4    0    0 -0.65456407861E-01 -0.21258147361E-01  0.77338398125E-01  0.10352747995E+00  0.51100000000E-03 0. -1.
</event>
<event>
 8    1  0.1088088E+005  0.1043930E+01  0.7957747E-01            NaN
         13   -1    0    0    0    0  0.00000000000E+00  0.00000000000E+00  0.74505805969E-08  0.10566000000E+00  0.10566000000E+00 0.  1.
     999900   -1    0    0    0    0 -0.00000000000E+00 -0.00000000000E+00 -0.74505805969E-08  0.93827000000E+00  0.93827000000E+00 0.  1.
     999902    2    1    2    0    0  0.19576350390E-01  0.14198651507E-02 -0.12785503356E-01  0.10205052565E+01  0.10202363745E+01 0.  0.
     999903    2    3    3    0    0  0.45765439071E-01 -0.10664732852E+00 -0.59173395706E-01  0.13229569606E+00  0.23076662316E-01 0.  0.
         14    1    1    2    0    0 -0.19576350390E-01 -0.14198651507E-02  0.12785503356E-01  0.23424743493E-01  0.00000000000E+00 0. -1.
     999901    1    3    3    0    0 -0.26189088681E-01  0.10806719367E+00  0.46387892351E-01  0.88820956045E+00  0.88000000000E+00 0.  1.
        -11    1    4    4    0    0  0.74216699878E-02 -0.33515284000E-01 -0.83469595948E-02  0.35331123708E-01  0.51100000000E-03 0.  1.
         11    1    4    4    0    0  0.38343769083E-01 -0.73132044517E-01 -0.50826436111E-01  0.96964572352E-01  0.51100000000E-03 0. -1.
</event>
<event>
 8    1  0.1088088E+005  0.1043930E+01  0.7957747E-01            NaN
         13   -1    0    0    0    0  0.00000000000E+00  0.00000000000E+00  0.74505805969E-08  0.10566000000E+00  0.10566000000E+00 0.  1.
     999900   -1    0    0    0    0 -0.00000000000E+00 -0.00000000000E+00 -0.74505805969E-08  0.93827000000E+00  0.93827000000E+00 0. -1.
     999902    2    1    2    0    0  0.21685582986E-01 -0.85323808919E-04 -0.89394212450E-02  0.10204739764E+01  0.10202043675E+01 0.  0.
     999903    2    3    3    0    0 -0.91064427720E-01  0.88120758940E-01 -0.10737314846E-01  0.12890451174E+00  0.21049585836E-01 0.  0.
         14    1    1    2    0    0 -0.21685582986E-01  0.85323808919E-04  0.89394212450E-02  0.23456023572E-01  0.00000000000E+00 0. -1.
     999901    1    3    3    0    0  0.11275001071E+00 -0.88206082749E-01  0.17978936015E-02  0.89156946469E+00  0.88000000000E+00 0.  1.
        -11    1    4    4    0    0 -0.57198642185E-01  0.60056046447E-01  0.24819270049E-02  0.82974902623E-01  0.51100000000E-03 0. -1.
         11    1    4    4    0    0 -0.33865785536E-01  0.28064712493E-01 -0.13219241851E-01  0.45929609114E-01  0.51100000000E-03 0.  1.
</event>
<event>
 8    1  0.1088088E+005  0.1043930E+01  0.7957747E-01            NaN
         13   -1    0    0    0    0  0.00000000000E+00  0.00000000000E+00  0.74505805969E-08  0.10566000000E+00  0.10566000000E+00 0.  1.
     999900   -1    0    0    0    0 -0.00000000000E+00 -0.00000000000E+00 -0.74505805969E-08  0.93827000000E+00  0.93827000000E+00 0. -1.
     999902    2    1    2    0    0  0.70771845505E-02 -0.75195756338E-02 -0.23552320038E-01  0.10182134229E+01  0.10178886148E+01 0.  0.
     999903    2    3    3    0    0 -0.30215544552E-01  0.67493250962E-01  0.99709709076E-01  0.12568263932E+00  0.19641325960E-01 0.  0.
         14    1    1    2    0    0 -0.70771845505E-02  0.75195756338E-02  0.23552320038E-01  0.25716577106E-01  0.00000000000E+00 0.  1.
     999901    1    3    3    0    0  0.37292729103E-01 -0.75012826596E-01 -0.12326202911E+00  0.89253078357E+00  0.88000000000E+00 0.  1.
        -11    1    4    4    0    0 -0.21079747497E-01  0.61729433718E-01  0.80225851498E-01  0.10339887384E+00  0.51100000000E-03 0. -1.
         11    1    4    4    0    0 -0.91357970556E-02  0.57638172438E-02  0.19483857578E-01  0.22283765485E-01  0.51100000000E-03 0.  1.
</event>
<event>
 8    1  0.1088088E+005  0.1043930E+01  0.7957747E-01            NaN
         13   -1    0    0    0    0  0.00000000000E+00  0.00000000000E+00  0.74505805969E-08  0.10566000000E+00  0.10566000000E+00 0.  1.
     999900   -1    0    0    0    0 -0.00000000000E+00 -0.00000000000E+00 -0.74505805969E-08  0.93827000000E+00  0.93827000000E+00 0. -1.
     999902    2    1    2    0    0 -0.69744245672E-02  0.21942364345E-01 -0.46958725941E-03  0.10209010950E+01  0.10206413255E+01 0.  0.
     999903    2    3    3    0    0 -0.49608779317E-01  0.73480411803E-01 -0.96221743951E-01  0.13318360955E+00  0.24876654537E-01 0.  0.
         14    1    1    2    0    0  0.69744245672E-02 -0.21942364345E-01  0.46958725941E-03  0.23028904952E-01  0.00000000000E+00 0. -1.
     999901    1    3    3    0    0  0.42634354749E-01 -0.51538047458E-01  0.95752156691E-01  0.88771748549E+00  0.88000000000E+00 0.  1.
        -11    1    4    4    0    0 -0.27747214605E-01  0.20746073989E-01 -0.30844673150E-01  0.46389249693E-01  0.51100000000E-03 0. -1.
         11    1    4    4    0    0 -0.21861564711E-01  0.52734337814E-01 -0.65377070800E-01  0.86794359861E-01  0.51100000000E-03 0.  1.
</event>
<event>
 8    1  0.1088088E+005  0.1043930E+01  0.7957747E-01            NaN
         13   -1    0    0    0    0  0.00000000000E+00  0.00000000000E+00  0.74505805969E-08  0.10566000000E+00  0.10566000000E+00 0.  1.
     999900   -1    0    0    0    0 -0.00000000000E+00 -0.00000000000E+00 -0.74505805969E-08  0.93827000000E+00  0.93827000000E+00 0. -1.
     999902    2    1    2    0    0 -0.29699218948E-02 -0.78576576776E-02  0.20980489090E-01  0.10213303508E+01  0.10210802816E+01 0.  0.
     999903    2    3    3    0    0 -0.81848925883E-01 -0.26670940117E-01  0.10085543533E+00  0.13399960984E+00  0.19325912288E-01 0.  0.
         14    1    1    2    0    0  0.29699218948E-02  0.78576576776E-02 -0.20980489090E-01  0.22599649172E-01  0.00000000000E+00 0. -1.
     999901    1    3    3    0    0  0.78879003988E-01  0.18813282440E-01 -0.79874946243E-01  0.88733074099E+00  0.88000000000E+00 0. -1.
        -11    1    4    4    0    0 -0.57347133412E-01 -0.27453990379E-01  0.75928836492E-01  0.99034663781E-01  0.51100000000E-03 0. -1.
         11    1    4    4    0    0 -0.24501792471E-01  0.78305026120E-03  0.24926598842E-01  0.34964946058E-01  0.51100000000E-03 0.  1.
</event>
<event>
 8    1  0.1088088E+005  0.1043930E+01  0.7957747E-01            NaN
         13   -1    0    0    0    0  0.00000000000E+00  0.00000000000E+00  0.74505805969E-08  0.10566000000E+00  0.10566000000E+00 0.  1.
     999900   -1    0    0    0    0 -0.00000000000E+00 -0.00000000000E+00 -0.74505805969E-08  0.93827000000E+00  0.93827000000E+00 0.  1.
     999902    2    1    2    0    0  0.17198184319E-01 -0.11311577275E-01  0.11702597328E-01  0.10202513153E+01  0.10199765028E+01 0.  0.
     999903    2    3    3    0    0 -0.69287068318E-01  0.16203591889E-01  0.10750525672E+00  0.13041147972E+00  0.19660101608E-01 0.  0.
         14    1    1    2    0    0 -0.17198184319E-01  0.11311577275E-01 -0.11702597328E-01  0.23678684687E-01  0.00000000000E+00 0. -1.
     999901    1    3    3    0    0  0.86485252636E-01 -0.27515169163E-01 -0.95802659390E-01  0.88983983559E+00  0.88000000000E+00 0.  1.
        -11    1    4    4    0    0 -0.12941920869E-01 -0.42920825793E-02  0.24035015625E-01  0.27637988091E-01  0.51100000000E-03 0. -1.
         11    1    4    4    0    0 -0.56345147449E-01  0.20495674468E-01  0.83470241093E-01  0.10277349163E+00  0.51100000000E-03 0.  1.
</event>
<event>
 8    1  0.1088088E+005  0.1043930E+01  0.7957747E-01            NaN
         13   -1    0    0    0    0  0.00000000000E+00  0.00000000000E+00  0.74505805969E-08  0.10566000000E+00  0.10566000000E+00 0. -1.
     999900   -1    0    0    0    0 -0.00000000000E+00 -0.00000000000E+00 -0.74505805969E-08  0.93827000000E+00  0.93827000000E+00 0. -1.
     999902    2    1    2    0    0 -0.36459904653E-02  0.22191674850E-01  0.87594734596E-02  0.10197951278E+01  0.10195094952E+01 0.  0.
     999903    2    3    3    0    0 -0.10725688028E+00 -0.62200797013E-01  0.29959997618E-01  0.12945431218E+00  0.22087099590E-01 0.  0.
         14    1    1    2    0    0  0.36459904653E-02 -0.22191674850E-01 -0.87594734596E-02  0.24134872165E-01  0.00000000000E+00 0.  1.
     999901    1    3    3    0    0  0.10361088982E+00  0.84392471863E-01 -0.21200524158E-01  0.89034081565E+00  0.88000000000E+00 0.  1.
        -11    1    4    4    0    0 -0.89432508128E-01 -0.58675430260E-01  0.20310559232E-01  0.10887497216E+00  0.51100000000E-03 0.  1.
         11    1    4    4    0    0 -0.17824372152E-01 -0.35253667524E-02  0.96494383857E-02  0.20579340016E-01  0.51100000000E-03 0. -1.
</event>
<event>
 8    1  0.1088088E+005  0.1043930E+01  0.7957747E-01            NaN
         13   -1    0    0    0    0  0.00000000000E+00  0.00000000000E+00  0.74505805969E-08  0.10566000000E+00  0.10566000000E+00 0.  1.
     999900   -1    0    0    0    0 -0.00000000000E+00 -0.00000000000E+00 -0.74505805969E-08  0.93827000000E+00  0.93827000000E+00 0.  1.
     999902    2    1    2    0    0 -0.15407299385E-01  0.58406725959E-02  0.16079624940E-01  0.10209071273E+01  0.10206474954E+01 0.  0.
     999903    2    3    3    0    0 -0.10307993714E+00  0.10736593374E-01 -0.78375978758E-01  0.13150714834E+00  0.20262974564E-01 0.  0.
         14    1    1    2    0    0  0.15407299385E-01 -0.58406725959E-02 -0.16079624940E-01  0.23022872734E-01  0.00000000000E+00 0. -1.
     999901    1    3    3    0    0  0.87672637758E-01 -0.48959207777E-02  0.94455603698E-01  0.88939997893E+00  0.88000000000E+00 0. -1.
        -11    1    4    4    0    0 -0.32344209108E-01 -0.59172206052E-02 -0.26174355533E-01  0.42029981812E-01  0.51100000000E-03 0. -1.
         11    1    4    4    0    0 -0.70735728035E-01  0.16653813979E-01 -0.52201623225E-01  0.89477166523E-01  0.51100000000E-03 0.  1.
</event>
<event>
 8    1  0.1088088E+005  0.1043930E+01  0.7957747E-01            NaN
         13   -1    0    0    0    0  0.00000000000E+00  0.00000000000E+00  0.74505805969E-08  0.10566000000E+00  0.10566000000E+00 0. -1.
     999900   -1    0    0    0    0 -0.00000000000E+00 -0.00000000000E+00 -0.74505805969E-08  0.93827000000E+00  0.93827000000E+00 0. -1.
     999902    2    1    2    0    0 -0.37958660501E-02  0.21345549860E-01 -0.12409902001E-01  0.10189490720E+01  0.10186428052E+01 0.  0.
     999903    2    3    3    0    0 -0.54817722280E-01 -0.11038392029E+00 -0.25487904152E-01  0.12758667806E+00  0.20955539257E-01 0.  0.
         14    1    1    2    0    0  0.37958660501E-02 -0.21345549860E-01  0.12409902001E-01  0.24980928037E-01  0.00000000000E+00 0. -1.
     999901    1    3    3    0    0  0.51021856230E-01  0.13172947015E+00  0.13078002151E-01  0.89136239390E+00  0.88000000000E+00 0.  1.
        -11    1    4    4    0    0 -0.40124712943E-01 -0.72038819216E-01 -0.26169516296E-01  0.86514095770E-01  0.51100000000E-03 0. -1.
         11    1    4    4    0    0 -0.14693009338E-01 -0.38345101078E-01  0.68161214322E-03  0.41072582292E-01  0.51100000000E-03 0.  1.
</event>
<event>
 8    1  0.1088088E+005  0.1043930E+01  0.7957747E-01            NaN
         13   -1    0    0    0    0  0.00000000000E+00  0.00000000000E+00  0.74505805969E-08  0.10566000000E+00  0.10566000000E+00 0.  1.
     999900   -1    0    0    0    0 -0.00000000000E+00 -0.00000000000E+00 -0.74505805969E-08  0.93827000000E+00  0.93827000000E+00 0.  1.
     999902    2    1    2    0    0  0.79434721782E-02 -0.10707346219E-01  0.21516750294E-01  0.10186176205E+01  0.10183030689E+01 0.  0.
     999903    2    3    3    0    0  0.52780109562E-02 -0.85319244365E-01  0.97924370519E-01  0.13215715072E+00  0.23855801956E-01 0.  0.
         14    1    1    2    0    0 -0.79434721782E-02  0.10707346219E-01 -0.21516750294E-01  0.25312379512E-01  0.00000000000E+00 0. -1.
     999901    1    3    3    0    0  0.26654612220E-02  0.74611898146E-01 -0.76407620225E-01  0.88646046977E+00  0.88000000000E+00 0.  1.
        -11    1    4    4    0    0 -0.93216778609E-04 -0.49269140698E-02  0.17992201095E-01  0.18661821799E-01  0.51100000000E-03 0. -1.
         11    1    4    4    0    0  0.53712277348E-02 -0.80392330295E-01  0.79932169424E-01  0.11349532892E+00  0.51100000000E-03 0.  1.
</event>
<event>
 8    1  0.1088088E+005  0.1043930E+01  0.7957747E-01            NaN
         13   -1    0    0    0    0  0.00000000000E+00  0.00000000000E+00  0.74505805969E-08  0.10566000000E+00  0.10566000000E+00 0.  1.
     999900   -1    0    0    0    0 -0.00000000000E+00 -0.00000000000E+00 -0.74505805969E-08  0.93827000000E+00  0.93827000000E+00 0.  1.
     999902    2    1    2    0    0  0.17431628625E-02 -0.14758740643E-01 -0.16091656247E-01  0.10220256524E+01  0.10217908953E+01 0.  0.
     999903    2    3    3    0    0  0.11603525103E+00 -0.34093830002E-01 -0.53524685254E-01  0.13363510837E+00  0.19154151808E-01 0.  0.
         14    1    1    2    0    0 -0.17431628625E-02  0.14758740643E-01  0.16091656247E-01  0.21904347580E-01  0.00000000000E+00 0.  1.
     999901    1    3    3    0    0 -0.11429208817E+00  0.19335089360E-01  0.37433029007E-01  0.88839054405E+00  0.88000000000E+00 0.  1.
        -11    1    4    4    0    0  0.66663959900E-01 -0.14905748900E-01 -0.20963052421E-01  0.71456109519E-01  0.51100000000E-03 0.  1.
         11    1    4    4    0    0  0.49371291130E-01 -0.19188081102E-01 -0.32561632833E-01  0.62178998850E-01  0.51100000000E-03 0. -1.
</event>
<event>
 8    1  0.1088088E+005  0.1043930E+01  0.7957747E-01            NaN
         13   -1    0    0    0    0  0.00000000000E+00  0.00000000000E+00  0.74505805969E-08  0.10566000000E+00  0.10566000000E+00 0.  1.
     999900   -1    0    0    0    0 -0.00000000000E+00 -0.00000000000E+00 -0.74505805969E-08  0.93827000000E+00  0.93827000000E+00 0. -1.
     999902    2    1    2    0    0  0.22750552347E-01  0.75459192507E-02 -0.72045395977E-02  0.10189013380E+01  0.10185938851E+01 0.  0.
     999903    2    3    3    0    0  0.51165688604E-01 -0.11560238093E+00 -0.21327666688E-01  0.12975996202E+00  0.20023491442E-01 0.  0.
         14    1    1    2    0    0 -0.22750552347E-01 -0.75459192507E-02  0.72045395977E-02  0.25028661974E-01  0.00000000000E+00 0.  1.
     999901    1    3    3    0    0 -0.28415136257E-01  0.12314830018E+00  0.14123127090E-01  0.88914137601E+00  0.88000000000E+00 0. -1.
        -11    1    4    4    0    0  0.38652721580E-01 -0.64547839414E-01 -0.16022393876E-01  0.76924863894E-01  0.51100000000E-03 0.  1.
         11    1    4    4    0    0  0.12512967024E-01 -0.51054541519E-01 -0.53052728120E-02  0.52835098126E-01  0.51100000000E-03 0. -1.
</event>
<event>
 8    1  0.1088088E+005  0.1043930E+01  0.7957747E-01            NaN
         13   -1    0    0    0    0  0.00000000000E+00  0.00000000000E+00  0.74505805969E-08  0.10566000000E+00  0.10566000000E+00 0. -1.
     999900   -1    0    0    0    0 -0.00000000000E+00 -0.00000000000E+00 -0.74505805969E-08  0.93827000000E+00  0.93827000000E+00 0.  1.
     999902    2    1    2    0    0 -0.72571541068E-02  0.98837283700E-02 -0.18523490033E-01  0.10217157241E+01  0.10214742027E+01 0.  0.
     999903    2    3    3    0    0 -0.90256506106E-01 -0.68522424252E-02  0.91385640333E-01  0.13084592320E+00  0.24002713169E-01 0.  0.
         14    1    1    2    0    0  0.72571541068E-02 -0.98837283700E-02  0.18523490033E-01  0.22214275933E-01  0.00000000000E+00 0. -1.
     999901    1    3    3    0    0  0.82999351999E-01  0.16735970795E-01 -0.10990913037E+00  0.89086980086E+00  0.88000000000E+00 0.  1.
        -11    1    4    4    0    0 -0.17910954788E-01 -0.91644496027E-02  0.28927669968E-01  0.35240043257E-01  0.51100000000E-03 0.  1.
         11    1    4    4    0    0 -0.72345551318E-01  0.23122071775E-02  0.62457970364E-01  0.95605879948E-01  0.51100000000E-03 0. -1.
</event>
<event>
 8    1  0.1088088E+005  0.1043930E+01  0.7957747E-01            NaN
         13   -1    0    0    0    0  0.00000000000E+00  0.00000000000E+00  0.74505805969E-08  0.10566000000E+00  0.10566000000E+00 0. -1.
     999900   -1    0    0    0    0 -0.00000000000E+00 -0.00000000000E+00 -0.74505805969E-08  0.93827000000E+00  0.93827000000E+00 0. -1.
     999902    2    1    2    0    0  0.14010875922E-01  0.99050329109E-02 -0.11292074720E-01  0.10233891803E+01  0.10231830184E+01 0.  0.
     999903    2    3    3    0    0 -0.11104432186E+00 -0.24888885767E-01 -0.63053994660E-01  0.13236240429E+00  0.24365996301E-01 0.  0.
         14    1    1    2    0    0 -0.14010875922E-01 -0.99050329109E-02  0.11292074720E-01  0.20540819666E-01  0.00000000000E+00 0. -1.
     999901    1    3    3    0    0  0.12505519778E+00  0.34793918678E-01  0.51761919940E-01  0.89102677604E+00  0.88000000000E+00 0. -1.
        -11    1    4    4    0    0 -0.73194292084E-01 -0.16374606275E-01 -0.54273965381E-01  0.92582161152E-01  0.51100000000E-03 0. -1.
         11    1    4    4    0    0 -0.37850029773E-01 -0.85142794929E-02 -0.87800292788E-02  0.39780243140E-01  0.51100000000E-03 0.  1.
</event>
<event>
 8    1  0.1088088E+005  0.1043930E+01  0.7957747E-01            NaN
         13   -1    0    0    0    0  0.00000000000E+00  0.00000000000E+00  0.74505805969E-08  0.10566000000E+00  0.10566000000E+00 0. -1.
     999900   -1    0    0    0    0 -0.00000000000E+00 -0.00000000000E+00 -0.74505805969E-08  0.93827000000E+00  0.93827000000E+00 0. -1.
     999902    2    1    2    0    0 -0.13457123493E-01 -0.17088044885E-01 -0.73192783682E-02  0.10209807672E+01  0.10207228124E+01 0.  0.
     999903    2    3    3    0    0  0.32151664417E-02  0.35374792811E-01  0.12309992709E+00  0.12966741952E+00  0.19958315895E-01 0.  0.
         14    1    1    2    0    0  0.13457123493E-01  0.17088044885E-01  0.73192783682E-02  0.22949232809E-01  0.00000000000E+00 0.  1.
     999901    1    3    3    0    0 -0.16672289935E-01 -0.52462837696E-01 -0.13041920546E+00  0.89131334767E+00  0.88000000000E+00 0. -1.
        -11    1    4    4    0    0  0.11447279208E-01  0.20529569967E-01  0.78431630163E-01  0.81879699410E-01  0.51100000000E-03 0. -1.
         11    1    4    4    0    0 -0.82321127667E-02  0.14845222843E-01  0.44668296924E-01  0.47787720107E-01  0.51100000000E-03 0.  1.
</event>
<event>
 8    1  0.1088088E+005  0.1043930E+01  0.7957747E-01            NaN
         13   -1    0    0    0    0  0.00000000000E+00  0.00000000000E+00  0.74505805969E-08  0.10566000000E+00  0.10566000000E+00 0.  1.
     999900   -1    0    0    0    0 -0.00000000000E+00 -0.00000000000E+00 -0.74505805969E-08  0.93827000000E+00  0.93827000000E+00 0.  1.
     999902    2    1    2    0    0  0.19204231772E-01  0.13871304923E-01 -0.11894462439E-02  0.10202101686E+01  0.10199343889E+01 0.  0.
     999903    2    3    3    0    0 -0.63412416924E-03 -0.12741611313E+00  0.26318267474E-03  0.12871827017E+00  0.18249816775E-01 0.  0.
         14    1    1    2    0    0 -0.19204231772E-01 -0.13871304923E-01  0.11894462439E-02  0.23719831378E-01  0.00000000000E+00 0. -1.
     999901    1    3    3    0    0  0.19838355942E-01  0.14128741806E+00 -0.14526289186E-02  0.89149189845E+00  0.88000000000E+00 0.  1.
        -11    1    4    4    0    0  0.30684608835E-02 -0.35716594590E-01  0.76046121601E-02  0.36649445131E-01  0.51100000000E-03 0. -1.
         11    1    4    4    0    0 -0.37025850527E-02 -0.91699518543E-01 -0.73414294853E-02  0.92068825044E-01  0.51100000000E-03 0.  1.
</event>
<event>
 7    1  0.1088088E+005  0.1043930E+01  0.7957747E-01            NaN
         13   -1    0    0    0    0  0.00000000000E+00  0.00000000000E+00  0.74505805969E-08  0.10566000000E+00  0.10566000000E+00 0. -1.
     999900   -1    0    0    0    0 -0.00000000000E+00 -0.00000000000E+00 -0.74505805969E-08  0.93827000000E+00  0.93827000000E+00 0.  1.
     999903    2    1    2    0    0 -0.21298019721E-01 -0.10857266804E+00 -0.15591839374E-01  0.11336881638E+00  0.19176891943E-01 0.  0.
         14    1    1    2    0    0 -0.34635741757E-01 -0.27587411139E-02  0.23152683017E-01  0.41752748299E-01  0.00000000000E+00 0.  1.
     999901    1    1    2    0    0  0.55933761478E-01  0.11133140915E+00 -0.75608436433E-02  0.88880843532E+00  0.88000000000E+00 0. -1.
        -11    1    3    3    0    0 -0.90516381562E-02 -0.48331715462E-01 -0.16553341532E-01  0.51886039642E-01  0.51100000000E-03 0. -1.
         11    1    3    3    0    0 -0.12246381565E-01 -0.60240952574E-01  0.96150215837E-03  0.61482776741E-01  0.51100000000E-03 0.  1.
</event>
<event>
 8    1  0.1088088E+005  0.1043930E+01  0.7957747E-01            NaN
         13   -1    0    0    0    0  0.00000000000E+00  0.00000000000E+00  0.74505805969E-08  0.10566000000E+00  0.10566000000E+00 0. -1.
     999900   -1    0    0    0    0 -0.00000000000E+00 -0.00000000000E+00 -0.74505805969E-08  0.93827000000E+00  0.93827000000E+00 0.  1.
     999902    2    1    2    0    0 -0.74300807285E-02 -0.19351960574E-01 -0.11640645825E-01  0.10201558730E+01  0.10198788145E+01 0.  0.
     999903    2    3    3    0    0 -0.99869379752E-01  0.56561109215E-01  0.56560270506E-01  0.12944874768E+00  0.19617899703E-01 0.  0.
         14    1    1    2    0    0  0.74300807285E-02  0.19351960574E-01  0.11640645825E-01  0.23774126964E-01  0.00000000000E+00 0.  1.
     999901    1    3    3    0    0  0.92439299023E-01 -0.75913069790E-01 -0.68200916331E-01  0.89070712535E+00  0.88000000000E+00 0.  1.
        -11    1    4    4    0    0 -0.89008650235E-01  0.42422478624E-01  0.47860340162E-01  0.10960419604E+00  0.51100000000E-03 0.  1.
         11    1    4    4    0    0 -0.10860729517E-01  0.14138630592E-01  0.86999303442E-02  0.19844551636E-01  0.51100000000E-03 0. -1.
</event>
<event>
 8    1  0.1088088E+005  0.1043930E+01  0.7957747E-01            NaN
         13   -1    0    0    0    0  0.00000000000E+00  0.00000000000E+00  0.74505805969E-08  0.10566000000E+00  0.10566000000E+00 0. -1.
     999900   -1    0    0    0    0 -0.00000000000E+00 -0.00000000000E+00 -0.74505805969E-08  0.93827000000E+00  0.93827000000E+00 0. -1.
     999902    2    1    2    0    0  0.78230108871E-02  0.10878601518E-01  0.18839457456E-01  0.10208114225E+01  0.10205496027E+01 0.  0.
     999903    2    3    3    0    0 -0.56385693567E-01 -0.21751820478E-01  0.11615531540E+00  0.13252212365E+00  0.20434476431E-01 0.  0.
         14    1    1    2    0    0 -0.78230108871E-02 -0.10878601518E-01 -0.18839457456E-01  0.23118577542E-01  0.00000000000E+00 0. -1.
     999901    1    3    3    0    0  0.64208704454E-01  0.32630421996E-01 -0.97315857948E-01  0.88828929881E+00  0.88000000000E+00 0. -1.
        -11    1    4    4    0    0 -0.29438900166E-01 -0.39994291981E-02  0.40153490622E-01  0.49952059087E-01  0.51100000000E-03 0.  1.
         11    1    4    4    0    0 -0.26946793401E-01 -0.17752391280E-01  0.76001824783E-01  0.82570064564E-01  0.51100000000E-03 0. -1.
</event>
<event>
 8    1  0.1088088E+005  0.1043930E+01  0.7957747E-01            NaN
         13   -1    0    0    0    0  0.00000000000E+00  0.00000000000E+00  0.74505805969E-08  0.10566000000E+00  0.10566000000E+00 0. -1.
     999900   -1    0    0    0    0 -0.00000000000E+00 -0.00000000000E+00 -0.74505805969E-08  0.93827000000E+00  0.93827000000E+00 0. -1.
     999902    2    1    2    0    0 -0.13676681437E-01 -0.19289456576E-01  0.23982390544E-02  0.10201626632E+01  0.10198857647E+01 0.  0.
     999903    2    3    3    0    0 -0.67815230118E-01 -0.63370199712E-01  0.92638477851E-01  0.13279723952E+00  0.20941146041E-01 0.  0.
         14    1    1    2    0    0  0.13676681437E-01  0.19289456576E-01 -0.23982390544E-02  0.23767336845E-01  0.00000000000E+00 0. -1.
     999901    1    3    3    0    0  0.54138548681E-01  0.44080743136E-01 -0.90240238796E-01  0.88736542364E+00  0.88000000000E+00 0. -1.
        -11    1    4    4    0    0 -0.68780258683E-01 -0.58984249172E-01  0.88782711172E-01  0.12685620426E+00  0.51100000000E-03 0. -1.
         11    1    4    4    0    0  0.96502856432E-03 -0.43859505407E-02  0.38557666791E-02  0.59410352599E-02  0.51100000000E-03 0.  1.
</event>
<event>
 8    1  0.1088088E+005  0.1043930E+01  0.7957747E-01            NaN
         13   -1    0    0    0    0  0.00000000000E+00  0.00000000000E+00  0.74505805969E-08  0.10566000000E+00  0.10566000000E+00 0. -1.
     999900   -1    0    0    0    0 -0.00000000000E+00 -0.00000000000E+00 -0.74505805969E-08  0.93827000000E+00  0.93827000000E+00 0. -1.
     999902    2    1    2    0    0  0.47186752725E-02  0.20341179819E-01  0.97555556331E-02  0.10208822158E+01  0.10206220153E+01 0.  0.
     999903    2    3    3    0    0  0.55108549292E-01  0.11935766036E+00  0.15169020706E-01  0.13388012533E+00  0.20262908928E-01 0.  0.
         14    1    1    2    0    0 -0.47186752725E-02 -0.20341179819E-01 -0.97555556331E-02  0.23047784242E-01  0.00000000000E+00 0.  1.
     999901    1    3    3    0    0 -0.50389874020E-01 -0.99016480537E-01 -0.54134650733E-02  0.88700209043E+00  0.88000000000E+00 0. -1.
        -11    1    4    4    0    0  0.42791224500E-01  0.10795183458E+00  0.11532301203E-01  0.11669594070E+00  0.51100000000E-03 0. -1.
         11    1    4    4    0    0  0.12317324792E-01  0.11405825775E-01  0.36367195037E-02  0.17184184630E-01  0.51100000000E-03 0.  1.
</event>
<event>
 8    1  0.1088088E+005  0.1043930E+01  0.7957747E-01            NaN
         13   -1    0    0    0    0  0.00000000000E+00  0.00000000000E+00  0.74505805969E-08  0.10566000000E+00  0.10566000000E+00 0. -1.
     999900   -1    0    0    0    0 -0.00000000000E+00 -0.00000000000E+00 -0.74505805969E-08  0.93827000000E+00  0.93827000000E+00 0.  1.
     999902    2    1    2    0    0  0.14672482849E-01  0.15627149624E-01 -0.12656096862E-01  0.10190369016E+01  0.10187328112E+01 0.  0.
     999903    2    3    3    0    0 -0.45790117353E-01 -0.11518356808E+00  0.19699557491E-01  0.12672862629E+00  0.17552291955E-01 0.  0.
         14    1    1    2    0    0 -0.14672482849E-01 -0.15627149624E-01  0.12656096862E-01  0.24893098363E-01  0.00000000000E+00 0. -1.
     999901    1    3    3    0    0  0.60462600202E-01  0.13081071770E+00 -0.32355654353E-01  0.89230827535E+00  0.88000000000E+00 0.  1.
        -11    1    4    4    0    0 -0.16899671775E-01 -0.27192899283E-01 -0.10736683030E-03  0.32020701525E-01  0.51100000000E-03 0.  1.
         11    1    4    4    0    0 -0.28890445578E-01 -0.87990668795E-01  0.19806924321E-01  0.94707924762E-01  0.51100000000E-03 0. -1.
</event>
<event>
 8    1  0.1088088E+005  0.1043930E+01  0.7957747E-01            NaN
         13   -1    0    0    0    0  0.00000000000E+00  0.00000000000E+00  0.74505805969E-08  0.10566000000E+00  0.10566000000E+00 0. -1.
     999900   -1    0    0    0    0 -0.00000000000E+00 -0.00000000000E+00 -0.74505805969E-08  0.93827000000E+00  0.93827000000E+00 0.  1.
     999902    2    1    2    0    0 -0.74490410626E-02 -0.20258771020E-01 -0.97582726229E-02  0.10202418194E+01  0.10199667838E+01 0.  0.
     999903    2    3    3    0    0 -0.16603403514E-01  0.11342447791E+00  0.52879470260E-01  0.12789743507E+00  0.20511711880E-01 0.  0.
         14    1    1    2    0    0  0.74490410626E-02  0.20258771020E-01  0.97582726229E-02  0.23688180609E-01  0.00000000000E+00 0. -1.
     999901    1    3    3    0    0  0.91543624512E-02 -0.13368324893E+00 -0.62637742883E-01  0.89234438432E+00  0.88000000000E+00 0.  1.
        -11    1    4    4    0    0 -0.10009168493E-01  0.25106748117E-01  0.19141799381E-01  0.33124037487E-01  0.51100000000E-03 0. -1.
         11    1    4    4    0    0 -0.65942350205E-02  0.88317729796E-01  0.33737670879E-01  0.94773397582E-01  0.51100000000E-03 0.  1.
</event>
<event>
 8    1  0.1088088E+005  0.1043930E+01  0.7957747E-01            NaN
         13   -1    0    0    0    0  0.00000000000E+00  0.00000000000E+00  0.74505805969E-08  0.10566000000E+00  0.10566000000E+00 0.  1.
     999900   -1    0    0    0    0 -0.00000000000E+00 -0.00000000000E+00 -0.74505805969E-08  0.93827000000E+00  0.93827000000E+00 0. -1.
     999902    2    1    2    0    0  0.51041735771E-02  0.15442138302E-01 -0.14533532378E-01  0.10221186317E+01  0.10218858848E+01 0.  0.
     999903    2    3    3    0    0  0.31726050696E-01 -0.56749571598E-01  0.11076926909E+00  0.12991845273E+00  0.19542702363E-01 0.  0.
         14    1    1    2    0    0 -0.51041735771E-02 -0.15442138302E-01  0.14533532378E-01  0.21811368289E-01  0.00000000000E+00 0.  1.
     999901    1    3    3    0    0 -0.26621877119E-01  0.72191709899E-01 -0.12530280147E+00  0.89220017898E+00  0.88000000000E+00 0.  1.
        -11    1    4    4    0    0  0.18435880363E-01 -0.19870254317E-01  0.32059308477E-01  0.41985343543E-01  0.51100000000E-03 0.  1.
         11    1    4    4    0    0  0.13290170333E-01 -0.36879317281E-01  0.78709960613E-01  0.87933109187E-01  0.51100000000E-03 0. -1.
</event>
<event>
 8    1  0.1088088E+005  0.1043930E+01  0.7957747E-01            NaN
         13   -1    0    0    0    0  0.00000000000E+00  0.00000000000E+00  0.74505805969E-08  0.10566000000E+00  0.10566000000E+00 0. -1.
     999900   -1    0    0    0    0 -0.00000000000E+00 -0.00000000000E+00 -0.74505805969E-08  0.93827000000E+00  0.93827000000E+00 0.  1.
     999902    2    1    2    0    0 -0.15590411831E-01  0.16220189298E-01  0.60368513626E-02  0.10206362443E+01  0.10203703955E+01 0.  0.
     999903    2    3    3    0    0 -0.44810591361E-01  0.75445025969E-01  0.98396361878E-01  0.13334165995E+00  0.19955280146E-01 0.  0.
         14    1    1    2    0    0  0.15590411831E-01 -0.16220189298E-01 -0.60368513626E-02  0.23293755737E-01  0.00000000000E+00 0.  1.
     999901    1    3    3    0    0  0.29220179530E-01 -0.59224836670E-01 -0.92359510515E-01  0.88729458431E+00  0.88000000000E+00 0.  1.
        -11    1    4    4    0    0 -0.31433232828E-01  0.64329527441E-01  0.86373758568E-01  0.11219190486E+00  0.51100000000E-03 0.  1.
         11    1    4    4    0    0 -0.13377358533E-01  0.11115498528E-01  0.12022603310E-01  0.21149755086E-01  0.51100000000E-03 0. -1.
</event>
<event>
 8    1  0.1088088E+005  0.1043930E+01  0.7957747E-01            NaN
         13   -1    0    0    0    0  0.00000000000E+00  0.00000000000E+00  0.74505805969E-08  0.10566000000E+00  0.10566000000E+00 0. -1.
     999900   -1    0    0    0    0 -0.00000000000E+00 -0.00000000000E+00 -0.74505805969E-08  0.93827000000E+00  0.93827000000E+00 0.  1.
     999902    2    1    2    0    0  0.13525917691E-01  0.16530946826E-01 -0.68798280897E-02  0.10214899758E+01  0.10212434656E+01 0.  0.
     999903    2    3    3    0    0 -0.94215938904E-01  0.18038695361E-01  0.85598284776E-01  0.13010746399E+00  0.19971183135E-01 0.  0.
         14    1    1    2    0    0 -0.13525917691E-01 -0.16530946826E-01  0.68798280897E-02  0.22440024218E-01  0.00000000000E+00 0.  1.
     999901    1    3    3    0    0  0.10774185660E+00 -0.15077485358E-02 -0.92478112866E-01  0.89138251179E+00  0.88000000000E+00 0. -1.
        -11    1    4    4    0    0 -0.73777169977E-01  0.17047559806E-01  0.76720343605E-01  0.10779592919E+00  0.51100000000E-03 0.  1.
         11    1    4    4    0    0 -0.20438768927E-01  0.99113555488E-03  0.88779411703E-02  0.22311534805E-01  0.51100000000E-03 0. -1.
</event>
<event>
 8    1  0.1088088E+005  0.1043930E+01  0.7957747E-01            NaN
         13   -1    0    0    0    0  0.00000000000E+00  0.00000000000E+00  0.74505805969E-08  0.10566000000E+00  0.10566000000E+00 0. -1.
     999900   -1    0    0    0    0 -0.00000000000E+00 -0.00000000000E+00 -0.74505805969E-08  0.93827000000E+00  0.93827000000E+00 0. -1.
     999902    2    1    2    0    0 -0.10773264536E-01 -0.14163726545E-01  0.14987259243E-01  0.10206643103E+01  0.10203991092E+01 0.  0.
     999903    2    3    3    0    0 -0.11178842562E+00 -0.68271590058E-01  0.14315901009E-01  0.13323421479E+00  0.19716715155E-01 0.  0.
         14    1    1    2    0    0  0.10773264536E-01  0.14163726545E-01 -0.14987259243E-01  0.23265689717E-01  0.00000000000E+00 0. -1.
     999901    1    3    3    0    0  0.10101516109E+00  0.54107863513E-01  0.67135823369E-03  0.88743009549E+00  0.88000000000E+00 0. -1.
        -11    1    4    4    0    0 -0.30162420721E-01 -0.13686494844E-01 -0.39237056978E-02  0.33357882910E-01  0.51100000000E-03 0.  1.
         11    1    4    4    0    0 -0.81626004904E-01 -0.54585095213E-01  0.18239606707E-01  0.99876331880E-01  0.51100000000E-03 0. -1.
</event>
<event>
 8    1  0.1088088E+005  0.1043930E+01  0.7957747E-01            NaN
         13   -1    0    0    0    0  0.00000000000E+00  0.00000000000E+00  0.74505805969E-08  0.10566000000E+00  0.10566000000E+00 0.  1.
     999900   -1    0    0    0    0 -0.00000000000E+00 -0.00000000000E+00 -0.74505805969E-08  0.93827000000E+00  0.93827000000E+00 0.  1.
     999902    2    1    2    0    0  0.49014003667E-02  0.10181417297E-01 -0.22453420683E-01  0.10187935507E+01  0.10184834107E+01 0.  0.
     999903    2    3    3    0    0  0.10526248814E+00  0.70511024008E-01  0.21033423388E-01  0.12997235664E+00  0.19960277408E-01 0.  0.
         14    1    1    2    0    0 -0.49014003667E-02 -0.10181417297E-01  0.22453420683E-01  0.25136449314E-01  0.00000000000E+00 0.  1.
     999901    1    3    3    0    0 -0.10036108777E+00 -0.60329606711E-01 -0.43486844071E-01  0.88882119405E+00  0.88000000000E+00 0. -1.
        -11    1    4    4    0    0  0.56868834084E-01  0.26133608754E-01  0.95212647923E-02  0.63308335951E-01  0.51100000000E-03 0. -1.
         11    1    4    4    0    0  0.48393654056E-01  0.44377415254E-01  0.11512158595E-01  0.66664020686E-01  0.51100000000E-03 0.  1.
</event>
<event>
 8    1  0.1088088E+005  0.1043930E+01  0.7957747E-01            NaN
         13   -1    0    0    0    0  0.00000000000E+00  0.00000000000E+00  0.74505805969E-08  0.10566000000E+00  0.10566000000E+00 0. -1.
     999900   -1    0    0    0    0 -0.00000000000E+00 -0.00000000000E+00 -0.74505805969E-08  0.93827000000E+00  0.93827000000E+00 0. -1.
     999902    2    1    2    0    0 -0.19306663275E-01  0.87232711520E-02 -0.29664224536E-02  0.10225374226E+01  0.10223136203E+01 0.  0.
     999903    2    3    3    0    0  0.89780112626E-01  0.64478601167E-01  0.68040760060E-01  0.13121783822E+00  0.19251426070E-01 0.  0.
         14    1    1    2    0    0  0.19306663275E-01 -0.87232711520E-02  0.29664224536E-02  0.21392577417E-01  0.00000000000E+00 0.  1.
     999901    1    3    3    0    0 -0.10908677590E+00 -0.55755330015E-01 -0.71007182514E-01  0.89131958436E+00  0.88000000000E+00 0.  1.
        -11    1    4    4    0    0  0.49613273853E-01  0.45289774293E-01  0.46936657834E-01  0.81950909497E-01  0.51100000000E-03 0. -1.
         11    1    4    4    0    0  0.40166838774E-01  0.19188826874E-01  0.21104102226E-01  0.49266928721E-01  0.51100000000E-03 0.  1.
</event>
<event>
 8    1  0.1088088E+005  0.1043930E+01  0.7957747E-01            NaN
         13   -1    0    0    0    0  0.00000000000E+00  0.00000000000E+00  0.74505805969E-08  0.10566000000E+00  0.10566000000E+00 0.  1.
     999900   -1    0    0    0    0 -0.00000000000E+00 -0.00000000000E+00 -0.74505805969E-08  0.93827000000E+00  0.93827000000E+00 0.  1.
     999902    2    1    2    0    0  0.92598035724E-02  0.14332341187E-01  0.16542658658E-01  0.10201640680E+01  0.10198872027E+01 0.  0.
     999903    2    3    3    0    0 -0.72245950020E-01  0.10745955587E+00 -0.51099536126E-02  0.13124072962E+00  0.20760155165E-01 0.  0.
         14    1    1    2    0    0 -0.92598035724E-02 -0.14332341187E-01 -0.16542658658E-01  0.23765931952E-01  0.00000000000E+00 0.  1.
     999901    1    3    3    0    0  0.81505753593E-01 -0.93127214686E-01  0.21652612271E-01  0.88892333843E+00  0.88000000000E+00 0. -1.
        -11    1    4    4    0    0 -0.50567174656E-01  0.56980146255E-01 -0.40114467083E-02  0.76289770256E-01  0.51100000000E-03 0.  1.
         11    1    4    4    0    0 -0.21678775364E-01  0.50479409617E-01 -0.10985069043E-02  0.54950959364E-01  0.51100000000E-03 0. -1.
</event>
<event>
 8    1  0.1088088E+005  0.1043930E+01  0.7957747E-01            NaN
         13   -1    0    0    0    0  0.00000000000E+00  0.00000000000E+00  0.74505805969E-08  0.10566000000E+00  0.10566000000E+00 0. -1.
     999900   -1    0    0    0    0 -0.00000000000E+00 -0.00000000000E+00 -0.74505805969E-08  0.93827000000E+00  0.93827000000E+00 0. -1.
     999902    2    1    2    0    0  0.96558459513E-03  0.71624264240E-02 -0.22118919341E-01  0.10206602923E+01  0.10203949985E+01 0.  0.
     999903    2    3    3    0    0 -0.11362703191E+00  0.59365200961E-01 -0.22932926481E-01  0.13169614222E+00  0.19560810144E-01 0.  0.
         14    1    1    2    0    0 -0.96558459513E-03 -0.71624264240E-02  0.22118919341E-01  0.23269707749E-01  0.00000000000E+00 0. -1.
     999901    1    3    3    0    0  0.11459261651E+00 -0.52202774537E-01  0.81400713939E-03  0.88896415003E+00  0.88000000000E+00 0.  1.
        -11    1    4    4    0    0 -0.61574256150E-01  0.29889021430E-01 -0.25395460187E-02  0.68494182508E-01  0.51100000000E-03 0.  1.
         11    1    4    4    0    0 -0.52052775760E-01  0.29476179531E-01 -0.20393380462E-01  0.63201959715E-01  0.51100000000E-03 0. -1.
</event>
<event>
 8    1  0.1088088E+005  0.1043930E+01  0.7957747E-01            NaN
         13   -1    0    0    0    0  0.00000000000E+00  0.00000000000E+00  0.74505805969E-08  0.10566000000E+00  0.10566000000E+00 0. -1.
     999900   -1    0    0    0    0 -0.00000000000E+00 -0.00000000000E+00 -0.74505805969E-08  0.93827000000E+00  0.93827000000E+00 0. -1.
     999902    2    1    2    0    0  0.22713059887E-02 -0.17237389191E-01 -0.15636838527E-01  0.10205463062E+01  0.10202783767E+01 0.  0.
     999903    2    3    3    0    0 -0.67973963491E-01  0.73584756533E-01  0.77655211682E-01  0.12819745811E+00  0.19211461630E-01 0.  0.
         14    1    1    2    0    0 -0.22713059887E-02  0.17237389191E-01  0.15636838527E-01  0.23383693809E-01  0.00000000000E+00 0.  1.
     999901    1    3    3    0    0  0.70245269480E-01 -0.90822145724E-01 -0.93292050209E-01  0.89234884808E+00  0.88000000000E+00 0. -1.
        -11    1    4    4    0    0 -0.27386001163E-01  0.41799491640E-01  0.44383717888E-01  0.66838357966E-01  0.51100000000E-03 0.  1.
         11    1    4    4    0    0 -0.40587962328E-01  0.31785264893E-01  0.33271493794E-01  0.61359100145E-01  0.51100000000E-03 0. -1.
</event>
<event>
 8    1  0.1088088E+005  0.1043930E+01  0.7957747E-01            NaN
         13   -1    0    0    0    0  0.00000000000E+00  0.00000000000E+00  0.74505805969E-08  0.10566000000E+00  0.10566000000E+00 0.  1.
     999900   -1    0    0    0    0 -0.00000000000E+00 -0.00000000000E+00 -0.74505805969E-08  0.93827000000E+00  0.93827000000E+00 0. -1.
     999902    2    1    2    0    0  0.87323071671E-02  0.15723289848E-01  0.13496712302E-01  0.10214436425E+01  0.10211961019E+01 0.  0.
     999903    2    3    3    0    0 -0.23006434026E-01  0.12996073623E+00  0.14283728243E-01  0.13349197642E+00  0.14035451850E-01 0.  0.
         14    1    1    2    0    0 -0.87323071671E-02 -0.15723289848E-01 -0.13496712302E-01  0.22486357532E-01  0.00000000000E+00 0. -1.
     999901    1    3    3    0    0  0.31738741193E-01 -0.11423744638E+00 -0.78701594106E-03  0.88795166605E+00  0.88000000000E+00 0.  1.
        -11    1    4    4    0    0 -0.10612830787E-01  0.49773997153E-01  0.12139672535E-01  0.52323185493E-01  0.51100000000E-03 0.  1.
         11    1    4    4    0    0 -0.12393603240E-01  0.80186739073E-01  0.21440557073E-02  0.81168790925E-01  0.51100000000E-03 0. -1.
</event>
<event>
 8    1  0.1088088E+005  0.1043930E+01  0.7957747E-01            NaN
         13   -1    0    0    0    0  0.00000000000E+00  0.00000000000E+00  0.74505805969E-08  0.10566000000E+00  0.10566000000E+00 0.  1.
     999900   -1    0    0    0    0 -0.00000000000E+00 -0.00000000000E+00 -0.74505805969E-08  0.93827000000E+00  0.93827000000E+00 0.  1.
     999902    2    1    2    0    0  0.94506197869E-02 -0.10817775541E-01 -0.26079311311E-01  0.10141563714E+01  0.10137192297E+01 0.  0.
     999903    2    3    3    0    0  0.13686673874E-01  0.27232347746E-01  0.11634469749E+00  0.12188379291E+00  0.19764729540E-01 0.  0.
         14    1    1    2    0    0 -0.94506197869E-02  0.10817775541E-01  0.26079311311E-01  0.29773628607E-01  0.00000000000E+00 0.  1.
     999901    1    3    3    0    0 -0.42360540870E-02 -0.38050123287E-01 -0.14242400880E+00  0.89227257849E+00  0.88000000000E+00 0.  1.
        -11    1    4    4    0    0  0.17136455363E-01  0.13765486231E-01  0.61855136691E-01  0.65646521383E-01  0.51100000000E-03 0.  1.
         11    1    4    4    0    0 -0.34497814894E-02  0.13466861515E-01  0.54489560799E-01  0.56237271524E-01  0.51100000000E-03 0. -1.
</event>
<event>
 8    1  0.1088088E+005  0.1043930E+01  0.7957747E-01            NaN
         13   -1    0    0    0    0  0.00000000000E+00  0.00000000000E+00  0.74505805969E-08  0.10566000000E+00  0.10566000000E+00 0. -1.
     999900   -1    0    0    0    0 -0.00000000000E+00 -0.00000000000E+00 -0.74505805969E-08  0.93827000000E+00  0.93827000000E+00 0. -1.
     999902    2    1    2    0    0  0.19262244912E-01  0.71265019505E-02  0.12603241421E-01  0.10198330541E+01  0.10195483291E+01 0.  0.
     999903    2    3    3    0    0 -0.97679703922E-01  0.81625037256E-01 -0.30029118351E-02  0.12883978631E+00  0.19664734737E-01 0.  0.
         14    1    1    2    0    0 -0.19262244912E-01 -0.71265019505E-02 -0.12603241421E-01  0.24096945936E-01  0.00000000000E+00 0. -1.
     999901    1    3    3    0    0  0.11694194883E+00 -0.74498535305E-01  0.15606153256E-01  0.89099326775E+00  0.88000000000E+00 0. -1.
        -11    1    4    4    0    0 -0.18053197075E-01  0.62226744446E-02 -0.15670884878E-02  0.19166546095E-01  0.51100000000E-03 0.  1.
         11    1    4    4    0    0 -0.79626506847E-01  0.75402362811E-01 -0.14358233472E-02  0.10967324022E+00  0.51100000000E-03 0. -1.
</event>
<event>
 8    1  0.1088088E+005  0.1043930E+01  0.7957747E-01            NaN
         13   -1    0    0    0    0  0.00000000000E+00  0.00000000000E+00  0.74505805969E-08  0.10566000000E+00  0.10566000000E+00 0.  1.
     999900   -1    0    0    0    0 -0.00000000000E+00 -0.00000000000E+00 -0.74505805969E-08  0.93827000000E+00  0.93827000000E+00 0.  1.
     999902    2    1    2    0    0 -0.19110224320E-01 -0.34662934818E-02  0.13074151869E-01  0.10205174113E+01  0.10202488115E+01 0.  0.
     999903    2    3    3    0    0 -0.62623566483E-01  0.96967467325E-01  0.61663705349E-01  0.13240632815E+00  0.20115227500E-01 0.  0.
         14    1    1    2    0    0  0.19110224320E-01  0.34662934818E-02 -0.13074151869E-01  0.23412588732E-01  0.00000000000E+00 0. -1.
     999901    1    3    3    0    0  0.43513342163E-01 -0.10043376081E+00 -0.48589553480E-01  0.88811108312E+00  0.88000000000E+00 0. -1.
        -11    1    4    4    0    0 -0.33952128903E-01  0.39216361969E-01  0.19774385971E-01  0.55515381334E-01  0.51100000000E-03 0. -1.
         11    1    4    4    0    0 -0.28671437580E-01  0.57751105355E-01  0.41889319378E-01  0.76890946812E-01  0.51100000000E-03 0.  1.
</event>
<event>
 7    1  0.1088088E+005  0.1043930E+01  0.7957747E-01            NaN
         13   -1    0    0    0    0  0.00000000000E+00  0.00000000000E+00  0.74505805969E-08  0.10566000000E+00  0.10566000000E+00 0.  1.
     999900   -1    0    0    0    0 -0.00000000000E+00 -0.00000000000E+00 -0.74505805969E-08  0.93827000000E+00  0.93827000000E+00 0.  1.
     999903    2    1    2    0    0  0.46497570297E-01  0.44443768947E-01 -0.96561705651E-01  0.11667312973E+00  0.12295672434E-01 0.  0.
         14    1    1    2    0    0  0.67512290245E-02 -0.10279784965E-01  0.41483383368E-01  0.43268050198E-01  0.00000000000E+00 0.  1.
     999901    1    1    2    0    0 -0.53248799322E-01 -0.34163983983E-01  0.55078322283E-01  0.88398882007E+00  0.88000000000E+00 0. -1.
        -11    1    3    3    0    0  0.32799769837E-01  0.37305502179E-01 -0.78545746898E-01  0.92936649773E-01  0.51100000000E-03 0. -1.
         11    1    3    3    0    0  0.13697800460E-01  0.71382667683E-02 -0.18015958752E-01  0.23736479955E-01  0.51100000000E-03 0.  1.
</event>
<event>
 8    1  0.1088088E+005  0.1043930E+01  0.7957747E-01            NaN
         13   -1    0    0    0    0  0.00000000000E+00  0.00000000000E+00  0.74505805969E-08  0.10566000000E+00  0.10566000000E+00 0. -1.
     999900   -1    0    0    0    0 -0.00000000000E+00 -0.00000000000E+00 -0.74505805969E-08  0.93827000000E+00  0.93827000000E+00 0.  1.
     999902    2    1    2    0    0  0.15383366171E-02 -0.20763490633E-01  0.10722016814E-01  0.10205109764E+01  0.10202422272E+01 0.  0.
     999903    2    3    3    0    0 -0.10137541883E+00 -0.12124151408E-01 -0.77813719643E-01  0.13005914957E+00  0.20891070582E-01 0.  0.
         14    1    1    2    0    0 -0.15383366171E-02  0.20763490633E-01 -0.10722016814E-01  0.23419023621E-01  0.00000000000E+00 0.  1.
     999901    1    3    3    0    0  0.10291375545E+00 -0.86393392258E-02  0.88535736457E-01  0.89045182681E+00  0.88000000000E+00 0. -1.
        -11    1    4    4    0    0 -0.99853357027E-01 -0.14392808094E-01 -0.73096802467E-01  0.12458430674E+00  0.51100000000E-03 0. -1.
         11    1    4    4    0    0 -0.15220618070E-02  0.22686566865E-02 -0.47169171766E-02  0.54748428248E-02  0.51100000000E-03 0.  1.
</event>
<event>
 8    1  0.1088088E+005  0.1043930E+01  0.7957747E-01            NaN
         13   -1    0    0    0    0  0.00000000000E+00  0.00000000000E+00  0.74505805969E-08  0.10566000000E+00  0.10566000000E+00 0.  1.
     999900   -1    0    0    0    0 -0.00000000000E+00 -0.00000000000E+00 -0.74505805969E-08  0.93827000000E+00  0.93827000000E+00 0.  1.
     999902    2    1    2    0    0 -0.14016542398E-01  0.62354856513E-02 -0.17869546202E-01  0.10203786641E+01  0.10201068340E+01 0.  0.
     999903    2    3    3    0    0  0.90904891233E-01 -0.66909789796E-01  0.56807210814E-01  0.12800242247E+00  0.20419151227E-01 0.  0.
         14    1    1    2    0    0  0.14016542398E-01 -0.62354856513E-02  0.17869546202E-01  0.23551335919E-01  0.00000000000E+00 0.  1.
     999901    1    3    3    0    0 -0.10492143363E+00  0.73145275448E-01 -0.74676757016E-01  0.89237624161E+00  0.88000000000E+00 0.  1.
        -11    1    4    4    0    0  0.47163234364E-01 -0.22296608934E-01  0.23888987683E-01  0.57379911983E-01  0.51100000000E-03 0.  1.
         11    1    4    4    0    0  0.43741656869E-01 -0.44613180862E-01  0.32918223131E-01  0.70622510486E-01  0.51100000000E-03 0. -1.
</event>
<event>
 8    1  0.1088088E+005  0.1043930E+01  0.7957747E-01            NaN
         13   -1    0    0    0    0  0.00000000000E+00  0.00000000000E+00  0.74505805969E-08  0.10566000000E+00  0.10566000000E+00 0. -1.
     999900   -1    0    0    0    0 -0.00000000000E+00 -0.00000000000E+00 -0.74505805969E-08  0.93827000000E+00  0.93827000000E+00 0. -1.
     999902    2    1    2    0    0 -0.61747413570E-02  0.33077106377E-02 -0.24832354835E-01  0.10181285615E+01  0.10178015787E+01 0.  0.
     999903    2    3    3    0    0  0.10608799466E+00 -0.52880867791E-01 -0.39993461070E-01  0.12908978994E+00  0.31837841483E-01 0.  0.
         14    1    1    2    0    0  0.61747413570E-02 -0.33077106377E-02  0.24832354835E-01  0.25801438470E-01  0.00000000000E+00 0. -1.
     999901    1    3    3    0    0 -0.11226273601E+00  0.56188578428E-01  0.15161106235E-01  0.88903877159E+00  0.88000000000E+00 0.  1.
        -11    1    4    4    0    0  0.55202551870E-01 -0.39141836983E-01 -0.98984036748E-02  0.68393308530E-01  0.51100000000E-03 0.  1.
         11    1    4    4    0    0  0.50885442788E-01 -0.13739030807E-01 -0.30095057395E-01  0.60696481412E-01  0.51100000000E-03 0. -1.
</event>
<event>
 8    1  0.1088088E+005  0.1043930E+01  0.7957747E-01            NaN
         13   -1    0    0    0    0  0.00000000000E+00  0.00000000000E+00  0.74505805969E-08  0.10566000000E+00  0.10566000000E+00 0. -1.
     999900   -1    0    0    0    0 -0.00000000000E+00 -0.00000000000E+00 -0.74505805969E-08  0.93827000000E+00  0.93827000000E+00 0.  1.
     999902    2    1    2    0    0 -0.94875095040E-02  0.49932618070E-02 -0.20061974766E-01  0.10211829489E+01  0.10209295700E+01 0.  0.
     999903    2    3    3    0    0  0.65617980901E-01  0.23759500993E-01 -0.11155994602E+00  0.13305858538E+00  0.19716294858E-01 0.  0.
         14    1    1    2    0    0  0.94875095040E-02 -0.49932618070E-02  0.20061974766E-01  0.22747051052E-01  0.00000000000E+00 0. -1.
     999901    1    3    3    0    0 -0.75105490405E-01 -0.18766239186E-01  0.91497971250E-01  0.88812436357E+00  0.88000000000E+00 0. -1.
        -11    1    4    4    0    0  0.22197080663E-01  0.84203322369E-02 -0.56437144590E-01  0.61229280539E-01  0.51100000000E-03 0.  1.
         11    1    4    4    0    0  0.43420900238E-01  0.15339168756E-01 -0.55122801426E-01  0.71829304840E-01  0.51100000000E-03 0. -1.
</event>
<event>
 8    1  0.1088088E+005  0.1043930E+01  0.7957747E-01            NaN
         13   -1    0    0    0    0  0.00000000000E+00  0.00000000000E+00  0.74505805969E-08  0.10566000000E+00  0.10566000000E+00 0.  1.
     999900   -1    0    0    0    0 -0.00000000000E+00 -0.00000000000E+00 -0.74505805969E-08  0.93827000000E+00  0.93827000000E+00 0.  1.
     999902    2    1    2    0    0  0.48307866115E-02  0.10254072688E-01  0.21428812589E-01  0.10196879598E+01  0.10193997542E+01 0.  0.
     999903    2    3    3    0    0 -0.12395633808E+00 -0.12334215047E-01  0.31237074631E-01  0.12997308620E+00  0.19998542267E-01 0.  0.
         14    1    1    2    0    0 -0.48307866115E-02 -0.10254072688E-01 -0.21428812589E-01  0.24242040239E-01  0.00000000000E+00 0. -1.
     999901    1    3    3    0    0  0.12878712470E+00  0.22588287735E-01 -0.98082620420E-02  0.88971487356E+00  0.88000000000E+00 0. -1.
        -11    1    4    4    0    0 -0.58270907085E-01 -0.19756629999E-02  0.24103813167E-01  0.63092446354E-01  0.51100000000E-03 0.  1.
         11    1    4    4    0    0 -0.65685431000E-01 -0.10358552047E-01  0.71332614644E-02  0.66880639847E-01  0.51100000000E-03 0. -1.
</event>
<event>
 8    1  0.1088088E+005  0.1043930E+01  0.7957747E-01            NaN
         13   -1    0    0    0    0  0.00000000000E+00  0.00000000000E+00  0.74505805969E-08  0.10566000000E+00  0.10566000000E+00 0. -1.
     999900   -1    0    0    0    0 -0.00000000000E+00 -0.00000000000E+00 -0.74505805969E-08  0.93827000000E+00  0.93827000000E+00 0.  1.
     999902    2    1    2    0    0 -0.12938138230E-01  0.11930817371E-02  0.18408218866E-01  0.10213982139E+01  0.10211496609E+01 0.  0.
     999903    2    3    3    0    0 -0.54902211659E-01  0.77938226121E-01 -0.87232357422E-01  0.13077442572E+00  0.20095927555E-01 0.  0.
         14    1    1    2    0    0  0.12938138230E-01 -0.11930817371E-02 -0.18408218866E-01  0.22531786141E-01  0.00000000000E+00 0.  1.
     999901    1    3    3    0    0  0.41964073429E-01 -0.76745144384E-01  0.10564057629E+00  0.89062378814E+00  0.88000000000E+00 0. -1.
        -11    1    4    4    0    0 -0.29309897846E-01  0.52251733981E-01 -0.64207524508E-01  0.87819024933E-01  0.51100000000E-03 0.  1.
         11    1    4    4    0    0 -0.25592313814E-01  0.25686492141E-01 -0.23024832913E-01  0.42955400784E-01  0.51100000000E-03 0. -1.
</event>
<event>
 8    1  0.1088088E+005  0.1043930E+01  0.7957747E-01            NaN
         13   -1    0    0    0    0  0.00000000000E+00  0.00000000000E+00  0.74505805969E-08  0.10566000000E+00  0.10566000000E+00 0. -1.
     999900   -1    0    0    0    0 -0.00000000000E+00 -0.00000000000E+00 -0.74505805969E-08  0.93827000000E+00  0.93827000000E+00 0. -1.
     999902    2    1    2    0    0  0.19185720185E-01  0.89245328143E-02  0.21289602923E-02  0.10226633214E+01  0.10224421731E+01 0.  0.
     999903    2    3    3    0    0  0.63081496396E-01  0.86158340604E-01  0.79616502438E-01  0.13480284849E+00  0.20748148314E-01 0.  0.
         14    1    1    2    0    0 -0.19185720185E-01 -0.89245328143E-02 -0.21289602923E-02  0.21266678559E-01  0.00000000000E+00 0.  1.
     999901    1    3    3    0    0 -0.43895776210E-01 -0.77233807790E-01 -0.77487542145E-01  0.88786047295E+00  0.88000000000E+00 0. -1.
        -11    1    4    4    0    0  0.27400143808E-01  0.43574122784E-01  0.26322538926E-01  0.57815302763E-01  0.51100000000E-03 0.  1.
         11    1    4    4    0    0  0.35681352588E-01  0.42584217821E-01  0.53293963512E-01  0.76987545731E-01  0.51100000000E-03 0. -1.
</event>
<event>
 8    1  0.1088088E+005  0.1043930E+01  0.7957747E-01            NaN
         13   -1    0    0    0    0  0.00000000000E+00  0.00000000000E+00  0.74505805969E-08  0.10566000000E+00  0.10566000000E+00 0.  1.
     999900   -1    0    0    0    0 -0.00000000000E+00 -0.00000000000E+00 -0.74505805969E-08  0.93827000000E+00  0.93827000000E+00 0. -1.
     999902    2    1    2    0    0 -0.42208995548E-02 -0.23009320425E-01 -0.42760112967E-02  0.10201491444E+01  0.10198719271E+01 0.  0.
     999903    2    3    3    0    0  0.12306761000E+00 -0.29759828188E-01 -0.24014046459E-01  0.13074624132E+00  0.22059491988E-01 0.  0.
         14    1    1    2    0    0  0.42208995548E-02  0.23009320425E-01  0.42760112967E-02  0.23780855579E-01  0.00000000000E+00 0. -1.
     999901    1    3    3    0    0 -0.12728850955E+00  0.67505077627E-02  0.19738035162E-01  0.88940290310E+00  0.88000000000E+00 0. -1.
        -11    1    4    4    0    0  0.11175863622E+00 -0.29471292761E-01 -0.27670440303E-01  0.11884638932E+00  0.51100000000E-03 0. -1.
         11    1    4    4    0    0  0.11308973779E-01 -0.28853542732E-03  0.36563938449E-02  0.11899851998E-01  0.51100000000E-03 0.  1.
</event>
<event>
 8    1  0.1088088E+005  0.1043930E+01  0.7957747E-01            NaN
         13   -1    0    0    0    0  0.00000000000E+00  0.00000000000E+00  0.74505805969E-08  0.10566000000E+00  0.10566000000E+00 0.  1.
     999900   -1    0    0    0    0 -0.00000000000E+00 -0.00000000000E+00 -0.74505805969E-08  0.93827000000E+00  0.93827000000E+00 0. -1.
     999902    2    1    2    0    0  0.14047519526E-01 -0.18375923356E-01 -0.18820254220E-02  0.10207233332E+01  0.10204594914E+01 0.  0.
     999903    2    3    3    0    0  0.68862631962E-01  0.49135013746E-01  0.97714983263E-01  0.13084582067E+00  0.20398509157E-01 0.  0.
         14    1    1    2    0    0 -0.14047519526E-01  0.18375923356E-01  0.18820254220E-02  0.23206666794E-01  0.00000000000E+00 0. -1.
     999901    1    3    3    0    0 -0.54815112436E-01 -0.67510937101E-01 -0.99597008685E-01  0.88987751254E+00  0.88000000000E+00 0.  1.
        -11    1    4    4    0    0  0.19601250790E-01  0.25951858460E-01  0.38633892979E-01  0.50502938506E-01  0.51100000000E-03 0.  1.
         11    1    4    4    0    0  0.49261381173E-01  0.23183155285E-01  0.59081090284E-01  0.80342882163E-01  0.51100000000E-03 0. -1.
</event>
<event>
 8    1  0.1088088E+005  0.1043930E+01  0.7957747E-01            NaN
         13   -1    0    0    0    0  0.00000000000E+00  0.00000000000E+00  0.74505805969E-08  0.10566000000E+00  0.10566000000E+00 0. -1.
     999900   -1    0    0    0    0 -0.00000000000E+00 -0.00000000000E+00 -0.74505805969E-08  0.93827000000E+00  0.93827000000E+00 0. -1.
     999902    2    1    2    0    0  0.21958202431E-01 -0.59650150364E-02 -0.39420368740E-02  0.10208370636E+01  0.10205758309E+01 0.  0.
     999903    2    3    3    0    0  0.37139346820E-01 -0.77897095748E-01 -0.98753690361E-01  0.13269634216E+00  0.20217300885E-01 0.  0.
         14    1    1    2    0    0 -0.21958202431E-01  0.59650150364E-02  0.39420368740E-02  0.23092936433E-01  0.00000000000E+00 0.  1.
     999901    1    3    3    0    0 -0.15181144389E-01  0.71932080712E-01  0.94811653487E-01  0.88814072140E+00  0.88000000000E+00 0.  1.
        -11    1    4    4    0    0 -0.91980100927E-03 -0.12532019563E-01 -0.18936126630E-01  0.22731818251E-01  0.51100000000E-03 0. -1.
         11    1    4    4    0    0  0.38059147829E-01 -0.65365076185E-01 -0.79817563731E-01  0.10996452391E+00  0.51100000000E-03 0.  1.
</event>
<event>
 8    1  0.1088088E+005  0.1043930E+01  0.7957747E-01            NaN
         13   -1    0    0    0    0  0.00000000000E+00  0.00000000000E+00  0.74505805969E-08  0.10566000000E+00  0.10566000000E+00 0.  1.
     999900   -1    0    0    0    0 -0.00000000000E+00 -0.00000000000E+00 -0.74505805969E-08  0.93827000000E+00  0.93827000000E+00 0. -1.
     999902    2    1    2    0    0  0.17489953148E-01 -0.11013911591E-01  0.12239420609E-01  0.10199090065E+01  0.10196260950E+01 0.  0.
     999903    2    3    3    0    0 -0.73964794517E-01  0.82441383779E-01  0.62795605972E-01  0.12881204719E+00  0.19541821388E-01 0.  0.
         14    1    1    2    0    0 -0.17489953148E-01  0.11013911591E-01 -0.12239420609E-01  0.24020993454E-01  0.00000000000E+00 0. -1.
     999901    1    3    3    0    0  0.91454747666E-01 -0.93455295371E-01 -0.50556185363E-01  0.89109695936E+00  0.88000000000E+00 0. -1.
        -11    1    4    4    0    0 -0.65717493698E-01  0.80551880787E-01  0.57226226881E-01  0.11866969554E+00  0.51100000000E-03 0.  1.
         11    1    4    4    0    0 -0.82473008198E-02  0.18895029922E-02  0.55693790914E-02  0.10142351642E-01  0.51100000000E-03 0. -1.
</event>
<event>
 8    1  0.1088088E+005  0.1043930E+01  0.7957747E-01            NaN
         13   -1    0    0    0    0  0.00000000000E+00  0.00000000000E+00  0.74505805969E-08  0.10566000000E+00  0.10566000000E+00 0.  1.
     999900   -1    0    0    0    0 -0.00000000000E+00 -0.00000000000E+00 -0.74505805969E-08  0.93827000000E+00  0.93827000000E+00 0.  1.
     999902    2    1    2    0    0  0.91372868663E-02 -0.20943313853E-01  0.57655616908E-02  0.10203640477E+01  0.10200918761E+01 0.  0.
     999903    2    3    3    0    0  0.10924078039E+00 -0.64413649841E-01  0.35261300710E-01  0.13313218502E+00  0.19953770935E-01 0.  0.
         14    1    1    2    0    0 -0.91372868663E-02  0.20943313853E-01 -0.57655616908E-02  0.23565952305E-01  0.00000000000E+00 0. -1.
     999901    1    3    3    0    0 -0.10010349352E+00  0.43470335988E-01 -0.29495739019E-01  0.88723186268E+00  0.88000000000E+00 0.  1.
        -11    1    4    4    0    0  0.88359968700E-01 -0.58376028674E-01  0.23762077020E-01  0.10853636357E+00  0.51100000000E-03 0. -1.
         11    1    4    4    0    0  0.20880811689E-01 -0.60376211668E-02  0.11499223690E-01  0.24595821446E-01  0.51100000000E-03 0.  1.
</event>
<event>
 8    1  0.1088088E+005  0.1043930E+01  0.7957747E-01            NaN
         13   -1    0    0    0    0  0.00000000000E+00  0.00000000000E+00  0.74505805969E-08  0.10566000000E+00  0.10566000000E+00 0. -1.
     999900   -1    0    0    0    0 -0.00000000000E+00 -0.00000000000E+00 -0.74505805969E-08  0.93827000000E+00  0.93827000000E+00 0. -1.
     999902    2    1    2    0    0  0.10309391420E-02  0.18685672193E-01  0.14714650294E-01  0.10201237379E+01  0.10198459210E+01 0.  0.
     999903    2    3    3    0    0  0.11057015549E+00 -0.56070291484E-01  0.33757104071E-01  0.12998335064E+00  0.19659412392E-01 0.  0.
         14    1    1    2    0    0 -0.10309391420E-02 -0.18685672193E-01 -0.14714650294E-01  0.23806262077E-01  0.00000000000E+00 0.  1.
     999901    1    3    3    0    0 -0.10953921635E+00  0.74755963677E-01 -0.19042453777E-01  0.89014038728E+00  0.88000000000E+00 0. -1.
        -11    1    4    4    0    0  0.60701740964E-01 -0.23824080911E-01  0.25517896554E-01  0.70026511785E-01  0.51100000000E-03 0.  1.
         11    1    4    4    0    0  0.49868414530E-01 -0.32246210573E-01  0.82392075164E-02  0.59956838855E-01  0.51100000000E-03 0. -1.
</event>
<event>
 8    1  0.1088088E+005  0.1043930E+01  0.7957747E-01            NaN
         13   -1    0    0    0    0  0.00000000000E+00  0.00000000000E+00  0.74505805969E-08  0.10566000000E+00  0.10566000000E+00 0.  1.
     999900   -1    0    0    0    0 -0.00000000000E+00 -0.00000000000E+00 -0.74505805969E-08  0.93827000000E+00  0.93827000000E+00 0. -1.
     999902    2    1    2    0    0 -0.13567663689E-01 -0.84623620040E-02 -0.18435950129E-01  0.10195255470E+01  0.10192334196E+01 0.  0.
     999903    2    3    3    0    0  0.37041926336E-01 -0.12308703711E+00 -0.75425498104E-02  0.13058302192E+00  0.21737353637E-01 0.  0.
         14    1    1    2    0    0  0.13567663689E-01  0.84623620040E-02  0.18435950129E-01  0.24404452992E-01  0.00000000000E+00 0. -1.
     999901    1    3    3    0    0 -0.50609590025E-01  0.11462467511E+00 -0.10893400318E-01  0.88894252509E+00  0.88000000000E+00 0.  1.
        -11    1    4    4    0    0  0.19140988521E-01 -0.65015788600E-01 -0.14822553956E-01  0.69378667007E-01  0.51100000000E-03 0. -1.
         11    1    4    4    0    0  0.17900937814E-01 -0.58071248513E-01  0.72800041454E-02  0.61204354910E-01  0.51100000000E-03 0.  1.
</event>
<event>
 8    1  0.1088088E+005  0.1043930E+01  0.7957747E-01            NaN
         13   -1    0    0    0    0  0.00000000000E+00  0.00000000000E+00  0.74505805969E-08  0.10566000000E+00  0.10566000000E+00 0. -1.
     999900   -1    0    0    0    0 -0.00000000000E+00 -0.00000000000E+00 -0.74505805969E-08  0.93827000000E+00  0.93827000000E+00 0.  1.
     999902    2    1    2    0    0 -0.19577797713E-01 -0.16766598866E-01  0.31343677350E-02  0.10179639980E+01  0.10176327765E+01 0.  0.
     999903    2    3    3    0    0 -0.12551762824E+00 -0.21929843165E-01 -0.25173162823E-01  0.13114314623E+00  0.18145072470E-01 0.  0.
         14    1    1    2    0    0  0.19577797713E-01  0.16766598866E-01 -0.31343677350E-02  0.25966002039E-01  0.00000000000E+00 0. -1.
     999901    1    3    3    0    0  0.10593983053E+00  0.51632442998E-02  0.28307530558E-01  0.88682085173E+00  0.88000000000E+00 0. -1.
        -11    1    4    4    0    0 -0.49319738197E-01 -0.14335056446E-01 -0.17131117765E-01  0.54144868048E-01  0.51100000000E-03 0.  1.
         11    1    4    4    0    0 -0.76197890046E-01 -0.75947867196E-02 -0.80420450576E-02  0.76998278178E-01  0.51100000000E-03 0. -1.
</event>
<event>
 8    1  0.1088088E+005  0.1043930E+01  0.7957747E-01            NaN
         13   -1    0    0    0    0  0.00000000000E+00  0.00000000000E+00  0.74505805969E-08  0.10566000000E+00  0.10566000000E+00 0. -1.
     999900   -1    0    0    0    0 -0.00000000000E+00 -0.00000000000E+00 -0.74505805969E-08  0.93827000000E+00  0.93827000000E+00 0. -1.
     999902    2    1    2    0    0 -0.12037187106E-01 -0.87635221088E-02  0.19239367994E-01  0.10196021050E+01  0.10193118297E+01 0.  0.
     999903    2    3    3    0    0 -0.66012246232E-01 -0.10957738753E+00 -0.21594723386E-01  0.13126423828E+00  0.19978680201E-01 0.  0.
         14    1    1    2    0    0  0.12037187106E-01  0.87635221088E-02 -0.19239367994E-01  0.24327894977E-01  0.00000000000E+00 0.  1.
     999901    1    3    3    0    0  0.53975059125E-01  0.10081386542E+00  0.40834091380E-01  0.88833786674E+00  0.88000000000E+00 0.  1.
        -11    1    4    4    0    0 -0.58786718400E-01 -0.83087958735E-01 -0.20192561564E-01  0.10376650621E+00  0.51100000000E-03 0.  1.
         11    1    4    4    0    0 -0.72255278317E-02 -0.26489428796E-01 -0.14021618219E-02  0.27497732073E-01  0.51100000000E-03 0. -1.
</event>
<event>
 8    1  0.1088088E+005  0.1043930E+01  0.7957747E-01            NaN
         13   -1    0    0    0    0  0.00000000000E+00  0.00000000000E+00  0.74505805969E-08  0.10566000000E+00  0.10566000000E+00 0. -1.
     999900   -1    0    0    0    0 -0.00000000000E+00 -0.00000000000E+00 -0.74505805969E-08  0.93827000000E+00  0.93827000000E+00 0.  1.
     999902    2    1    2    0    0  0.14973599663E-02 -0.14250149346E-01 -0.25687204706E-01  0.10145167151E+01  0.10140902444E+01 0.  0.
     999903    2    3    3    0    0  0.80267856000E-01 -0.44673334862E-01 -0.87134983804E-01  0.12834168113E+00  0.20986809170E-01 0.  0.
         14    1    1    2    0    0 -0.14973599663E-02  0.14250149346E-01  0.25687204706E-01  0.29413284904E-01  0.00000000000E+00 0.  1.
     999901    1    3    3    0    0 -0.78770496033E-01  0.30423185517E-01  0.61447779098E-01  0.88617503396E+00  0.88000000000E+00 0.  1.
        -11    1    4    4    0    0  0.13857624273E-01 -0.17481109168E-01 -0.23842941252E-01  0.32655319578E-01  0.51100000000E-03 0.  1.
         11    1    4    4    0    0  0.66410231727E-01 -0.27192225695E-01 -0.63292042552E-01  0.95686361555E-01  0.51100000000E-03 0. -1.
</event>
<event>
 8    1  0.1088088E+005  0.1043930E+01  0.7957747E-01            NaN
         13   -1    0    0    0    0  0.00000000000E+00  0.00000000000E+00  0.74505805969E-08  0.10566000000E+00  0.10566000000E+00 0.  1.
     999900   -1    0    0    0    0 -0.00000000000E+00 -0.00000000000E+00 -0.74505805969E-08  0.93827000000E+00  0.93827000000E+00 0.  1.
     999902    2    1    2    0    0 -0.14978405327E-01  0.67788738728E-02  0.16668849888E-01  0.10205172617E+01  0.10202486585E+01 0.  0.
     999903    2    3    3    0    0 -0.14472699437E-01  0.12503504217E+00 -0.31341103703E-01  0.13130989967E+00  0.20415782383E-01 0.  0.
         14    1    1    2    0    0  0.14978405327E-01 -0.67788738728E-02 -0.16668849888E-01  0.23412738278E-01  0.00000000000E+00 0. -1.
     999901    1    3    3    0    0 -0.50570588945E-03 -0.11825616830E+00  0.48009953591E-01  0.88920736205E+00  0.88000000000E+00 0. -1.
        -11    1    4    4    0    0 -0.14127529424E-01  0.82319244241E-01 -0.29393151758E-01  0.88545262727E-01  0.51100000000E-03 0.  1.
         11    1    4    4    0    0 -0.34517001359E-03  0.42715797932E-01 -0.19479519457E-02  0.42764636945E-01  0.51100000000E-03 0. -1.
</event>
<event>
 8    1  0.1088088E+005  0.1043930E+01  0.7957747E-01            NaN
         13   -1    0    0    0    0  0.00000000000E+00  0.00000000000E+00  0.74505805969E-08  0.10566000000E+00  0.10566000000E+00 0.  1.
     999900   -1    0    0    0    0 -0.00000000000E+00 -0.00000000000E+00 -0.74505805969E-08  0.93827000000E+00  0.93827000000E+00 0. -1.
     999902    2    1    2    0    0  0.19783778678E-01  0.12914551601E-01 -0.26958724603E-04  0.10203040763E+01  0.10200305015E+01 0.  0.
     999903    2    3    3    0    0 -0.23125688542E-01 -0.13173611061E-01 -0.12584460877E+00  0.12993791814E+00  0.18402595384E-01 0.  0.
         14    1    1    2    0    0 -0.19783778678E-01 -0.12914551601E-01  0.26958724603E-04  0.23625923657E-01  0.00000000000E+00 0.  1.
     999901    1    3    3    0    0  0.42909467220E-01  0.26088162662E-01  0.12581765004E+00  0.89036615820E+00  0.88000000000E+00 0.  1.
        -11    1    4    4    0    0 -0.49768879903E-02 -0.12393779769E-01 -0.68175339414E-01  0.69473111462E-01  0.51100000000E-03 0.  1.
         11    1    4    4    0    0 -0.18148800552E-01 -0.77983129155E-03 -0.57669269351E-01  0.60464806680E-01  0.51100000000E-03 0. -1.
</event>
<event>
 8    1  0.1088088E+005  0.1043930E+01  0.7957747E-01            NaN
         13   -1    0    0    0    0  0.00000000000E+00  0.00000000000E+00  0.74505805969E-08  0.10566000000E+00  0.10566000000E+00 0. -1.
     999900   -1    0    0    0    0 -0.00000000000E+00 -0.00000000000E+00 -0.74505805969E-08  0.93827000000E+00  0.93827000000E+00 0.  1.
     999902    2    1    2    0    0  0.10470795908E-01 -0.18851221845E-01  0.96748239383E-02  0.10202951031E+01  0.10200213180E+01 0.  0.
     999903    2    3    3    0    0 -0.12474169875E+00 -0.16466544351E-01 -0.22365293289E-01  0.12938844443E+00  0.20236717041E-01 0.  0.
         14    1    1    2    0    0 -0.10470795908E-01  0.18851221845E-01 -0.96748239383E-02  0.23634896874E-01  0.00000000000E+00 0.  1.
     999901    1    3    3    0    0  0.13521249466E+00 -0.23846774943E-02  0.32040117227E-01  0.89090665870E+00  0.88000000000E+00 0.  1.
        -11    1    4    4    0    0 -0.56525373945E-01  0.26246245406E-02 -0.90148011945E-02  0.57302131855E-01  0.51100000000E-03 0. -1.
         11    1    4    4    0    0 -0.68216324810E-01 -0.19091168892E-01 -0.13350492094E-01  0.72086312573E-01  0.51100000000E-03 0.  1.
</event>
<event>
 8    1  0.1088088E+005  0.1043930E+01  0.7957747E-01            NaN
         13   -1    0    0    0    0  0.00000000000E+00  0.00000000000E+00  0.74505805969E-08  0.10566000000E+00  0.10566000000E+00 0. -1.
     999900   -1    0    0    0    0 -0.00000000000E+00 -0.00000000000E+00 -0.74505805969E-08  0.93827000000E+00  0.93827000000E+00 0. -1.
     999902    2    1    2    0    0 -0.18494574242E-01 -0.49569004269E-03  0.14560503297E-01  0.10203863545E+01  0.10201147040E+01 0.  0.
     999903    2    3    3    0    0 -0.36364865990E-01 -0.11955923828E+00  0.37056984168E-01  0.13190362118E+00  0.20212131699E-01 0.  0.
         14    1    1    2    0    0  0.18494574242E-01  0.49569004269E-03 -0.14560503297E-01  0.23543645454E-01  0.00000000000E+00 0.  1.
     999901    1    3    3    0    0  0.17870291749E-01  0.11906354823E+00 -0.22496480871E-01  0.88848273337E+00  0.88000000000E+00 0.  1.
        -11    1    4    4    0    0 -0.20566380373E-01 -0.35301958777E-01  0.11412394327E-01  0.42422967369E-01  0.51100000000E-03 0.  1.
         11    1    4    4    0    0 -0.15798485618E-01 -0.84257279500E-01  0.25644589841E-01  0.89480653807E-01  0.51100000000E-03 0. -1.
</event>
<event>
 8    1  0.1088088E+005  0.1043930E+01  0.7957747E-01            NaN
         13   -1    0    0    0    0  0.00000000000E+00  0.00000000000E+00  0.74505805969E-08  0.10566000000E+00  0.10566000000E+00 0. -1.
     999900   -1    0    0    0    0 -0.00000000000E+00 -0.00000000000E+00 -0.74505805969E-08  0.93827000000E+00  0.93827000000E+00 0.  1.
     999902    2    1    2    0    0  0.21505480394E-01 -0.76243875218E-02  0.63975643064E-02  0.10202330424E+01  0.10199578006E+01 0.  0.
     999903    2    3    3    0    0  0.12433635207E+00 -0.19383873356E-01  0.41755807197E-01  0.13346211421E+00  0.15274996006E-01 0.  0.
         14    1    1    2    0    0 -0.21505480394E-01  0.76243875218E-02 -0.63975643064E-02  0.23696957634E-01  0.00000000000E+00 0.  1.
     999901    1    3    3    0    0 -0.10283087168E+00  0.11759485834E-01 -0.35358242890E-01  0.88677092815E+00  0.88000000000E+00 0. -1.
        -11    1    4    4    0    0  0.10997719093E+00 -0.16839257312E-01  0.31521881572E-01  0.11563923751E+00  0.51100000000E-03 0. -1.
         11    1    4    4    0    0  0.14359161139E-01 -0.25446160444E-02  0.10233925625E-01  0.17822876707E-01  0.51100000000E-03 0.  1.
</event>
<event>
 8    1  0.1088088E+005  0.1043930E+01  0.7957747E-01            NaN
         13   -1    0    0    0    0  0.00000000000E+00  0.00000000000E+00  0.74505805969E-08  0.10566000000E+00  0.10566000000E+00 0. -1.
     999900   -1    0    0    0    0 -0.00000000000E+00 -0.00000000000E+00 -0.74505805969E-08  0.93827000000E+00  0.93827000000E+00 0. -1.
     999902    2    1    2    0    0  0.15559314302E-01 -0.75367635836E-02 -0.16562906327E-01  0.10199878837E+01  0.10197068490E+01 0.  0.
     999903    2    3    3    0    0  0.63252318915E-01 -0.30430723840E-01  0.10725363558E+00  0.12974674100E+00  0.20099493889E-01 0.  0.
         14    1    1    2    0    0 -0.15559314302E-01  0.75367635836E-02  0.16562906327E-01  0.23942116298E-01  0.00000000000E+00 0. -1.
     999901    1    3    3    0    0 -0.47693004613E-01  0.22893960256E-01 -0.12381654190E+00  0.89024114270E+00  0.88000000000E+00 0. -1.
        -11    1    4    4    0    0  0.55031850515E-01 -0.30493656836E-01  0.83128897133E-01  0.10425469936E+00  0.51100000000E-03 0. -1.
         11    1    4    4    0    0  0.82204684006E-02  0.62932996105E-04  0.24124738444E-01  0.25492041646E-01  0.51100000000E-03 0.  1.
</event>
<event>
 8    1  0.1088088E+005  0.1043930E+01  0.7957747E-01            NaN
         13   -1    0    0    0    0  0.00000000000E+00  0.00000000000E+00  0.74505805969E-08  0.10566000000E+00  0.10566000000E+00 0.  1.
     999900   -1    0    0    0    0 -0.00000000000E+00 -0.00000000000E+00 -0.74505805969E-08  0.93827000000E+00  0.93827000000E+00 0.  1.
     999902    2    1    2    0    0 -0.14658067289E-01 -0.72866997809E-02  0.18489110026E-01  0.10192358282E+01  0.10189366376E+01 0.  0.
     999903    2    3    3    0    0  0.91586567803E-01 -0.76541586948E-01 -0.41628692740E-01  0.12811388814E+00  0.20820815083E-01 0.  0.
         14    1    1    2    0    0  0.14658067289E-01  0.72866997809E-02 -0.18489110026E-01  0.24694171780E-01  0.00000000000E+00 0. -1.
     999901    1    3    3    0    0 -0.10624463509E+00  0.69254887167E-01  0.60117802766E-01  0.89112194008E+00  0.88000000000E+00 0. -1.
        -11    1    4    4    0    0  0.43276885433E-01 -0.32894751593E-01 -0.83698575892E-02  0.55002446602E-01  0.51100000000E-03 0. -1.
         11    1    4    4    0    0  0.48309682370E-01 -0.43646835355E-01 -0.33258835151E-01  0.73111441538E-01  0.51100000000E-03 0.  1.
</event>
<event>
 8    1  0.1088088E+005  0.1043930E+01  0.7957747E-01            NaN
         13   -1    0    0    0    0  0.00000000000E+00  0.00000000000E+00  0.74505805969E-08  0.10566000000E+00  0.10566000000E+00 0. -1.
     999900   -1    0    0    0    0 -0.00000000000E+00 -0.00000000000E+00 -0.74505805969E-08  0.93827000000E+00  0.93827000000E+00 0.  1.
     999902    2    1    2    0    0  0.11183177165E-01  0.56041070824E-02  0.19709764616E-01  0.10205859582E+01  0.10203189471E+01 0.  0.
     999903    2    3    3    0    0 -0.71248642062E-01  0.37098455189E-01  0.10311956008E+00  0.13224813236E+00  0.20081346322E-01 0.  0.
         14    1    1    2    0    0 -0.11183177165E-01 -0.56041070824E-02 -0.19709764616E-01  0.23344041829E-01  0.00000000000E+00 0.  1.
     999901    1    3    3    0    0  0.82431819228E-01 -0.31494348107E-01 -0.83409795459E-01  0.88833782581E+00  0.88000000000E+00 0.  1.
        -11    1    4    4    0    0 -0.24251590039E-01  0.10647361246E-01  0.20119438088E-01  0.33264979045E-01  0.51100000000E-03 0.  1.
         11    1    4    4    0    0 -0.46997052024E-01  0.26451093943E-01  0.83000121987E-01  0.98983153317E-01  0.51100000000E-03 0. -1.
</event>
<event>
 8    1  0.1276038E+005  0.1043930E+01  0.7957747E-01            NaN
         13   -1    0    0    0    0  0.00000000000E+00  0.00000000000E+00  0.74505805969E-08  0.10566000000E+00  0.10566000000E+00 0.  1.
     999900   -1    0    0    0    0 -0.00000000000E+00 -0.00000000000E+00 -0.74505805969E-08  0.93827000000E+00  0.93827000000E+00 0.  1.
     999902    2    1    2    0    0  0.88951835929E-02 -0.22377045059E-02 -0.21565808303E-01  0.10204946485E+01  0.10202255201E+01 0.  0.
     999903    2    3    3    0    0 -0.53673434386E-01  0.70600214987E-01 -0.95928301724E-01  0.13215351193E+00  0.19926959866E-01 0.  0.
         14    1    1    2    0    0 -0.88951835929E-02  0.22377045059E-02  0.21565808303E-01  0.23435351509E-01  0.00000000000E+00 0.  1.
     999901    1    3    3    0    0  0.62568617979E-01 -0.72837919493E-01  0.74362493421E-01  0.88834113656E+00  0.88000000000E+00 0. -1.
        -11    1    4    4    0    0 -0.23723418416E-01  0.47197873597E-01 -0.58102778331E-01  0.78527917483E-01  0.51100000000E-03 0.  1.
         11    1    4    4    0    0 -0.29950015970E-01  0.23402341390E-01 -0.37825523394E-01  0.53625594451E-01  0.51100000000E-03 0. -1.
</event>
<event>
 8    1  0.1088088E+005  0.1043930E+01  0.7957747E-01            NaN
         13   -1    0    0    0    0  0.00000000000E+00  0.00000000000E+00  0.74505805969E-08  0.10566000000E+00  0.10566000000E+00 0. -1.
     999900   -1    0    0    0    0 -0.00000000000E+00 -0.00000000000E+00 -0.74505805969E-08  0.93827000000E+00  0.93827000000E+00 0.  1.
     999902    2    1    2    0    0 -0.22292766257E-01  0.10405024847E-01 -0.52299965253E-02  0.10187787608E+01  0.10184682512E+01 0.  0.
     999903    2    3    3    0    0  0.61345258565E-01  0.77044739659E-02 -0.11089922248E+00  0.12851554271E+00  0.19874795697E-01 0.  0.
         14    1    1    2    0    0  0.22292766257E-01 -0.10405024847E-01  0.52299965253E-02  0.25151239196E-01  0.00000000000E+00 0.  1.
     999901    1    3    3    0    0 -0.83638024822E-01  0.27005508812E-02  0.10566922596E+00  0.89026321809E+00  0.88000000000E+00 0. -1.
        -11    1    4    4    0    0  0.11567763935E-01 -0.47831886058E-02 -0.13470873550E-01  0.18396130324E-01  0.51100000000E-03 0.  1.
         11    1    4    4    0    0  0.49777494630E-01  0.12487662572E-01 -0.97428348933E-01  0.11011941239E+00  0.51100000000E-03 0. -1.
</event>
<event>
 8    1  0.1088088E+005  0.1043930E+01  0.7957747E-01            NaN
         13   -1    0    0    0    0  0.00000000000E+00  0.00000000000E+00  0.74505805969E-08  0.10566000000E+00  0.10566000000E+00 0. -1.
     999900   -1    0    0    0    0 -0.00000000000E+00 -0.00000000000E+00 -0.74505805969E-08  0.93827000000E+00  0.93827000000E+00 0.  1.
     999902    2    1    2    0    0  0.19002351591E-02 -0.77308097809E-03  0.25011461949E-01  0.10188345467E+01  0.10185254301E+01 0.  0.
     999903    2    3    3    0    0  0.88656351319E-01  0.73747015111E-01  0.58375543180E-01  0.13080693996E+00  0.20104244128E-01 0.  0.
         14    1    1    2    0    0 -0.19002351591E-02  0.77308097809E-03 -0.25011461949E-01  0.25095453307E-01  0.00000000000E+00 0.  1.
     999901    1    3    3    0    0 -0.86756116160E-01 -0.74520096090E-01 -0.33364081231E-01  0.88802760674E+00  0.88000000000E+00 0.  1.
        -11    1    4    4    0    0  0.76728775718E-01  0.69485159241E-01  0.46664131245E-01  0.11354864439E+00  0.51100000000E-03 0. -1.
         11    1    4    4    0    0  0.11927575600E-01  0.42618558704E-02  0.11711411935E-01  0.17258295561E-01  0.51100000000E-03 0.  1.
</event>
<event>
 8    1  0.1088088E+005  0.1043930E+01  0.7957747E-01            NaN
         13   -1    0    0    0    0  0.00000000000E+00  0.00000000000E+00  0.74505805969E-08  0.10566000000E+00  0.10566000000E+00 0.  1.
     999900   -1    0    0    0    0 -0.00000000000E+00 -0.00000000000E+00 -0.74505805969E-08  0.93827000000E+00  0.93827000000E+00 0. -1.
     999902    2    1    2    0    0  0.35616012414E-02 -0.51713285417E-02 -0.22579508889E-01  0.10204936636E+01  0.10202245123E+01 0.  0.
     999903    2    3    3    0    0 -0.49419555604E-01  0.11796100161E+00 -0.12344009628E-01  0.13028394721E+00  0.21550915298E-01 0.  0.
         14    1    1    2    0    0 -0.35616012414E-02  0.51713285417E-02  0.22579508889E-01  0.23436336402E-01  0.00000000000E+00 0.  1.
     999901    1    3    3    0    0  0.52981156845E-01 -0.12313233015E+00 -0.10235499260E-01  0.89020971639E+00  0.88000000000E+00 0.  1.
        -11    1    4    4    0    0 -0.22763007383E-01  0.79738656249E-01 -0.11097194437E-01  0.83664906925E-01  0.51100000000E-03 0. -1.
         11    1    4    4    0    0 -0.26656548221E-01  0.38222345359E-01 -0.12468151912E-02  0.46619040284E-01  0.51100000000E-03 0.  1.
</event>
<event>
 8    1  0.1088088E+005  0.1043930E+01  0.7957747E-01            NaN
         13   -1    0    0    0    0  0.00000000000E+00  0.00000000000E+00  0.74505805969E-08  0.10566000000E+00  0.10566000000E+00 0.  1.
     999900   -1    0    0    0    0 -0.00000000000E+00 -0.00000000000E+00 -0.74505805969E-08  0.93827000000E+00  0.93827000000E+00 0.  1.
     999902    2    1    2    0    0  0.75487926452E-02  0.22140459600E-01 -0.27568245528E-02  0.10203761404E+01  0.10201042513E+01 0.  0.
     999903    2    3    3    0    0 -0.87901807286E-01  0.89409558989E-01 -0.35996358523E-01  0.13204015924E+00  0.20446732305E-01 0.  0.
         14    1    1    2    0    0 -0.75487926452E-02 -0.22140459600E-01  0.27568245528E-02  0.23553859627E-01  0.00000000000E+00 0. -1.
     999901    1    3    3    0    0  0.95450599931E-01 -0.67269099389E-01  0.33239533970E-01  0.88833598113E+00  0.88000000000E+00 0. -1.
        -11    1    4    4    0    0 -0.33535021505E-01  0.41535455359E-01 -0.24312583882E-01  0.58661355041E-01  0.51100000000E-03 0.  1.
         11    1    4    4    0    0 -0.54366785781E-01  0.47874103630E-01 -0.11683774641E-01  0.73378804198E-01  0.51100000000E-03 0. -1.
</event>
<event>
 8    1  0.1088088E+005  0.1043930E+01  0.7957747E-01            NaN
         13   -1    0    0    0    0  0.00000000000E+00  0.00000000000E+00  0.74505805969E-08  0.10566000000E+00  0.10566000000E+00 0. -1.
     999900   -1    0    0    0    0 -0.00000000000E+00 -0.00000000000E+00 -0.74505805969E-08  0.93827000000E+00  0.93827000000E+00 0.  1.
     999902    2    1    2    0    0  0.19997595652E-01  0.19445401559E-02 -0.10753879474E-01  0.10211411652E+01  0.10208868440E+01 0.  0.
     999903    2    3    3    0    0  0.36757851579E-01 -0.85072435475E-01 -0.93035158010E-01  0.13287146008E+00  0.20268826961E-01 0.  0.
         14    1    1    2    0    0 -0.19997595652E-01 -0.19445401559E-02  0.10753879474E-01  0.22788834810E-01  0.00000000000E+00 0. -1.
     999901    1    3    3    0    0 -0.16760255927E-01  0.87016975630E-01  0.82281278536E-01  0.88826970511E+00  0.88000000000E+00 0. -1.
        -11    1    4    4    0    0  0.11592160830E-01 -0.10014640371E-01 -0.19678939645E-01  0.24943796845E-01  0.51100000000E-03 0. -1.
         11    1    4    4    0    0  0.25165690749E-01 -0.75057795104E-01 -0.73356218365E-01  0.10792766323E+00  0.51100000000E-03 0.  1.
</event>
<event>
 8    1  0.1088088E+005  0.1043930E+01  0.7957747E-01            NaN
         13   -1    0    0    0    0  0.00000000000E+00  0.00000000000E+00  0.74505805969E-08  0.10566000000E+00  0.10566000000E+00 0.  1.
     999900   -1    0    0    0    0 -0.00000000000E+00 -0.00000000000E+00 -0.74505805969E-08  0.93827000000E+00  0.93827000000E+00 0.  1.
     999902    2    1    2    0    0  0.18923265415E-01  0.58609515513E-02 -0.16895886833E-01  0.10178932621E+01  0.10175602102E+01 0.  0.
     999903    2    3    3    0    0  0.20302844994E-01  0.12201294089E+00  0.30633548597E-01  0.12898818559E+00  0.20004361080E-01 0.  0.
         14    1    1    2    0    0 -0.18923265415E-01 -0.58609515513E-02  0.16895886833E-01  0.26036737871E-01  0.00000000000E+00 0.  1.
     999901    1    3    3    0    0 -0.13795795790E-02 -0.11615198934E+00 -0.47529435431E-01  0.88890507654E+00  0.88000000000E+00 0.  1.
        -11    1    4    4    0    0  0.10380876242E-02  0.97252060691E-02  0.84149245133E-02  0.12912371377E-01  0.51100000000E-03 0. -1.
         11    1    4    4    0    0  0.19264757370E-01  0.11228773482E+00  0.22218624084E-01  0.11607581421E+00  0.51100000000E-03 0.  1.
</event>
<event>
 8    1  0.1088088E+005  0.1043930E+01  0.7957747E-01            NaN
         13   -1    0    0    0    0  0.00000000000E+00  0.00000000000E+00  0.74505805969E-08  0.10566000000E+00  0.10566000000E+00 0.  1.
     999900   -1    0    0    0    0 -0.00000000000E+00 -0.00000000000E+00 -0.74505805969E-08  0.93827000000E+00  0.93827000000E+00 0.  1.
     999902    2    1    2    0    0 -0.12813520947E-01  0.16076731191E-01 -0.75756251923E-02  0.10220202373E+01  0.10217853628E+01 0.  0.
     999903    2    3    3    0    0  0.16306905743E-01 -0.62466145361E-01 -0.11242357816E+00  0.13184605437E+00  0.24008053536E-01 0.  0.
         14    1    1    2    0    0  0.12813520947E-01 -0.16076731191E-01  0.75756251923E-02  0.21909762708E-01  0.00000000000E+00 0. -1.
     999901    1    3    3    0    0 -0.29120426690E-01  0.78542876552E-01  0.10484795297E+00  0.89017418293E+00  0.88000000000E+00 0. -1.
        -11    1    4    4    0    0  0.16175380904E-01 -0.28662444614E-01 -0.71868173301E-01  0.79047290487E-01  0.51100000000E-03 0.  1.
         11    1    4    4    0    0  0.13152483922E-03 -0.33803700747E-01 -0.40555404858E-01  0.52798763879E-01  0.51100000000E-03 0. -1.
</event>
<event>
 8    1  0.1088088E+005  0.1043930E+01  0.7957747E-01            NaN
         13   -1    0    0    0    0  0.00000000000E+00  0.00000000000E+00  0.74505805969E-08  0.10566000000E+00  0.10566000000E+00 0. -1.
     999900   -1    0    0    0    0 -0.00000000000E+00 -0.00000000000E+00 -0.74505805969E-08  0.93827000000E+00  0.93827000000E+00 0. -1.
     999902    2    1    2    0    0 -0.23007451132E-01  0.45648377508E-02  0.15150107221E-02  0.10204251960E+01  0.10201544515E+01 0.  0.
     999903    2    3    3    0    0 -0.10817727328E+00  0.48089742696E-01  0.58145657111E-01  0.13343289278E+00  0.20210730471E-01 0.  0.
         14    1    1    2    0    0  0.23007451132E-01 -0.45648377508E-02 -0.15150107221E-02  0.23504803951E-01  0.00000000000E+00 0. -1.
     999901    1    3    3    0    0  0.85169822151E-01 -0.43524904945E-01 -0.56630646389E-01  0.88699230327E+00  0.88000000000E+00 0. -1.
        -11    1    4    4    0    0 -0.65713706948E-01  0.20541636237E-01  0.26734536669E-01  0.73859641700E-01  0.51100000000E-03 0.  1.
         11    1    4    4    0    0 -0.42463566336E-01  0.27548106459E-01  0.31411120441E-01  0.59573251076E-01  0.51100000000E-03 0. -1.
</event>
<event>
 8    1  0.1088088E+005  0.1043930E+01  0.7957747E-01            NaN
         13   -1    0    0    0    0  0.00000000000E+00  0.00000000000E+00  0.74505805969E-08  0.10566000000E+00  0.10566000000E+00 0.  1.
     999900   -1    0    0    0    0 -0.00000000000E+00 -0.00000000000E+00 -0.74505805969E-08  0.93827000000E+00  0.93827000000E+00 0. -1.
     999902    2    1    2    0    0  0.20810081842E-01  0.33248590705E-02  0.94768034088E-02  0.10208232045E+01  0.10205616546E+01 0.  0.
     999903    2    3    3    0    0  0.69413250514E-01  0.76173416844E-01 -0.79915153043E-01  0.13196995328E+00  0.20224937636E-01 0.  0.
         14    1    1    2    0    0 -0.20810081842E-01 -0.33248590705E-02 -0.94768034088E-02  0.23106795472E-01  0.00000000000E+00 0. -1.
     999901    1    3    3    0    0 -0.48603168672E-01 -0.72848557774E-01  0.89391956452E-01  0.88885325125E+00  0.88000000000E+00 0.  1.
        -11    1    4    4    0    0  0.62233738960E-01  0.58577587373E-01 -0.70304313401E-01  0.11066765386E+00  0.51100000000E-03 0.  1.
         11    1    4    4    0    0  0.71795115543E-02  0.17595829471E-01 -0.96108396419E-02  0.21302299419E-01  0.51100000000E-03 0. -1.
</event>
<event>
 8    1  0.1088088E+005  0.1043930E+01  0.7957747E-01            NaN
         13   -1    0    0    0    0  0.00000000000E+00  0.00000000000E+00  0.74505805969E-08  0.10566000000E+00  0.10566000000E+00 0. -1.
     999900   -1    0    0    0    0 -0.00000000000E+00 -0.00000000000E+00 -0.74505805969E-08  0.93827000000E+00  0.93827000000E+00 0.  1.
     999902    2    1    2    0    0  0.55572091937E-03 -0.23170092928E-01 -0.32570474307E-02  0.10205255049E+01  0.10202570930E+01 0.  0.
     999903    2    3    3    0    0 -0.67245555954E-01  0.76999042195E-01  0.75222973207E-01  0.12879124943E+00  0.21860305040E-01 0.  0.
         14    1    1    2    0    0 -0.55572091937E-03  0.23170092928E-01  0.32570474307E-02  0.23404495081E-01  0.00000000000E+00 0. -1.
     999901    1    3    3    0    0  0.67801276873E-01 -0.10016913512E+00 -0.78480020638E-01  0.89173425549E+00  0.88000000000E+00 0.  1.
        -11    1    4    4    0    0 -0.50982817213E-01  0.61237016024E-01  0.68719189716E-01  0.10522265887E+00  0.51100000000E-03 0. -1.
         11    1    4    4    0    0 -0.16262738741E-01  0.15762026171E-01  0.65037834911E-02  0.23568590562E-01  0.51100000000E-03 0.  1.
</event>
<event>
 8    1  0.1088088E+005  0.1043930E+01  0.7957747E-01            NaN
         13   -1    0    0    0    0  0.00000000000E+00  0.00000000000E+00  0.74505805969E-08  0.10566000000E+00  0.10566000000E+00 0. -1.
     999900   -1    0    0    0    0 -0.00000000000E+00 -0.00000000000E+00 -0.74505805969E-08  0.93827000000E+00  0.93827000000E+00 0.  1.
     999902    2    1    2    0    0 -0.14922924444E-01 -0.12135206950E-01 -0.13953403567E-01  0.10201675424E+01  0.10198907589E+01 0.  0.
     999903    2    3    3    0    0 -0.71645522583E-01  0.10038135551E+00 -0.39135574697E-01  0.13083544933E+00  0.19411959055E-01 0.  0.
         14    1    1    2    0    0  0.14922924444E-01  0.12135206950E-01  0.13953403567E-01  0.23762457634E-01  0.00000000000E+00 0. -1.
     999901    1    3    3    0    0  0.56722598139E-01 -0.11251656246E+00  0.25182171131E-01  0.88933209304E+00  0.88000000000E+00 0. -1.
        -11    1    4    4    0    0 -0.26389761733E-01  0.36335956133E-01 -0.46028370397E-02  0.45146079146E-01  0.51100000000E-03 0.  1.
         11    1    4    4    0    0 -0.45255760850E-01  0.64045399373E-01 -0.34532737658E-01  0.85689370181E-01  0.51100000000E-03 0. -1.
</event>
<event>
 8    1  0.1088088E+005  0.1043930E+01  0.7957747E-01            NaN
         13   -1    0    0    0    0  0.00000000000E+00  0.00000000000E+00  0.74505805969E-08  0.10566000000E+00  0.10566000000E+00 0. -1.
     999900   -1    0    0    0    0 -0.00000000000E+00 -0.00000000000E+00 -0.74505805969E-08  0.93827000000E+00  0.93827000000E+00 0. -1.
     999902    2    1    2    0    0  0.20666201746E-01  0.52102605889E-02  0.95043462806E-02  0.10205939483E+01  0.10203271221E+01 0.  0.
     999903    2    3    3    0    0  0.10529582808E+00 -0.10009134167E-02  0.79154689870E-01  0.13377270212E+00  0.23269242937E-01 0.  0.
         14    1    1    2    0    0 -0.20666201746E-01 -0.52102605889E-02 -0.95043462806E-02  0.23336051684E-01  0.00000000000E+00 0.  1.
     999901    1    3    3    0    0 -0.84629626332E-01  0.62111740056E-02 -0.69650343589E-01  0.88682124619E+00  0.88000000000E+00 0. -1.
        -11    1    4    4    0    0  0.90188109835E-01 -0.85634956516E-02  0.62643520226E-01  0.11014399830E+00  0.51100000000E-03 0. -1.
         11    1    4    4    0    0  0.15107718242E-01  0.75625822349E-02  0.16511169644E-01  0.23628703827E-01  0.51100000000E-03 0.  1.
</event>
<event>
 8    1  0.1223313E+005  0.1043930E+01  0.7957747E-01            NaN
         13   -1    0    0    0    0  0.00000000000E+00  0.00000000000E+00  0.74505805969E-08  0.10566000000E+00  0.10566000000E+00 0. -1.
     999900   -1    0    0    0    0 -0.00000000000E+00 -0.00000000000E+00 -0.74505805969E-08  0.93827000000E+00  0.93827000000E+00 0. -1.
     999902    2    1    2    0    0  0.11183373320E-02  0.26938529540E-02 -0.23209292270E-01  0.10205381474E+01  0.10202700287E+01 0.  0.
     999903    2    3    3    0    0 -0.62731085174E-01  0.10213725324E+00 -0.52007789354E-01  0.13217161712E+00  0.19932854124E-01 0.  0.
         14    1    1    2    0    0 -0.11183373320E-02 -0.26938529540E-02  0.23209292270E-01  0.23391852637E-01  0.00000000000E+00 0. -1.
     999901    1    3    3    0    0  0.63849422506E-01 -0.99443400284E-01  0.28798497084E-01  0.88836653024E+00  0.88000000000E+00 0.  1.
        -11    1    4    4    0    0 -0.34244135772E-01  0.37911168492E-01 -0.25226714019E-01  0.56978642950E-01  0.51100000000E-03 0. -1.
         11    1    4    4    0    0 -0.28486949402E-01  0.64226084746E-01 -0.26781075335E-01  0.75192974174E-01  0.51100000000E-03 0.  1.
</event>
<event>
 7    1  0.1088088E+005  0.1043930E+01  0.7957747E-01            NaN
         13   -1    0    0    0    0  0.00000000000E+00  0.00000000000E+00  0.74505805969E-08  0.10566000000E+00  0.10566000000E+00 0.  1.
     999900   -1    0    0    0    0 -0.00000000000E+00 -0.00000000000E+00 -0.74505805969E-08  0.93827000000E+00  0.93827000000E+00 0. -1.
     999903    2    1    2    0    0 -0.75179982548E-01 -0.18121851867E-01  0.86338352755E-01  0.11762433540E+00  0.20018537187E-01 0.  0.
         14    1    1    2    0    0  0.12167284672E-01 -0.20480849010E-01 -0.34188844754E-01  0.41669954381E-01  0.00000000000E+00 0.  1.
     999901    1    1    2    0    0  0.63012697876E-01  0.38602700877E-01 -0.52149508001E-01  0.88463571022E+00  0.88000000000E+00 0. -1.
        -11    1    3    3    0    0 -0.62410489563E-01 -0.22537554620E-01  0.72163221792E-01  0.98034699347E-01  0.51100000000E-03 0. -1.
         11    1    3    3    0    0 -0.12769492985E-01  0.44157027530E-02  0.14175130963E-01  0.19589636054E-01  0.51100000000E-03 0.  1.
</event>
<event>
 8    1  0.1088088E+005  0.1043930E+01  0.7957747E-01            NaN
         13   -1    0    0    0    0  0.00000000000E+00  0.00000000000E+00  0.74505805969E-08  0.10566000000E+00  0.10566000000E+00 0. -1.
     999900   -1    0    0    0    0 -0.00000000000E+00 -0.00000000000E+00 -0.74505805969E-08  0.93827000000E+00  0.93827000000E+00 0. -1.
     999902    2    1    2    0    0  0.25371184559E-01  0.49604358423E-02 -0.10759018237E-01  0.10159289393E+01  0.10155429829E+01 0.  0.
     999903    2    3    3    0    0  0.98266602146E-01 -0.13655874536E-01 -0.81637003905E-01  0.12987928050E+00  0.19005764662E-01 0.  0.
         14    1    1    2    0    0 -0.25371184559E-01 -0.49604358423E-02  0.10759018237E-01  0.28001060749E-01  0.00000000000E+00 0. -1.
     999901    1    3    3    0    0 -0.72895417587E-01  0.18616310378E-01  0.70877985668E-01  0.88604965875E+00  0.88000000000E+00 0.  1.
        -11    1    4    4    0    0  0.29998951722E-01  0.45785206879E-02 -0.24195850497E-01  0.38814948903E-01  0.51100000000E-03 0.  1.
         11    1    4    4    0    0  0.68267650424E-01 -0.18234395224E-01 -0.57441153408E-01  0.91064331598E-01  0.51100000000E-03 0. -1.
</event>
<event>
 8    1  0.1088088E+005  0.1043930E+01  0.7957747E-01            NaN
         13   -1    0    0    0    0  0.00000000000E+00  0.00000000000E+00  0.74505805969E-08  0.10566000000E+00  0.10566000000E+00 0.  1.
     999900   -1    0    0    0    0 -0.00000000000E+00 -0.00000000000E+00 -0.74505805969E-08  0.93827000000E+00  0.93827000000E+00 0. -1.
     999902    2    1    2    0    0 -0.84942424620E-02 -0.84256973469E-02  0.20434133663E-01  0.10202509301E+01  0.10199761086E+01 0.  0.
     999903    2    3    3    0    0  0.98957137352E-01  0.26980907304E-02 -0.77214848214E-01  0.12828408023E+00  0.26360533540E-01 0.  0.
         14    1    1    2    0    0  0.84942424620E-02  0.84256973469E-02 -0.20434133663E-01  0.23679069858E-01  0.00000000000E+00 0. -1.
     999901    1    3    3    0    0 -0.10745137981E+00 -0.11123788077E-01  0.97648981877E-01  0.89196684991E+00  0.88000000000E+00 0.  1.
        -11    1    4    4    0    0  0.13244483983E-01  0.89108282860E-02 -0.17150278838E-01  0.23435281136E-01  0.51100000000E-03 0. -1.
         11    1    4    4    0    0  0.85712653368E-01 -0.62127375556E-02 -0.60064569376E-01  0.10484879909E+00  0.51100000000E-03 0.  1.
</event>
<event>
 8    1  0.1088088E+005  0.1043930E+01  0.7957747E-01            NaN
         13   -1    0    0    0    0  0.00000000000E+00  0.00000000000E+00  0.74505805969E-08  0.10566000000E+00  0.10566000000E+00 0. -1.
     999900   -1    0    0    0    0 -0.00000000000E+00 -0.00000000000E+00 -0.74505805969E-08  0.93827000000E+00  0.93827000000E+00 0. -1.
     999902    2    1    2    0    0 -0.11664509125E-01  0.92253098164E-02 -0.17518249049E-01  0.10209505273E+01  0.10206918845E+01 0.  0.
     999903    2    3    3    0    0 -0.77918178073E-01  0.10296779398E+00 -0.27170543765E-01  0.13344257313E+00  0.19876438361E-01 0.  0.
         14    1    1    2    0    0  0.11664509125E-01 -0.92253098164E-02  0.17518249049E-01  0.22979472667E-01  0.00000000000E+00 0. -1.
     999901    1    3    3    0    0  0.66253668948E-01 -0.93742484167E-01  0.96522947162E-02  0.88750795421E+00  0.88000000000E+00 0. -1.
        -11    1    4    4    0    0 -0.33289522953E-01  0.36600414323E-01 -0.17035318676E-02  0.49507027873E-01  0.51100000000E-03 0.  1.
         11    1    4    4    0    0 -0.44628655120E-01  0.66367379661E-01 -0.25467011897E-01  0.83935545253E-01  0.51100000000E-03 0. -1.
</event>
<event>
 8    1  0.1088088E+005  0.1043930E+01  0.7957747E-01            NaN
         13   -1    0    0    0    0  0.00000000000E+00  0.00000000000E+00  0.74505805969E-08  0.10566000000E+00  0.10566000000E+00 0. -1.
     999900   -1    0    0    0    0 -0.00000000000E+00 -0.00000000000E+00 -0.74505805969E-08  0.93827000000E+00  0.93827000000E+00 0. -1.
     999902    2    1    2    0    0 -0.11008223749E-02  0.23385874311E-01  0.40257935115E-02  0.10201746229E+01  0.10198980063E+01 0.  0.
     999903    2    3    3    0    0  0.22263892953E-01  0.94581993099E-01  0.88714460651E-01  0.13293904676E+00  0.19002638662E-01 0.  0.
         14    1    1    2    0    0  0.11008223749E-02 -0.23385874311E-01 -0.40257935115E-02  0.23755377088E-01  0.00000000000E+00 0.  1.
     999901    1    3    3    0    0 -0.23364715328E-01 -0.71196118788E-01 -0.84688667140E-01  0.88723557615E+00  0.88000000000E+00 0. -1.
        -11    1    4    4    0    0  0.18467676198E-01  0.70951565075E-01  0.55299535740E-01  0.91833977507E-01  0.51100000000E-03 0.  1.
         11    1    4    4    0    0  0.37962167555E-02  0.23630428024E-01  0.33414924911E-01  0.41105069250E-01  0.51100000000E-03 0. -1.
</event>
<event>
 8    1  0.1088088E+005  0.1043930E+01  0.7957747E-01            NaN
         13   -1    0    0    0    0  0.00000000000E+00  0.00000000000E+00  0.74505805969E-08  0.10566000000E+00  0.10566000000E+00 0.  1.
     999900   -1    0    0    0    0 -0.00000000000E+00 -0.00000000000E+00 -0.74505805969E-08  0.93827000000E+00  0.93827000000E+00 0.  1.
     999902    2    1    2    0    0 -0.12230533686E-01  0.13519346753E-01  0.13663969625E-01  0.10211470512E+01  0.10208928628E+01 0.  0.
     999903    2    3    3    0    0  0.11718744654E-01 -0.12387651085E+00 -0.28471725559E-01  0.12916801195E+00  0.19774155812E-01 0.  0.
         14    1    1    2    0    0  0.12230533686E-01 -0.13519346753E-01 -0.13663969625E-01  0.22782948817E-01  0.00000000000E+00 0. -1.
     999901    1    3    3    0    0 -0.23949278340E-01  0.13739585761E+00  0.42135695184E-01  0.89197903923E+00  0.88000000000E+00 0. -1.
        -11    1    4    4    0    0  0.13664224821E-01 -0.43878888295E-01 -0.11089261276E-01  0.47278966937E-01  0.51100000000E-03 0.  1.
         11    1    4    4    0    0 -0.19454801676E-02 -0.79997622557E-01 -0.17382464282E-01  0.81889045014E-01  0.51100000000E-03 0. -1.
</event>
<event>
 8    1  0.1088088E+005  0.1043930E+01  0.7957747E-01            NaN
         13   -1    0    0    0    0  0.00000000000E+00  0.00000000000E+00  0.74505805969E-08  0.10566000000E+00  0.10566000000E+00 0.  1.
     999900   -1    0    0    0    0 -0.00000000000E+00 -0.00000000000E+00 -0.74505805969E-08  0.93827000000E+00  0.93827000000E+00 0. -1.
     999902    2    1    2    0    0  0.10644207162E-01 -0.15865155858E-01 -0.12572844775E-01  0.10210590852E+01  0.10208029079E+01 0.  0.
     999903    2    3    3    0    0  0.10293022916E+00 -0.17948709051E-01 -0.80951512725E-01  0.13359263895E+00  0.19417969448E-01 0.  0.
         14    1    1    2    0    0 -0.10644207162E-01  0.15865155858E-01  0.12572844775E-01  0.22870914766E-01  0.00000000000E+00 0.  1.
     999901    1    3    3    0    0 -0.92286021998E-01  0.20835531930E-02  0.68378667950E-01  0.88746644628E+00  0.88000000000E+00 0.  1.
        -11    1    4    4    0    0  0.45575003162E-01 -0.94920901545E-02 -0.24231588458E-01  0.52484394718E-01  0.51100000000E-03 0.  1.
         11    1    4    4    0    0  0.57355225998E-01 -0.84566188963E-02 -0.56719924267E-01  0.81108244231E-01  0.51100000000E-03 0. -1.
</event>
<event>
 8    1  0.1088088E+005  0.1043930E+01  0.7957747E-01            NaN
         13   -1    0    0    0    0  0.00000000000E+00  0.00000000000E+00  0.74505805969E-08  0.10566000000E+00  0.10566000000E+00 0.  1.
     999900   -1    0    0    0    0 -0.00000000000E+00 -0.00000000000E+00 -0.74505805969E-08  0.93827000000E+00  0.93827000000E+00 0.  1.
     999902    2    1    2    0    0 -0.59814350614E-02 -0.86818801105E-02 -0.21156315118E-01  0.10202922701E+01  0.10200184185E+01 0.  0.
     999903    2    3    3    0    0 -0.58061509035E-01  0.54462974555E-01  0.98740540230E-01  0.12839829502E+00  0.19976822839E-01 0.  0.
         14    1    1    2    0    0  0.59814350614E-02  0.86818801105E-02  0.21156315118E-01  0.23637729946E-01  0.00000000000E+00 0.  1.
     999901    1    3    3    0    0  0.52080073973E-01 -0.63144854666E-01 -0.11989685535E+00  0.89189397503E+00  0.88000000000E+00 0.  1.
        -11    1    4    4    0    0 -0.54931685283E-01  0.43042140297E-01  0.88709020291E-01  0.11287013463E+00  0.51100000000E-03 0.  1.
         11    1    4    4    0    0 -0.31298237523E-02  0.11420834258E-01  0.10031519939E-01  0.15528160392E-01  0.51100000000E-03 0. -1.
</event>
<event>
 8    1  0.1088088E+005  0.1043930E+01  0.7957747E-01            NaN
         13   -1    0    0    0    0  0.00000000000E+00  0.00000000000E+00  0.74505805969E-08  0.10566000000E+00  0.10566000000E+00 0.  1.
     999900   -1    0    0    0    0 -0.00000000000E+00 -0.00000000000E+00 -0.74505805969E-08  0.93827000000E+00  0.93827000000E+00 0. -1.
     999902    2    1    2    0    0 -0.78816465414E-02 -0.49562668969E-02  0.21576189959E-01  0.10204307041E+01  0.10201600879E+01 0.  0.
     999903    2    3    3    0    0 -0.58136286424E-01 -0.15191696946E-01  0.11770666278E+00  0.13371126672E+00  0.20328033114E-01 0.  0.
         14    1    1    2    0    0  0.78816465414E-02  0.49562668969E-02 -0.21576189959E-01  0.23499295881E-01  0.00000000000E+00 0. -1.
     999901    1    3    3    0    0  0.50254639882E-01  0.10235430049E-01 -0.96130472819E-01  0.88671943740E+00  0.88000000000E+00 0. -1.
        -11    1    4    4    0    0 -0.33758550488E-01  0.12502101717E-02  0.68689392499E-01  0.76548654589E-01  0.51100000000E-03 0.  1.
         11    1    4    4    0    0 -0.24377735936E-01 -0.16441907117E-01  0.49017270279E-01  0.57162612131E-01  0.51100000000E-03 0. -1.
</event>
<event>
 8    1  0.1088088E+005  0.1043930E+01  0.7957747E-01            NaN
         13   -1    0    0    0    0  0.00000000000E+00  0.00000000000E+00  0.74505805969E-08  0.10566000000E+00  0.10566000000E+00 0. -1.
     999900   -1    0    0    0    0 -0.00000000000E+00 -0.00000000000E+00 -0.74505805969E-08  0.93827000000E+00  0.93827000000E+00 0.  1.
     999902    2    1    2    0    0  0.20669666877E-01 -0.13810882671E-01  0.86131695302E-02  0.10176210225E+01  0.10172808772E+01 0.  0.
     999903    2    3    3    0    0 -0.99357512188E-01  0.64234717442E-01  0.37300958207E-01  0.12558928054E+00  0.19577838222E-01 0.  0.
         14    1    1    2    0    0 -0.20669666877E-01  0.13810882671E-01 -0.86131695302E-02  0.26308977523E-01  0.00000000000E+00 0.  1.
     999901    1    3    3    0    0  0.12002717906E+00 -0.78045600112E-01 -0.28687788677E-01  0.89203174194E+00  0.88000000000E+00 0.  1.
        -11    1    4    4    0    0 -0.31922728642E-01  0.16230043308E-01  0.28495681419E-02  0.35928485486E-01  0.51100000000E-03 0.  1.
         11    1    4    4    0    0 -0.67434783545E-01  0.48004674134E-01  0.34451390065E-01  0.89660795050E-01  0.51100000000E-03 0. -1.
</event>
<event>
 8    1  0.1088088E+005  0.1043930E+01  0.7957747E-01            NaN
         13   -1    0    0    0    0  0.00000000000E+00  0.00000000000E+00  0.74505805969E-08  0.10566000000E+00  0.10566000000E+00 0.  1.
     999900   -1    0    0    0    0 -0.00000000000E+00 -0.00000000000E+00 -0.74505805969E-08  0.93827000000E+00  0.93827000000E+00 0. -1.
     999902    2    1    2    0    0 -0.15751219816E-01 -0.16318983658E-01 -0.68811693086E-03  0.10212389520E+01  0.10209868332E+01 0.  0.
     999903    2    3    3    0    0 -0.10292610992E+00 -0.36446547456E-01 -0.74328169906E-01  0.13364251349E+00  0.20334936627E-01 0.  0.
         14    1    1    2    0    0  0.15751219816E-01  0.16318983658E-01  0.68811693086E-03  0.22691047976E-01  0.00000000000E+00 0.  1.
     999901    1    3    3    0    0  0.87174890100E-01  0.20127563799E-01  0.73640052975E-01  0.88759643853E+00  0.88000000000E+00 0.  1.
        -11    1    4    4    0    0 -0.68421078122E-01 -0.15470456320E-01 -0.53369883598E-01  0.88144112375E-01  0.51100000000E-03 0. -1.
         11    1    4    4    0    0 -0.34505031794E-01 -0.20976091136E-01 -0.20958286308E-01  0.45498401119E-01  0.51100000000E-03 0.  1.
</event>
<event>
 8    1  0.1088088E+005  0.1043930E+01  0.7957747E-01            NaN
         13   -1    0    0    0    0  0.00000000000E+00  0.00000000000E+00  0.74505805969E-08  0.10566000000E+00  0.10566000000E+00 0.  1.
     999900   -1    0    0    0    0 -0.00000000000E+00 -0.00000000000E+00 -0.74505805969E-08  0.93827000000E+00  0.93827000000E+00 0.  1.
     999902    2    1    2    0    0  0.32466593671E-02  0.39678405878E-02  0.20086474977E-01  0.10231995626E+01  0.10229895376E+01 0.  0.
     999903    2    3    3    0    0  0.10785580607E+00 -0.85887150312E-02 -0.73011820938E-01  0.13203850348E+00  0.19919826199E-01 0.  0.
         14    1    1    2    0    0 -0.32466593671E-02 -0.39678405878E-02 -0.20086474977E-01  0.20730437356E-01  0.00000000000E+00 0. -1.
     999901    1    3    3    0    0 -0.10460914671E+00  0.12556555619E-01  0.93098295915E-01  0.89116105916E+00  0.88000000000E+00 0. -1.
        -11    1    4    4    0    0  0.37846465458E-01  0.61138182124E-02 -0.28641506443E-01  0.47857399983E-01  0.51100000000E-03 0.  1.
         11    1    4    4    0    0  0.70009340614E-01 -0.14702533244E-01 -0.44370314496E-01  0.84181103500E-01  0.51100000000E-03 0. -1.
</event>
<event>
 8    1  0.1088088E+005  0.1043930E+01  0.7957747E-01            NaN
         13   -1    0    0    0    0  0.00000000000E+00  0.00000000000E+00  0.74505805969E-08  0.10566000000E+00  0.10566000000E+00 0. -1.
     999900   -1    0    0    0    0 -0.00000000000E+00 -0.00000000000E+00 -0.74505805969E-08  0.93827000000E+00  0.93827000000E+00 0. -1.
     999902    2    1    2    0    0  0.51255100319E-02  0.21332219874E-01  0.87681873721E-02  0.10203034140E+01  0.10200298236E+01 0.  0.
     999903    2    3    3    0    0 -0.99894437819E-02 -0.10332656015E+00  0.73890109355E-01  0.12900708951E+00  0.20172106069E-01 0.  0.
         14    1    1    2    0    0 -0.51255100319E-02 -0.21332219874E-01 -0.87681873721E-02  0.23626586034E-01  0.00000000000E+00 0.  1.
     999901    1    3    3    0    0  0.15114953814E-01  0.12465878003E+00 -0.65121921983E-01  0.89129632446E+00  0.88000000000E+00 0. -1.
        -11    1    4    4    0    0  0.34407932448E-02 -0.64831281000E-01  0.47338903360E-01  0.80350276581E-01  0.51100000000E-03 0. -1.
         11    1    4    4    0    0 -0.13430237027E-01 -0.38495279152E-01  0.26551205995E-01  0.48656812929E-01  0.51100000000E-03 0.  1.
</event>
<event>
 8    1  0.1088088E+005  0.1043930E+01  0.7957747E-01            NaN
         13   -1    0    0    0    0  0.00000000000E+00  0.00000000000E+00  0.74505805969E-08  0.10566000000E+00  0.10566000000E+00 0. -1.
     999900   -1    0    0    0    0 -0.00000000000E+00 -0.00000000000E+00 -0.74505805969E-08  0.93827000000E+00  0.93827000000E+00 0. -1.
     999902    2    1    2    0    0  0.11615634403E-01 -0.10621116026E-01  0.19330428085E-01  0.10190021738E+01  0.10186972238E+01 0.  0.
     999903    2    3    3    0    0  0.88330483084E-01 -0.59187054417E-01  0.76097767662E-01  0.13251114215E+00  0.21516293802E-01 0.  0.
         14    1    1    2    0    0 -0.11615634403E-01  0.10621116026E-01 -0.19330428085E-01  0.24927826182E-01  0.00000000000E+00 0. -1.
     999901    1    3    3    0    0 -0.76714848682E-01  0.48565938391E-01 -0.56767339577E-01  0.88649103167E+00  0.88000000000E+00 0. -1.
        -11    1    4    4    0    0  0.24736169818E-01 -0.27611659478E-01  0.31616297194E-01  0.48725077790E-01  0.51100000000E-03 0. -1.
         11    1    4    4    0    0  0.63594313266E-01 -0.31575394939E-01  0.44481470468E-01  0.83786064362E-01  0.51100000000E-03 0.  1.
</event>
<event>
 8    1  0.1088088E+005  0.1043930E+01  0.7957747E-01            NaN
         13   -1    0    0    0    0  0.00000000000E+00  0.00000000000E+00  0.74505805969E-08  0.10566000000E+00  0.10566000000E+00 0.  1.
     999900   -1    0    0    0    0 -0.00000000000E+00 -0.00000000000E+00 -0.74505805969E-08  0.93827000000E+00  0.93827000000E+00 0.  1.
     999902    2    1    2    0    0  0.12160503748E-01 -0.95921060457E-02  0.17376236537E-01  0.10206529739E+01  0.10203875112E+01 0.  0.
     999903    2    3    3    0    0  0.89345437161E-01 -0.32169903575E-01 -0.87662725046E-01  0.13076508522E+00  0.19930988783E-01 0.  0.
         14    1    1    2    0    0 -0.12160503748E-01  0.95921060457E-02 -0.17376236537E-01  0.23277026141E-01  0.00000000000E+00 0. -1.
     999901    1    3    3    0    0 -0.77184933414E-01  0.22577797529E-01  0.10503896158E+00  0.88988788863E+00  0.88000000000E+00 0. -1.
        -11    1    4    4    0    0  0.62888599918E-01 -0.31893220147E-01 -0.65610803185E-01  0.96318181599E-01  0.51100000000E-03 0.  1.
         11    1    4    4    0    0  0.26456837243E-01 -0.27668342714E-03 -0.22051921861E-01  0.34446903626E-01  0.51100000000E-03 0. -1.
</event>
<event>
 8    1  0.1088088E+005  0.1043930E+01  0.7957747E-01            NaN
         13   -1    0    0    0    0  0.00000000000E+00  0.00000000000E+00  0.74505805969E-08  0.10566000000E+00  0.10566000000E+00 0. -1.
     999900   -1    0    0    0    0 -0.00000000000E+00 -0.00000000000E+00 -0.74505805969E-08  0.93827000000E+00  0.93827000000E+00 0. -1.
     999902    2    1    2    0    0  0.17543860459E-01  0.59370643234E-02  0.15615235746E-01  0.10197045720E+01  0.10194167660E+01 0.  0.
     999903    2    3    3    0    0 -0.18613761355E-01 -0.69837538287E-01  0.10737946160E+00  0.13095835564E+00  0.19899454044E-01 0.  0.
         14    1    1    2    0    0 -0.17543860459E-01 -0.59370643234E-02 -0.15615235746E-01  0.24225427963E-01  0.00000000000E+00 0.  1.
     999901    1    3    3    0    0  0.36157621814E-01  0.75774602610E-01 -0.91764225858E-01  0.88874621640E+00  0.88000000000E+00 0.  1.
        -11    1    4    4    0    0 -0.57983183178E-02 -0.36356179798E-01  0.70425899744E-01  0.79469873415E-01  0.51100000000E-03 0.  1.
         11    1    4    4    0    0 -0.12815443037E-01 -0.33481358489E-01  0.36953561861E-01  0.51488482224E-01  0.51100000000E-03 0. -1.
</event>
<event>
 8    1  0.1088088E+005  0.1043930E+01  0.7957747E-01            NaN
         13   -1    0    0    0    0  0.00000000000E+00  0.00000000000E+00  0.74505805969E-08  0.10566000000E+00  0.10566000000E+00 0.  1.
     999900   -1    0    0    0    0 -0.00000000000E+00 -0.00000000000E+00 -0.74505805969E-08  0.93827000000E+00  0.93827000000E+00 0.  1.
     999902    2    1    2    0    0  0.13746907458E-01 -0.81290428557E-02  0.15451282524E-01  0.10217083679E+01  0.10214666848E+01 0.  0.
     999903    2    3    3    0    0  0.27350255968E-01 -0.74335819174E-01  0.10682652933E+00  0.13439905087E+00  0.19425421309E-01 0.  0.
         14    1    1    2    0    0 -0.13746907458E-01  0.81290428557E-02 -0.15451282524E-01  0.22221632119E-01  0.00000000000E+00 0. -1.
     999901    1    3    3    0    0 -0.13603348510E-01  0.66206776318E-01 -0.91375246806E-01  0.88730931701E+00  0.88000000000E+00 0.  1.
        -11    1    4    4    0    0  0.88010483414E-02 -0.66914488173E-02  0.10636498302E-01  0.15350249389E-01  0.51100000000E-03 0. -1.
         11    1    4    4    0    0  0.18549207627E-01 -0.67644370356E-01  0.96190031028E-01  0.11904880148E+00  0.51100000000E-03 0.  1.
</event>
<event>
 8    1  0.1088088E+005  0.1043930E+01  0.7957747E-01            NaN
         13   -1    0    0    0    0  0.00000000000E+00  0.00000000000E+00  0.74505805969E-08  0.10566000000E+00  0.10566000000E+00 0.  1.
     999900   -1    0    0    0    0 -0.00000000000E+00 -0.00000000000E+00 -0.74505805969E-08  0.93827000000E+00  0.93827000000E+00 0. -1.
     999902    2    1    2    0    0 -0.98942199712E-02  0.21612456483E-01  0.79384361106E-03  0.10201471479E+01  0.10198698836E+01 0.  0.
     999903    2    3    3    0    0  0.26456735495E-01  0.94535347204E-01  0.85642603656E-01  0.13231920739E+00  0.23169513577E-01 0.  0.
         14    1    1    2    0    0  0.98942199712E-02 -0.21612456483E-01 -0.79384361106E-03  0.23782852052E-01  0.00000000000E+00 0.  1.
     999901    1    3    3    0    0 -0.36350955467E-01 -0.72922890721E-01 -0.84848760044E-01  0.88782794056E+00  0.88000000000E+00 0. -1.
        -11    1    4    4    0    0  0.10536346100E-01  0.74623856372E-01  0.64138376823E-01  0.98963261019E-01  0.51100000000E-03 0.  1.
         11    1    4    4    0    0  0.15920389396E-01  0.19911490831E-01  0.21504226833E-01  0.33355946371E-01  0.51100000000E-03 0. -1.
</event>
<event>
 8    1  0.1088088E+005  0.1043930E+01  0.7957747E-01            NaN
         13   -1    0    0    0    0  0.00000000000E+00  0.00000000000E+00  0.74505805969E-08  0.10566000000E+00  0.10566000000E+00 0. -1.
     999900   -1    0    0    0    0 -0.00000000000E+00 -0.00000000000E+00 -0.74505805969E-08  0.93827000000E+00  0.93827000000E+00 0. -1.
     999902    2    1    2    0    0  0.63277564264E-02  0.58464030528E-02  0.22180898310E-01  0.10201347656E+01  0.10198572090E+01 0.  0.
     999903    2    3    3    0    0 -0.78852355727E-01 -0.10054372311E+00  0.30462599286E-02  0.12943804683E+00  0.20449792336E-01 0.  0.
         14    1    1    2    0    0 -0.63277564264E-02 -0.58464030528E-02 -0.22180898310E-01  0.23795234395E-01  0.00000000000E+00 0.  1.
     999901    1    3    3    0    0  0.85180112153E-01  0.10639012616E+00  0.19134638382E-01  0.89069671878E+00  0.88000000000E+00 0. -1.
        -11    1    4    4    0    0 -0.68290394229E-01 -0.85600374147E-01  0.97617680742E-02  0.10993887045E+00  0.51100000000E-03 0.  1.
         11    1    4    4    0    0 -0.10561961498E-01 -0.14943348965E-01 -0.67155081455E-02  0.19499176383E-01  0.51100000000E-03 0. -1.
</event>
<event>
 8    1  0.1088088E+005  0.1043930E+01  0.7957747E-01            NaN
         13   -1    0    0    0    0  0.00000000000E+00  0.00000000000E+00  0.74505805969E-08  0.10566000000E+00  0.10566000000E+00 0.  1.
     999900   -1    0    0    0    0 -0.00000000000E+00 -0.00000000000E+00 -0.74505805969E-08  0.93827000000E+00  0.93827000000E+00 0. -1.
     999902    2    1    2    0    0  0.14452720249E-01  0.11339190763E-01  0.14577705595E-01  0.10204786062E+01  0.10202091050E+01 0.  0.
     999903    2    3    3    0    0  0.10122794188E+00  0.73328736830E-01 -0.38759941736E-01  0.13243719529E+00  0.20324314249E-01 0.  0.
         14    1    1    2    0    0 -0.14452720249E-01 -0.11339190763E-01 -0.14577705595E-01  0.23451393779E-01  0.00000000000E+00 0.  1.
     999901    1    3    3    0    0 -0.86775221632E-01 -0.61989546067E-01  0.53337647331E-01  0.88804141093E+00  0.88000000000E+00 0.  1.
        -11    1    4    4    0    0  0.43583868462E-01  0.19887575645E-01 -0.17503513199E-01  0.51006895126E-01  0.51100000000E-03 0.  1.
         11    1    4    4    0    0  0.57644073419E-01  0.53441161185E-01 -0.21256428537E-01  0.81430300161E-01  0.51100000000E-03 0. -1.
</event>
<event>
 8    1  0.1088088E+005  0.1043930E+01  0.7957747E-01            NaN
         13   -1    0    0    0    0  0.00000000000E+00  0.00000000000E+00  0.74505805969E-08  0.10566000000E+00  0.10566000000E+00 0. -1.
     999900   -1    0    0    0    0 -0.00000000000E+00 -0.00000000000E+00 -0.74505805969E-08  0.93827000000E+00  0.93827000000E+00 0.  1.
     999902    2    1    2    0    0  0.79450376725E-02  0.21777450442E-01 -0.46667351164E-02  0.10202834487E+01  0.10200093903E+01 0.  0.
     999903    2    3    3    0    0 -0.10125199449E+00  0.57997146089E-01 -0.56742711255E-01  0.13126839514E+00  0.19900274804E-01 0.  0.
         14    1    1    2    0    0 -0.79450376725E-02 -0.21777450442E-01  0.46667351164E-02  0.23646551293E-01  0.00000000000E+00 0. -1.
     999901    1    3    3    0    0  0.10919703217E+00 -0.36219695646E-01  0.52075976139E-01  0.88901505357E+00  0.88000000000E+00 0. -1.
        -11    1    4    4    0    0 -0.66430401195E-01  0.34413354205E-01 -0.46114759206E-01  0.87886911927E-01  0.51100000000E-03 0. -1.
         11    1    4    4    0    0 -0.34821593300E-01  0.23583791884E-01 -0.10627952050E-01  0.43381483208E-01  0.51100000000E-03 0.  1.
</event>
<event>
 8    1  0.1088088E+005  0.1043930E+01  0.7957747E-01            NaN
         13   -1    0    0    0    0  0.00000000000E+00  0.00000000000E+00  0.74505805969E-08  0.10566000000E+00  0.10566000000E+00 0. -1.
     999900   -1    0    0    0    0 -0.00000000000E+00 -0.00000000000E+00 -0.74505805969E-08  0.93827000000E+00  0.93827000000E+00 0.  1.
     999902    2    1    2    0    0  0.14502914845E-01  0.18779013292E-01  0.23659190944E-02  0.10200850120E+01  0.10198062798E+01 0.  0.
     999903    2    3    3    0    0  0.25760049786E-01 -0.77475302040E-01  0.98415398450E-01  0.12956992578E+00  0.20899101041E-01 0.  0.
         14    1    1    2    0    0 -0.14502914845E-01 -0.18779013292E-01 -0.23659190944E-02  0.23844987993E-01  0.00000000000E+00 0.  1.
     999901    1    3    3    0    0 -0.11257134941E-01  0.96254315332E-01 -0.96049479356E-01  0.89051508622E+00  0.88000000000E+00 0. -1.
        -11    1    4    4    0    0  0.13795769904E-01 -0.15786367203E-01  0.30802181872E-01  0.37263496693E-01  0.51100000000E-03 0. -1.
         11    1    4    4    0    0  0.11964279882E-01 -0.61688934837E-01  0.67613216578E-01  0.92306429090E-01  0.51100000000E-03 0.  1.
</event>
<event>
 8    1  0.1088088E+005  0.1043930E+01  0.7957747E-01            NaN
         13   -1    0    0    0    0  0.00000000000E+00  0.00000000000E+00  0.74505805969E-08  0.10566000000E+00  0.10566000000E+00 0.  1.
     999900   -1    0    0    0    0 -0.00000000000E+00 -0.00000000000E+00 -0.74505805969E-08  0.93827000000E+00  0.93827000000E+00 0.  1.
     999902    2    1    2    0    0 -0.30300205822E-03  0.17545954784E-01  0.12664206152E-01  0.10222889636E+01  0.10220598762E+01 0.  0.
     999903    2    3    3    0    0 -0.88700815303E-01 -0.81778871714E-01 -0.47724988487E-01  0.13025395902E+00  0.11523923817E-01 0.  0.
         14    1    1    2    0    0  0.30300205822E-03 -0.17545954784E-01 -0.12664206152E-01  0.21641036412E-01  0.00000000000E+00 0.  1.
     999901    1    3    3    0    0  0.88397813245E-01  0.99324826498E-01  0.60389194638E-01  0.89203500457E+00  0.88000000000E+00 0. -1.
        -11    1    4    4    0    0 -0.53419438648E-01 -0.44728924490E-01 -0.22558474563E-01  0.73235640280E-01  0.51100000000E-03 0. -1.
         11    1    4    4    0    0 -0.35281376655E-01 -0.37049947223E-01 -0.25166513924E-01  0.57018318740E-01  0.51100000000E-03 0.  1.
</event>
<event>
 8    1  0.1088088E+005  0.1043930E+01  0.7957747E-01            NaN
         13   -1    0    0    0    0  0.00000000000E+00  0.00000000000E+00  0.74505805969E-08  0.10566000000E+00  0.10566000000E+00 0. -1.
     999900   -1    0    0    0    0 -0.00000000000E+00 -0.00000000000E+00 -0.74505805969E-08  0.93827000000E+00  0.93827000000E+00 0. -1.
     999902    2    1    2    0    0  0.20418685496E-01 -0.10240305417E-01 -0.48343749388E-02  0.10205813865E+01  0.10203142696E+01 0.  0.
     999903    2    3    3    0    0 -0.43593317224E-01  0.11767706696E+00 -0.21361868485E-01  0.12887877423E+00  0.20128080575E-01 0.  0.
         14    1    1    2    0    0 -0.20418685496E-01  0.10240305417E-01  0.48343749388E-02  0.23348613523E-01  0.00000000000E+00 0. -1.
     999901    1    3    3    0    0  0.64012002719E-01 -0.12791737237E+00  0.16527493547E-01  0.89170261225E+00  0.88000000000E+00 0. -1.
        -11    1    4    4    0    0 -0.41751989225E-01  0.88524165102E-01 -0.16825780506E-01  0.99313264079E-01  0.51100000000E-03 0. -1.
         11    1    4    4    0    0 -0.18413279984E-02  0.29152901853E-01 -0.45360879791E-02  0.29565510150E-01  0.51100000000E-03 0.  1.
</event>
<event>
 7    1  0.1088088E+005  0.1043930E+01  0.7957747E-01            NaN
         13   -1    0    0    0    0  0.00000000000E+00  0.00000000000E+00  0.74505805969E-08  0.10566000000E+00  0.10566000000E+00 0.  1.
     999900   -1    0    0    0    0 -0.00000000000E+00 -0.00000000000E+00 -0.74505805969E-08  0.93827000000E+00  0.93827000000E+00 0.  1.
     999902    2    1    2    0    0  0.48462271966E-02  0.20806323715E-01  0.89145340340E-02  0.10207813944E+01  0.10205188863E+01 0.  0.
         14    1    1    2    0    0 -0.48462271966E-02 -0.20806323715E-01 -0.89145340340E-02  0.23148605608E-01  0.00000000000E+00 0.  1.
     999901    1    3    3    0    0  0.83502784828E-01  0.10590938122E+00  0.39865077554E-01  0.89116706431E+00  0.88000000000E+00 0. -1.
        -11    1    3    3    0    0 -0.68858598967E-01 -0.81469522919E-01 -0.11193869874E-01  0.10725835007E+00  0.51100000000E-03 0. -1.
         11    1    3    3    0    0 -0.97979586636E-02 -0.36335345868E-02 -0.19756673647E-01  0.22355980009E-01  0.51100000000E-03 0.  1.
</event>
<event>
 8    1  0.1088088E+005  0.1043930E+01  0.7957747E-01            NaN
         13   -1    0    0    0    0  0.00000000000E+00  0.00000000000E+00  0.74505805969E-08  0.10566000000E+00  0.10566000000E+00 0. -1.
     999900   -1    0    0    0    0 -0.00000000000E+00 -0.00000000000E+00 -0.74505805969E-08  0.93827000000E+00  0.93827000000E+00 0. -1.
     999902    2    1    2    0    0  0.11587146076E-01 -0.65921858737E-02  0.19854135383E-01  0.10200154530E+01  0.10197350728E+01 0.  0.
     999903    2    3    3    0    0 -0.40175057037E-01 -0.37290082509E-01  0.11989795211E+00  0.13230466007E+00  0.11154312807E-01 0.  0.
         14    1    1    2    0    0 -0.11587146076E-01  0.65921858737E-02 -0.19854135383E-01  0.23914547049E-01  0.00000000000E+00 0.  1.
     999901    1    3    3    0    0  0.51762203114E-01  0.30697896636E-01 -0.10004381673E+00  0.88771079288E+00  0.88000000000E+00 0. -1.
        -11    1    4    4    0    0 -0.74167432568E-02 -0.12630645096E-01  0.26061664030E-01  0.29900045637E-01  0.51100000000E-03 0.  1.
         11    1    4    4    0    0 -0.32758313781E-01 -0.24659437414E-01  0.93836288082E-01  0.10240461443E+00  0.51100000000E-03 0. -1.
</event>
<event>
 8    1  0.1088088E+005  0.1043930E+01  0.7957747E-01            NaN
         13   -1    0    0    0    0  0.00000000000E+00  0.00000000000E+00  0.74505805969E-08  0.10566000000E+00  0.10566000000E+00 0.  1.
     999900   -1    0    0    0    0 -0.00000000000E+00 -0.00000000000E+00 -0.74505805969E-08  0.93827000000E+00  0.93827000000E+00 0. -1.
     999902    2    1    2    0    0  0.13087092594E-01  0.22421667336E-01 -0.42253037850E-02  0.10176268376E+01  0.10172868447E+01 0.  0.
     999903    2    3    3    0    0 -0.11533109485E+00 -0.41905769536E-01 -0.20448751864E-01  0.12583512973E+00  0.18946595008E-01 0.  0.
         14    1    1    2    0    0 -0.13087092594E-01 -0.22421667336E-01  0.42253037850E-02  0.26303162371E-01  0.00000000000E+00 0.  1.
     999901    1    3    3    0    0  0.12841818745E+00  0.64327436871E-01  0.16223448079E-01  0.89179170789E+00  0.88000000000E+00 0. -1.
        -11    1    4    4    0    0 -0.68944824254E-01 -0.15203715652E-01 -0.10168275417E-01  0.71331596834E-01  0.51100000000E-03 0.  1.
         11    1    4    4    0    0 -0.46386270598E-01 -0.26702053884E-01 -0.10280476447E-01  0.54503532900E-01  0.51100000000E-03 0. -1.
</event>
<event>
 8    1  0.1088088E+005  0.1043930E+01  0.7957747E-01            NaN
         13   -1    0    0    0    0  0.00000000000E+00  0.00000000000E+00  0.74505805969E-08  0.10566000000E+00  0.10566000000E+00 0. -1.
     999900   -1    0    0    0    0 -0.00000000000E+00 -0.00000000000E+00 -0.74505805969E-08  0.93827000000E+00  0.93827000000E+00 0. -1.
     999902    2    1    2    0    0 -0.37963909431E-02 -0.38493097869E-02 -0.21145951271E-01  0.10221038454E+01  0.10218707794E+01 0.  0.
     999903    2    3    3    0    0  0.31881409620E-01  0.54508853078E-01  0.11093408539E+00  0.12962207151E+00  0.22535988487E-01 0.  0.
         14    1    1    2    0    0  0.37963909431E-02  0.38493097869E-02  0.21145951271E-01  0.21826154613E-01  0.00000000000E+00 0. -1.
     999901    1    3    3    0    0 -0.35677800563E-01 -0.58358162865E-01 -0.13208003666E+00  0.89248177388E+00  0.88000000000E+00 0. -1.
        -11    1    4    4    0    0  0.94894645563E-03  0.18713678152E-01  0.42235487587E-01  0.46208222018E-01  0.51100000000E-03 0.  1.
         11    1    4    4    0    0  0.30932463165E-01  0.35795174926E-01  0.68698597802E-01  0.83413849488E-01  0.51100000000E-03 0. -1.
</event>
<event>
 8    1  0.1088088E+005  0.1043930E+01  0.7957747E-01            NaN
         13   -1    0    0    0    0  0.00000000000E+00  0.00000000000E+00  0.74505805969E-08  0.10566000000E+00  0.10566000000E+00 0.  1.
     999900   -1    0    0    0    0 -0.00000000000E+00 -0.00000000000E+00 -0.74505805969E-08  0.93827000000E+00  0.93827000000E+00 0. -1.
     999902    2    1    2    0    0 -0.31108847599E-02 -0.17048006730E-01  0.15311260848E-01  0.10208054060E+01  0.10205434484E+01 0.  0.
     999903    2    3    3    0    0  0.36063995416E-03  0.11517370050E-01 -0.12740361098E+00  0.12884376623E+00  0.15370625641E-01 0.  0.
         14    1    1    2    0    0  0.31108847599E-02  0.17048006730E-01 -0.15311260848E-01  0.23124593968E-01  0.00000000000E+00 0. -1.
     999901    1    3    3    0    0 -0.34715247141E-02 -0.28565376779E-01  0.14271487183E+00  0.89196163980E+00  0.88000000000E+00 0.  1.
        -11    1    4    4    0    0  0.64588655759E-02  0.88432252319E-02 -0.10160777846E+00  0.10219746250E+00  0.51100000000E-03 0.  1.
         11    1    4    4    0    0 -0.60982256218E-02  0.26741448177E-02 -0.25795832518E-01  0.26646303732E-01  0.51100000000E-03 0. -1.
</event>
<event>
 8    1  0.1088088E+005  0.1043930E+01  0.7957747E-01            NaN
         13   -1    0    0    0    0  0.00000000000E+00  0.00000000000E+00  0.74505805969E-08  0.10566000000E+00  0.10566000000E+00 0. -1.
     999900   -1    0    0    0    0 -0.00000000000E+00 -0.00000000000E+00 -0.74505805969E-08  0.93827000000E+00  0.93827000000E+00 0.  1.
     999902    2    1    2    0    0  0.13340329671E-02  0.19604141624E-01 -0.15472852898E-01  0.10189197783E+01  0.10186127838E+01 0.  0.
     999903    2    3    3    0    0 -0.95068857219E-01  0.11978798736E-01  0.82687298033E-01  0.12819699408E+00  0.20388742079E-01 0.  0.
         14    1    1    2    0    0 -0.13340329671E-02 -0.19604141624E-01  0.15472852898E-01  0.25010221702E-01  0.00000000000E+00 0. -1.
     999901    1    3    3    0    0  0.96402890186E-01  0.76253428877E-02 -0.98160150932E-01  0.89072278422E+00  0.88000000000E+00 0. -1.
        -11    1    4    4    0    0 -0.53035645771E-01  0.94517676260E-02  0.58935457789E-01  0.79848387206E-01  0.51100000000E-03 0. -1.
         11    1    4    4    0    0 -0.42033211448E-01  0.25270311103E-02  0.23751840244E-01  0.48348606876E-01  0.51100000000E-03 0.  1.
</event>
<event>
 8    1  0.1088088E+005  0.1043930E+01  0.7957747E-01            NaN
         13   -1    0    0    0    0  0.00000000000E+00  0.00000000000E+00  0.74505805969E-08  0.10566000000E+00  0.10566000000E+00 0.  1.
     999900   -1    0    0    0    0 -0.00000000000E+00 -0.00000000000E+00 -0.74505805969E-08  0.93827000000E+00  0.93827000000E+00 0.  1.
     999902    2    1    2    0    0 -0.22022691654E-01 -0.91841299323E-02 -0.43493549800E-02  0.10196758441E+01  0.10193873469E+01 0.  0.
     999903    2    3    3    0    0 -0.13082948767E+00  0.63137227858E-02 -0.89103329112E-02  0.13282754544E+00  0.20187740242E-01 0.  0.
         14    1    1    2    0    0  0.22022691654E-01  0.91841299323E-02  0.43493549800E-02  0.24254155913E-01  0.00000000000E+00 0. -1.
     999901    1    3    3    0    0  0.10880679601E+00 -0.15497852718E-01  0.45609779312E-02  0.88684829865E+00  0.88000000000E+00 0. -1.
        -11    1    4    4    0    0 -0.65205712846E-01 -0.51701694451E-06 -0.14030884728E-01  0.66700163682E-01  0.51100000000E-03 0. -1.
         11    1    4    4    0    0 -0.65623774820E-01  0.63142398028E-02  0.51205518164E-02  0.66127381756E-01  0.51100000000E-03 0.  1.
</event>
<event>
 8    1  0.1088088E+005  0.1043930E+01  0.7957747E-01            NaN
         13   -1    0    0    0    0  0.00000000000E+00  0.00000000000E+00  0.74505805969E-08  0.10566000000E+00  0.10566000000E+00 0.  1.
     999900   -1    0    0    0    0 -0.00000000000E+00 -0.00000000000E+00 -0.74505805969E-08  0.93827000000E+00  0.93827000000E+00 0. -1.
     999902    2    1    2    0    0  0.24033361518E-01 -0.13434055115E-01  0.33224470299E-02  0.10161970781E+01  0.10158185796E+01 0.  0.
     999903    2    3    3    0    0  0.92470144345E-01  0.86008451121E-01 -0.45020549334E-02  0.12792142938E+00  0.19885731961E-01 0.  0.
         14    1    1    2    0    0 -0.24033361518E-01  0.13434055115E-01 -0.33224470299E-02  0.27732921897E-01  0.00000000000E+00 0. -1.
     999901    1    3    3    0    0 -0.68436782827E-01 -0.99442506236E-01  0.78245019634E-02  0.88827564873E+00  0.88000000000E+00 0.  1.
        -11    1    4    4    0    0  0.16264467683E-01  0.26726989787E-01 -0.13615509600E-02  0.31320597601E-01  0.51100000000E-03 0. -1.
         11    1    4    4    0    0  0.76205676662E-01  0.59281461334E-01 -0.31405039735E-02  0.96600831775E-01  0.51100000000E-03 0.  1.
</event>
<event>
 8    1  0.1088088E+005  0.1043930E+01  0.7957747E-01            NaN
         13   -1    0    0    0    0  0.00000000000E+00  0.00000000000E+00  0.74505805969E-08  0.10566000000E+00  0.10566000000E+00 0.  1.
     999900   -1    0    0    0    0 -0.00000000000E+00 -0.00000000000E+00 -0.74505805969E-08  0.93827000000E+00  0.93827000000E+00 0. -1.
     999902    2    1    2    0    0 -0.21898712845E-01 -0.22902473965E-02  0.86094571339E-02  0.10202884770E+01  0.10200145365E+01 0.  0.
     999903    2    3    3    0    0 -0.11745983475E+00  0.25937868318E-01 -0.51882862954E-01  0.13260155284E+00  0.20536663674E-01 0.  0.
         14    1    1    2    0    0  0.21898712845E-01  0.22902473965E-02 -0.86094571339E-02  0.23641522996E-01  0.00000000000E+00 0. -1.
     999901    1    3    3    0    0  0.95561121908E-01 -0.28228115715E-01  0.60492320088E-01  0.88768692416E+00  0.88000000000E+00 0.  1.
        -11    1    4    4    0    0 -0.56762671766E-01  0.30780305398E-02 -0.29034142725E-01  0.63833515827E-01  0.51100000000E-03 0.  1.
         11    1    4    4    0    0 -0.60697162987E-01  0.22859837778E-01 -0.22848720229E-01  0.68768037016E-01  0.51100000000E-03 0. -1.
</event>
<event>
 8    1  0.1088088E+005  0.1043930E+01  0.7957747E-01            NaN
         13   -1    0    0    0    0  0.00000000000E+00  0.00000000000E+00  0.74505805969E-08  0.10566000000E+00  0.10566000000E+00 0. -1.
     999900   -1    0    0    0    0 -0.00000000000E+00 -0.00000000000E+00 -0.74505805969E-08  0.93827000000E+00  0.93827000000E+00 0. -1.
     999902    2    1    2    0    0 -0.67654648531E-02  0.29525468012E-02  0.21562379461E-01  0.10211390971E+01  0.10208847292E+01 0.  0.
     999903    2    3    3    0    0 -0.83775801032E-01  0.10022824121E+00  0.13331225340E-02  0.13220581757E+00  0.20310485226E-01 0.  0.
         14    1    1    2    0    0  0.67654648531E-02 -0.29525468012E-02 -0.21562379461E-01  0.22790902907E-01  0.00000000000E+00 0.  1.
     999901    1    3    3    0    0  0.77010336178E-01 -0.97275694409E-01  0.20229256927E-01  0.88893327952E+00  0.88000000000E+00 0.  1.
        -11    1    4    4    0    0 -0.32082789299E-01  0.54143193141E-01 -0.52985341003E-04  0.62936910165E-01  0.51100000000E-03 0.  1.
         11    1    4    4    0    0 -0.51693011733E-01  0.46085048069E-01  0.13861078750E-02  0.69268907409E-01  0.51100000000E-03 0. -1.
</event>
<event>
 8    1  0.1088088E+005  0.1043930E+01  0.7957747E-01            NaN
         13   -1    0    0    0    0  0.00000000000E+00  0.00000000000E+00  0.74505805969E-08  0.10566000000E+00  0.10566000000E+00 0.  1.
     999900   -1    0    0    0    0 -0.00000000000E+00 -0.00000000000E+00 -0.74505805969E-08  0.93827000000E+00  0.93827000000E+00 0.  1.
     999902    2    1    2    0    0 -0.61160175139E-02 -0.22483529537E-01  0.12944027412E-03  0.10206291089E+01  0.10203630954E+01 0.  0.
     999903    2    3    3    0    0  0.10668220499E+00 -0.27842334899E-01 -0.67596967793E-01  0.13083192857E+00  0.19782694563E-01 0.  0.
         14    1    1    2    0    0  0.61160175139E-02  0.22483529537E-01 -0.12944027412E-03  0.23300891087E-01  0.00000000000E+00 0. -1.
     999901    1    3    3    0    0 -0.11279822251E+00  0.53588053626E-02  0.67726408067E-01  0.88979718034E+00  0.88000000000E+00 0. -1.
        -11    1    4    4    0    0  0.61446622889E-01 -0.19200281862E-01 -0.50053626854E-01  0.81547317370E-01  0.51100000000E-03 0. -1.
         11    1    4    4    0    0  0.45235582103E-01 -0.86420530371E-02 -0.17543340939E-01  0.49284611201E-01  0.51100000000E-03 0.  1.
</event>
<event>
 8    1  0.1088088E+005  0.1043930E+01  0.7957747E-01            NaN
         13   -1    0    0    0    0  0.00000000000E+00  0.00000000000E+00  0.74505805969E-08  0.10566000000E+00  0.10566000000E+00 0. -1.
     999900   -1    0    0    0    0 -0.00000000000E+00 -0.00000000000E+00 -0.74505805969E-08  0.93827000000E+00  0.93827000000E+00 0.  1.
     999902    2    1    2    0    0 -0.23606807839E-01 -0.54231439177E-02 -0.57232135748E-02  0.10190413070E+01  0.10187373255E+01 0.  0.
     999903    2    3    3    0    0 -0.96913247369E-01  0.24812151889E-01 -0.83450476017E-01  0.13206355387E+00  0.21655944161E-01 0.  0.
         14    1    1    2    0    0  0.23606807839E-01  0.54231439177E-02  0.57232135748E-02  0.24888693013E-01  0.00000000000E+00 0. -1.
     999901    1    3    3    0    0  0.73306439530E-01 -0.30235295807E-01  0.77727262443E-01  0.88697775311E+00  0.88000000000E+00 0. -1.
        -11    1    4    4    0    0 -0.91174550627E-01  0.17191254386E-01 -0.74885386661E-01  0.11923263046E+00  0.51100000000E-03 0.  1.
         11    1    4    4    0    0 -0.57386967416E-02  0.76208975035E-02 -0.85650893566E-02  0.12830923417E-01  0.51100000000E-03 0. -1.
</event>
<event>
 8    1  0.1088088E+005  0.1043930E+01  0.7957747E-01            NaN
         13   -1    0    0    0    0  0.00000000000E+00  0.00000000000E+00  0.74505805969E-08  0.10566000000E+00  0.10566000000E+00 0. -1.
     999900   -1    0    0    0    0 -0.00000000000E+00 -0.00000000000E+00 -0.74505805969E-08  0.93827000000E+00  0.93827000000E+00 0.  1.
     999902    2    1    2    0    0 -0.42652155478E-02  0.14562319000E-01 -0.14106794376E-01  0.10232115337E+01  0.10230017536E+01 0.  0.
     999903    2    3    3    0    0 -0.33765818748E-01 -0.27192267640E-01  0.12232565675E+00  0.13123196845E+00  0.19460557767E-01 0.  0.
         14    1    1    2    0    0  0.42652155478E-02 -0.14562319000E-01  0.14106794376E-01  0.20718466302E-01  0.00000000000E+00 0. -1.
     999901    1    3    3    0    0  0.29500603200E-01  0.41754586641E-01 -0.13643245113E+00  0.89197956525E+00  0.88000000000E+00 0.  1.
        -11    1    4    4    0    0 -0.15106509491E-01 -0.15597311494E-01  0.35063361614E-01  0.41245402211E-01  0.51100000000E-03 0.  1.
         11    1    4    4    0    0 -0.18659309257E-01 -0.11594956146E-01  0.87262295139E-01  0.89986566241E-01  0.51100000000E-03 0. -1.
</event>
<event>
 8    1  0.1088088E+005  0.1043930E+01  0.7957747E-01            NaN
         13   -1    0    0    0    0  0.00000000000E+00  0.00000000000E+00  0.74505805969E-08  0.10566000000E+00  0.10566000000E+00 0. -1.
     999900   -1    0    0    0    0 -0.00000000000E+00 -0.00000000000E+00 -0.74505805969E-08  0.93827000000E+00  0.93827000000E+00 0. -1.
     999902    2    1    2    0    0 -0.90244917248E-02 -0.18660339849E-01 -0.11271253332E-01  0.10203357023E+01  0.10200628679E+01 0.  0.
     999903    2    3    3    0    0 -0.26668812210E-01  0.67049761746E-01 -0.10726358463E+00  0.13080095239E+00  0.19912721161E-01 0.  0.
         14    1    1    2    0    0  0.90244917248E-02  0.18660339849E-01  0.11271253332E-01  0.23594297740E-01  0.00000000000E+00 0. -1.
     999901    1    3    3    0    0  0.17644320485E-01 -0.85710101595E-01  0.95992331295E-01  0.88953474987E+00  0.88000000000E+00 0.  1.
        -11    1    4    4    0    0 -0.86945641295E-02  0.30763679918E-01 -0.63993275415E-01  0.71536003990E-01  0.51100000000E-03 0.  1.
         11    1    4    4    0    0 -0.17974248081E-01  0.36286081828E-01 -0.43270309212E-01  0.59264948400E-01  0.51100000000E-03 0. -1.
</event>
<event>
 8    1  0.1088088E+005  0.1043930E+01  0.7957747E-01            NaN
         13   -1    0    0    0    0  0.00000000000E+00  0.00000000000E+00  0.74505805969E-08  0.10566000000E+00  0.10566000000E+00 0. -1.
     999900   -1    0    0    0    0 -0.00000000000E+00 -0.00000000000E+00 -0.74505805969E-08  0.93827000000E+00  0.93827000000E+00 0.  1.
     999902    2    1    2    0    0 -0.76351534302E-02  0.21812035931E-01  0.38227499094E-02  0.10205062109E+01  0.10202373511E+01 0.  0.
     999903    2    3    3    0    0  0.16118309606E-01  0.58434160012E-01 -0.11488415950E+00  0.13146361499E+00  0.20247493744E-01 0.  0.
         14    1    1    2    0    0  0.76351534302E-02 -0.21812035931E-01 -0.38227499094E-02  0.23423789109E-01  0.00000000000E+00 0. -1.
     999901    1    3    3    0    0 -0.23753463036E-01 -0.36622124080E-01  0.11870690941E+00  0.88904259590E+00  0.88000000000E+00 0. -1.
        -11    1    4    4    0    0 -0.25255661453E-03  0.20563070067E-01 -0.23725234545E-01  0.31401457142E-01  0.51100000000E-03 0.  1.
         11    1    4    4    0    0  0.16370866220E-01  0.37871089944E-01 -0.91158924953E-01  0.10006215785E+00  0.51100000000E-03 0. -1.
</event>
<event>
 8    1  0.1088088E+005  0.1043930E+01  0.7957747E-01            NaN
         13   -1    0    0    0    0  0.00000000000E+00  0.00000000000E+00  0.74505805969E-08  0.10566000000E+00  0.10566000000E+00 0.  1.
     999900   -1    0    0    0    0 -0.00000000000E+00 -0.00000000000E+00 -0.74505805969E-08  0.93827000000E+00  0.93827000000E+00 0.  1.
     999902    2    1    2    0    0 -0.20611849649E-01 -0.74817801074E-02 -0.89314960352E-02  0.10202530703E+01  0.10199782990E+01 0.  0.
     999903    2    3    3    0    0  0.94400640714E-01  0.16172260088E-01 -0.84485717423E-01  0.12924474993E+00  0.19832951708E-01 0.  0.
         14    1    1    2    0    0  0.20611849649E-01  0.74817801074E-02  0.89314960352E-02  0.23676929720E-01  0.00000000000E+00 0.  1.
     999901    1    3    3    0    0 -0.11501249036E+00 -0.23654040196E-01  0.75554221387E-01  0.89100832035E+00  0.88000000000E+00 0.  1.
        -11    1    4    4    0    0  0.31227860201E-01 -0.34108518774E-03 -0.37477848257E-01  0.48786738186E-01  0.51100000000E-03 0. -1.
         11    1    4    4    0    0  0.63172780513E-01  0.16513345276E-01 -0.47007869166E-01  0.80458011748E-01  0.51100000000E-03 0.  1.
</event>
<event>
 8    1  0.1088088E+005  0.1043930E+01  0.7957747E-01            NaN
         13   -1    0    0    0    0  0.00000000000E+00  0.00000000000E+00  0.74505805969E-08  0.10566000000E+00  0.10566000000E+00 0.  1.
     999900   -1    0    0    0    0 -0.00000000000E+00 -0.00000000000E+00 -0.74505805969E-08  0.93827000000E+00  0.93827000000E+00 0. -1.
     999902    2    1    2    0    0 -0.17445348944E-01  0.52026919467E-02 -0.14600935779E-01  0.10205934294E+01  0.10203265911E+01 0.  0.
     999903    2    3    3    0    0  0.85514142729E-01  0.17187777370E-01 -0.95444472618E-01  0.13082942883E+00  0.19965064434E-01 0.  0.
         14    1    1    2    0    0  0.17445348944E-01 -0.52026919467E-02  0.14600935779E-01  0.23336570633E-01  0.00000000000E+00 0. -1.
     999901    1    3    3    0    0 -0.10295949167E+00 -0.11985085423E-01  0.80843536840E-01  0.88976400053E+00  0.88000000000E+00 0.  1.
        -11    1    4    4    0    0  0.27316767679E-01  0.11456141099E-01 -0.21764479809E-01  0.36761429075E-01  0.51100000000E-03 0. -1.
         11    1    4    4    0    0  0.58197375049E-01  0.57316362715E-02 -0.73679992810E-01  0.94067999758E-01  0.51100000000E-03 0.  1.
</event>
<event>
 8    1  0.1088088E+005  0.1043930E+01  0.7957747E-01            NaN
         13   -1    0    0    0    0  0.00000000000E+00  0.00000000000E+00  0.74505805969E-08  0.10566000000E+00  0.10566000000E+00 0.  1.
     999900   -1    0    0    0    0 -0.00000000000E+00 -0.00000000000E+00 -0.74505805969E-08  0.93827000000E+00  0.93827000000E+00 0. -1.
     999902    2    1    2    0    0 -0.11296982239E-01  0.94117131033E-02  0.18211148373E-01  0.10205238453E+01  0.10202553949E+01 0.  0.
     999903    2    3    3    0    0 -0.12230929596E+00  0.42054705132E-01  0.22429103432E-01  0.13293886919E+00  0.21012285929E-01 0.  0.
         14    1    1    2    0    0  0.11296982239E-01 -0.94117131033E-02 -0.18211148373E-01  0.23406154668E-01  0.00000000000E+00 0. -1.
     999901    1    3    3    0    0  0.11101231372E+00 -0.32642992029E-01 -0.42179550586E-02  0.88758497614E+00  0.88000000000E+00 0. -1.
        -11    1    4    4    0    0 -0.86669798882E-01  0.19907718779E-01  0.18112889239E-01  0.90754113862E-01  0.51100000000E-03 0.  1.
         11    1    4    4    0    0 -0.35639497075E-01  0.22146986353E-01  0.43162141932E-02  0.42184755330E-01  0.51100000000E-03 0. -1.
</event>
<event>
 8    1  0.1088088E+005  0.1043930E+01  0.7957747E-01            NaN
         13   -1    0    0    0    0  0.00000000000E+00  0.00000000000E+00  0.74505805969E-08  0.10566000000E+00  0.10566000000E+00 0. -1.
     999900   -1    0    0    0    0 -0.00000000000E+00 -0.00000000000E+00 -0.74505805969E-08  0.93827000000E+00  0.93827000000E+00 0.  1.
     999902    2    1    2    0    0 -0.14872184124E-01  0.50774902680E-03  0.17888890687E-01  0.10206608771E+01  0.10203955968E+01 0.  0.
     999903    2    3    3    0    0 -0.10781860764E+00  0.52300545669E-01 -0.50804281431E-01  0.13159379117E+00  0.19381734491E-01 0.  0.
         14    1    1    2    0    0  0.14872184124E-01 -0.50774902680E-03 -0.17888890687E-01  0.23269122882E-01  0.00000000000E+00 0.  1.
     999901    1    3    3    0    0  0.92946423511E-01 -0.51792796642E-01  0.68693172119E-01  0.88906708595E+00  0.88000000000E+00 0. -1.
        -11    1    4    4    0    0 -0.49760609216E-01  0.28183945302E-01 -0.14519001588E-01  0.59004368741E-01  0.51100000000E-03 0.  1.
         11    1    4    4    0    0 -0.58057998419E-01  0.24116600366E-01 -0.36285279843E-01  0.72589422425E-01  0.51100000000E-03 0. -1.
</event>
<event>
 8    1  0.1088088E+005  0.1043930E+01  0.7957747E-01            NaN
         13   -1    0    0    0    0  0.00000000000E+00  0.00000000000E+00  0.74505805969E-08  0.10566000000E+00  0.10566000000E+00 0.  1.
     999900   -1    0    0    0    0 -0.00000000000E+00 -0.00000000000E+00 -0.74505805969E-08  0.93827000000E+00  0.93827000000E+00 0.  1.
     999902    2    1    2    0    0  0.15300196847E-01 -0.14132925025E-01 -0.83468505808E-02  0.10214910716E+01  0.10212445857E+01 0.  0.
     999903    2    3    3    0    0  0.62440879380E-01 -0.11203921301E+00 -0.34908115148E-01  0.13440968528E+00  0.19893172787E-01 0.  0.
         14    1    1    2    0    0 -0.15300196847E-01  0.14132925025E-01  0.83468505808E-02  0.22438928404E-01  0.00000000000E+00 0. -1.
     999901    1    3    3    0    0 -0.47140682533E-01  0.97906287986E-01  0.26561264567E-01  0.88708138632E+00  0.88000000000E+00 0. -1.
        -11    1    4    4    0    0  0.36740568590E-01 -0.51111665744E-01 -0.24098858884E-01  0.67403915880E-01  0.51100000000E-03 0. -1.
         11    1    4    4    0    0  0.25700310790E-01 -0.60927547266E-01 -0.10809256264E-01  0.67005769398E-01  0.51100000000E-03 0.  1.
</event>
<event>
 8    1  0.1088088E+005  0.1043930E+01  0.7957747E-01            NaN
         13   -1    0    0    0    0  0.00000000000E+00  0.00000000000E+00  0.74505805969E-08  0.10566000000E+00  0.10566000000E+00 0. -1.
     999900   -1    0    0    0    0 -0.00000000000E+00 -0.00000000000E+00 -0.74505805969E-08  0.93827000000E+00  0.93827000000E+00 0.  1.
     999902    2    1    2    0    0  0.21724925028E-01  0.87952421937E-02 -0.30306831044E-02  0.10202971057E+01  0.10200233675E+01 0.  0.
     999903    2    3    3    0    0 -0.20833389254E-01 -0.10007357366E+00  0.77420252672E-01  0.12892962691E+00  0.13423968120E-01 0.  0.
         14    1    1    2    0    0 -0.21724925028E-01 -0.87952421937E-02  0.30306831044E-02  0.23632894296E-01  0.00000000000E+00 0. -1.
     999901    1    3    3    0    0  0.42558314282E-01  0.10886881585E+00 -0.80450935777E-01  0.89136747879E+00  0.88000000000E+00 0.  1.
        -11    1    4    4    0    0 -0.41910223611E-02 -0.17054170236E-01  0.20014037353E-01  0.26631413839E-01  0.51100000000E-03 0.  1.
         11    1    4    4    0    0 -0.16642366893E-01 -0.83019403420E-01  0.57406215319E-01  0.10229821307E+00  0.51100000000E-03 0. -1.
</event>
<event>
 8    1  0.1088088E+005  0.1043930E+01  0.7957747E-01            NaN
         13   -1    0    0    0    0  0.00000000000E+00  0.00000000000E+00  0.74505805969E-08  0.10566000000E+00  0.10566000000E+00 0. -1.
     999900   -1    0    0    0    0 -0.00000000000E+00 -0.00000000000E+00 -0.74505805969E-08  0.93827000000E+00  0.93827000000E+00 0. -1.
     999902    2    1    2    0    0 -0.10125988843E-01  0.16615563490E-01  0.14180302521E-01  0.10198531734E+01  0.10195689293E+01 0.  0.
     999903    2    3    3    0    0  0.59485022812E-01 -0.12825418697E-01 -0.11085721405E+00  0.12780673686E+00  0.18500831720E-01 0.  0.
         14    1    1    2    0    0  0.10125988843E-01 -0.16615563490E-01 -0.14180302521E-01  0.24076826612E-01  0.00000000000E+00 0.  1.
     999901    1    3    3    0    0 -0.69611011655E-01  0.29440982187E-01  0.12503751658E+00  0.89204643653E+00  0.88000000000E+00 0.  1.
        -11    1    4    4    0    0  0.23594019335E-01 -0.75939729098E-02 -0.63395936290E-01  0.68070933826E-01  0.51100000000E-03 0.  1.
         11    1    4    4    0    0  0.35891003477E-01 -0.52314457871E-02 -0.47461277765E-01  0.59735803031E-01  0.51100000000E-03 0. -1.
</event>
<event>
 8    1  0.1088088E+005  0.1043930E+01  0.7957747E-01            NaN
         13   -1    0    0    0    0  0.00000000000E+00  0.00000000000E+00  0.74505805969E-08  0.10566000000E+00  0.10566000000E+00 0. -1.
     999900   -1    0    0    0    0 -0.00000000000E+00 -0.00000000000E+00 -0.74505805969E-08  0.93827000000E+00  0.93827000000E+00 0.  1.
     999902    2    1    2    0    0 -0.12968074042E-01 -0.15325393889E-01 -0.12402272661E-01  0.10203322245E+01  0.10200593087E+01 0.  0.
     999903    2    3    3    0    0  0.12960030512E-01 -0.33108548684E-01 -0.12613062703E+00  0.13245686961E+00  0.19280789542E-01 0.  0.
         14    1    1    2    0    0  0.12968074042E-01  0.15325393889E-01  0.12402272661E-01  0.23597775518E-01  0.00000000000E+00 0. -1.
     999901    1    3    3    0    0 -0.25928104554E-01  0.17783154794E-01  0.11372835437E+00  0.88787535487E+00  0.88000000000E+00 0. -1.
        -11    1    4    4    0    0 -0.37429032467E-02 -0.14501673379E-01 -0.38053405059E-01  0.40897806947E-01  0.51100000000E-03 0.  1.
         11    1    4    4    0    0  0.16702933759E-01 -0.18606875304E-01 -0.88077221971E-01  0.91559062664E-01  0.51100000000E-03 0. -1.
</event>
<event>
 8    1  0.1088088E+005  0.1043930E+01  0.7957747E-01            NaN
         13   -1    0    0    0    0  0.00000000000E+00  0.00000000000E+00  0.74505805969E-08  0.10566000000E+00  0.10566000000E+00 0.  1.
     999900   -1    0    0    0    0 -0.00000000000E+00 -0.00000000000E+00 -0.74505805969E-08  0.93827000000E+00  0.93827000000E+00 0.  1.
     999902    2    1    2    0    0 -0.49706727284E-02 -0.22302866137E-02 -0.22033487851E-01  0.10212329440E+01  0.10209806901E+01 0.  0.
     999903    2    3    3    0    0  0.10543924379E+00  0.28671618796E-01 -0.71938258733E-01  0.13239338388E+00  0.20332219975E-01 0.  0.
         14    1    1    2    0    0  0.49706727284E-02  0.22302866137E-02  0.22033487851E-01  0.22697056035E-01  0.00000000000E+00 0.  1.
     999901    1    3    3    0    0 -0.11040991652E+00 -0.30901905409E-01  0.49904770882E-01  0.88883956009E+00  0.88000000000E+00 0. -1.
        -11    1    4    4    0    0  0.46950508702E-01  0.23268508693E-01 -0.34193157500E-01  0.62571614212E-01  0.51100000000E-03 0.  1.
         11    1    4    4    0    0  0.58488735088E-01  0.54031101027E-02 -0.37745101233E-01  0.69821769664E-01  0.51100000000E-03 0. -1.
</event>
<event>
 8    1  0.1088088E+005  0.1043930E+01  0.7957747E-01            NaN
         13   -1    0    0    0    0  0.00000000000E+00  0.00000000000E+00  0.74505805969E-08  0.10566000000E+00  0.10566000000E+00 0. -1.
     999900   -1    0    0    0    0 -0.00000000000E+00 -0.00000000000E+00 -0.74505805969E-08  0.93827000000E+00  0.93827000000E+00 0.  1.
     999902    2    1    2    0    0 -0.16490691402E-01  0.13621331463E-01  0.10349593573E-01  0.10201687361E+01  0.10198919808E+01 0.  0.
     999903    2    3    3    0    0  0.53074778493E-01 -0.39903114288E-02  0.11762054558E+00  0.13075511935E+00  0.20723267029E-01 0.  0.
         14    1    1    2    0    0  0.16490691402E-01 -0.13621331463E-01 -0.10349593573E-01  0.23761263873E-01  0.00000000000E+00 0.  1.
     999901    1    3    3    0    0 -0.69565469895E-01  0.17611642892E-01 -0.10727095200E+00  0.88941361678E+00  0.88000000000E+00 0.  1.
        -11    1    4    4    0    0  0.29980709719E-01 -0.12440969670E-01  0.69771723298E-01  0.76954370731E-01  0.51100000000E-03 0. -1.
         11    1    4    4    0    0  0.23094068773E-01  0.84506582410E-02  0.47848822279E-01  0.53800748617E-01  0.51100000000E-03 0.  1.
</event>
<event>
 8    1  0.1088088E+005  0.1043930E+01  0.7957747E-01            NaN
         13   -1    0    0    0    0  0.00000000000E+00  0.00000000000E+00  0.74505805969E-08  0.10566000000E+00  0.10566000000E+00 0.  1.
     999900   -1    0    0    0    0 -0.00000000000E+00 -0.00000000000E+00 -0.74505805969E-08  0.93827000000E+00  0.93827000000E+00 0.  1.
     999902    2    1    2    0    0  0.25717324591E-01 -0.66873369641E-04  0.59430877601E-02  0.10175348196E+01  0.10171924123E+01 0.  0.
     999903    2    3    3    0    0  0.26047881819E-01 -0.59838209406E-01  0.10988113534E+00  0.12940428887E+00  0.20310160582E-01 0.  0.
         14    1    1    2    0    0 -0.25717324591E-01  0.66873369641E-04 -0.59430877601E-02  0.26395180399E-01  0.00000000000E+00 0. -1.
     999901    1    3    3    0    0 -0.33055722822E-03  0.59771336036E-01 -0.10393804758E+00  0.88813053073E+00  0.88000000000E+00 0.  1.
        -11    1    4    4    0    0  0.45801973764E-02 -0.21686466919E-01  0.54298780145E-01  0.58650658152E-01  0.51100000000E-03 0.  1.
         11    1    4    4    0    0  0.21467684443E-01 -0.38151742486E-01  0.55582355194E-01  0.70753630719E-01  0.51100000000E-03 0. -1.
</event>
<event>
 8    1  0.1088088E+005  0.1043930E+01  0.7957747E-01            NaN
         13   -1    0    0    0    0  0.00000000000E+00  0.00000000000E+00  0.74505805969E-08  0.10566000000E+00  0.10566000000E+00 0.  1.
     999900   -1    0    0    0    0 -0.00000000000E+00 -0.00000000000E+00 -0.74505805969E-08  0.93827000000E+00  0.93827000000E+00 0. -1.
     999902    2    1    2    0    0  0.20403579246E-01 -0.55681417073E-03 -0.11215757869E-01  0.10206403175E+01  0.10203745628E+01 0.  0.
     999903    2    3    3    0    0  0.45087734547E-01  0.11117251547E-01 -0.12317662771E+00  0.13312647098E+00  0.19841334942E-01 0.  0.
         14    1    1    2    0    0 -0.20403579246E-01  0.55681417073E-03  0.11215757869E-01  0.23289682536E-01  0.00000000000E+00 0. -1.
     999901    1    3    3    0    0 -0.24684155300E-01 -0.11674065718E-01  0.11196086984E+00  0.88751384649E+00  0.88000000000E+00 0.  1.
        -11    1    4    4    0    0  0.29466163477E-01  0.13388783953E-01 -0.99769443212E-01  0.10488907114E+00  0.51100000000E-03 0. -1.
         11    1    4    4    0    0  0.15621571069E-01 -0.22715324057E-02 -0.23407184496E-01  0.28237399831E-01  0.51100000000E-03 0.  1.
</event>
<event>
 8    1  0.1088088E+005  0.1043930E+01  0.7957747E-01            NaN
         13   -1    0    0    0    0  0.00000000000E+00  0.00000000000E+00  0.74505805969E-08  0.10566000000E+00  0.10566000000E+00 0.  1.
     999900   -1    0    0    0    0 -0.00000000000E+00 -0.00000000000E+00 -0.74505805969E-08  0.93827000000E+00  0.93827000000E+00 0.  1.
     999902    2    1    2    0    0 -0.16985525185E-01 -0.17674773696E-02  0.20677764262E-01  0.10171120587E+01  0.10167584462E+01 0.  0.
     999903    2    3    3    0    0 -0.25298338094E-01 -0.12340398590E+00  0.17657550675E-01  0.12870130640E+00  0.19587943401E-01 0.  0.
         14    1    1    2    0    0  0.16985525185E-01  0.17674773696E-02 -0.20677764262E-01  0.26817941326E-01  0.00000000000E+00 0. -1.
     999901    1    3    3    0    0  0.83128129091E-02  0.12163650853E+00  0.30202135868E-02  0.88841075227E+00  0.88000000000E+00 0. -1.
        -11    1    4    4    0    0 -0.39419983965E-02 -0.61878591121E-01  0.38523072249E-02  0.62125685368E-01  0.51100000000E-03 0. -1.
         11    1    4    4    0    0 -0.21356339697E-01 -0.61525394780E-01  0.13805243451E-01  0.66575621032E-01  0.51100000000E-03 0.  1.
</event>
<event>
 8    1  0.1088088E+005  0.1043930E+01  0.7957747E-01            NaN
         13   -1    0    0    0    0  0.00000000000E+00  0.00000000000E+00  0.74505805969E-08  0.10566000000E+00  0.10566000000E+00 0.  1.
     999900   -1    0    0    0    0 -0.00000000000E+00 -0.00000000000E+00 -0.74505805969E-08  0.93827000000E+00  0.93827000000E+00 0. -1.
     999902    2    1    2    0    0 -0.15884665636E-01  0.14837661668E-01 -0.34977509183E-02  0.10219137999E+01  0.10216766129E+01 0.  0.
     999903    2    3    3    0    0 -0.56713658624E-01 -0.86472305320E-01 -0.79386362034E-01  0.13191953171E+00  0.20166053361E-01 0.  0.
         14    1    1    2    0    0  0.15884665636E-01 -0.14837661668E-01  0.34977509183E-02  0.22016200118E-01  0.00000000000E+00 0. -1.
     999901    1    3    3    0    0  0.40828992988E-01  0.10130996699E+00  0.75888611115E-01  0.88999426817E+00  0.88000000000E+00 0.  1.
        -11    1    4    4    0    0 -0.26056429681E-01 -0.50789884114E-01 -0.53422410366E-01  0.78184172991E-01  0.51100000000E-03 0. -1.
         11    1    4    4    0    0 -0.30657228943E-01 -0.35682421205E-01 -0.25963951668E-01  0.53735358720E-01  0.51100000000E-03 0.  1.
</event>
<event>
 8    1  0.1088088E+005  0.1043930E+01  0.7957747E-01            NaN
         13   -1    0    0    0    0  0.00000000000E+00  0.00000000000E+00  0.74505805969E-08  0.10566000000E+00  0.10566000000E+00 0. -1.
     999900   -1    0    0    0    0 -0.00000000000E+00 -0.00000000000E+00 -0.74505805969E-08  0.93827000000E+00  0.93827000000E+00 0.  1.
     999902    2    1    2    0    0 -0.16103719543E-01 -0.21386899779E-03 -0.17325096844E-01  0.10202755183E+01  0.10200012739E+01 0.  0.
     999903    2    3    3    0    0  0.58837007039E-01 -0.47463137351E-01 -0.10564986660E+00  0.13142802250E+00  0.19922047640E-01 0.  0.
         14    1    1    2    0    0  0.16103719543E-01  0.21386899779E-03  0.17325096844E-01  0.23654481684E-01  0.00000000000E+00 0. -1.
     999901    1    3    3    0    0 -0.74940726583E-01  0.47249268354E-01  0.88324769755E-01  0.88884749581E+00  0.88000000000E+00 0. -1.
        -11    1    4    4    0    0  0.29046225947E-02 -0.10726784825E-01 -0.17850540174E-01  0.21033393702E-01  0.51100000000E-03 0. -1.
         11    1    4    4    0    0  0.55932384444E-01 -0.36736352526E-01 -0.87799326425E-01  0.11039462880E+00  0.51100000000E-03 0.  1.
</event>
<event>
 8    1  0.1088088E+005  0.1043930E+01  0.7957747E-01            NaN
         13   -1    0    0    0    0  0.00000000000E+00  0.00000000000E+00  0.74505805969E-08  0.10566000000E+00  0.10566000000E+00 0.  1.
     999900   -1    0    0    0    0 -0.00000000000E+00 -0.00000000000E+00 -0.74505805969E-08  0.93827000000E+00  0.93827000000E+00 0. -1.
     999902    2    1    2    0    0  0.19915229803E-01  0.90612517182E-02  0.48090513176E-02  0.10215279993E+01  0.10212823330E+01 0.  0.
     999903    2    3    3    0    0  0.22936443659E-01  0.53984451870E-01 -0.11660279477E+00  0.13205171630E+00  0.20026046490E-01 0.  0.
         14    1    1    2    0    0 -0.19915229803E-01 -0.90612517182E-02 -0.48090513176E-02  0.22402000700E-01  0.00000000000E+00 0.  1.
     999901    1    3    3    0    0 -0.30212138562E-02 -0.44923200152E-01  0.12141184609E+00  0.88947628300E+00  0.88000000000E+00 0.  1.
        -11    1    4    4    0    0  0.12920638911E-01  0.10585912631E-01 -0.41431253535E-01  0.44674538012E-01  0.51100000000E-03 0. -1.
         11    1    4    4    0    0  0.10015804748E-01  0.43398539240E-01 -0.75171541237E-01  0.87377178290E-01  0.51100000000E-03 0.  1.
</event>
<event>
 8    1  0.1088088E+005  0.1043930E+01  0.7957747E-01            NaN
         13   -1    0    0    0    0  0.00000000000E+00  0.00000000000E+00  0.74505805969E-08  0.10566000000E+00  0.10566000000E+00 0.  1.
     999900   -1    0    0    0    0 -0.00000000000E+00 -0.00000000000E+00 -0.74505805969E-08  0.93827000000E+00  0.93827000000E+00 0. -1.
     999902    2    1    2    0    0 -0.15689201192E-01  0.14821223710E-01 -0.96937178842E-02  0.10202701633E+01  0.10199957932E+01 0.  0.
     999903    2    3    3    0    0 -0.44247769421E-01 -0.49197290061E-02 -0.12305634727E+00  0.13231949869E+00  0.19583572199E-01 0.  0.
         14    1    1    2    0    0  0.15689201192E-01 -0.14821223710E-01  0.96937178842E-02  0.23659836701E-01  0.00000000000E+00 0. -1.
     999901    1    3    3    0    0  0.28558568229E-01  0.19740952716E-01  0.11336262938E+00  0.88795066461E+00  0.88000000000E+00 0.  1.
        -11    1    4    4    0    0 -0.37780387587E-01 -0.47057812490E-02 -0.77991989631E-01  0.86790054909E-01  0.51100000000E-03 0.  1.
         11    1    4    4    0    0 -0.64673818339E-02 -0.21394775709E-03 -0.45064357634E-01  0.45529443785E-01  0.51100000000E-03 0. -1.
</event>
<event>
 8    1  0.1088088E+005  0.1043930E+01  0.7957747E-01            NaN
         13   -1    0    0    0    0  0.00000000000E+00  0.00000000000E+00  0.74505805969E-08  0.10566000000E+00  0.10566000000E+00 0. -1.
     999900   -1    0    0    0    0 -0.00000000000E+00 -0.00000000000E+00 -0.74505805969E-08  0.93827000000E+00  0.93827000000E+00 0.  1.
     999902    2    1    2    0    0 -0.18703859456E-01 -0.15316650257E-01  0.68299202660E-02  0.10188086556E+01  0.10184988929E+01 0.  0.
     999903    2    3    3    0    0 -0.16949949997E-01 -0.12869650945E+00 -0.50198638980E-02  0.13145388661E+00  0.20120460241E-01 0.  0.
         14    1    1    2    0    0  0.18703859456E-01  0.15316650257E-01 -0.68299202660E-02  0.25121344400E-01  0.00000000000E+00 0.  1.
     999901    1    3    3    0    0 -0.17539094593E-02  0.11337985920E+00  0.11849784164E-01  0.88735476899E+00  0.88000000000E+00 0. -1.
        -11    1    4    4    0    0 -0.18986641635E-01 -0.11127662476E+00  0.10405054208E-02  0.11289075937E+00  0.51100000000E-03 0. -1.
         11    1    4    4    0    0  0.20366916382E-02 -0.17419884688E-01 -0.60603693188E-02  0.18563127232E-01  0.51100000000E-03 0.  1.
</event>
<event>
 8    1  0.1088088E+005  0.1043930E+01  0.7957747E-01            NaN
         13   -1    0    0    0    0  0.00000000000E+00  0.00000000000E+00  0.74505805969E-08  0.10566000000E+00  0.10566000000E+00 0. -1.
     999900   -1    0    0    0    0 -0.00000000000E+00 -0.00000000000E+00 -0.74505805969E-08  0.93827000000E+00  0.93827000000E+00 0.  1.
     999902    2    1    2    0    0  0.16109249853E-01 -0.77009495299E-02  0.11434077157E-01  0.10227273899E+01  0.10225075860E+01 0.  0.
     999903    2    3    3    0    0 -0.10257451841E+00 -0.70766038509E-01 -0.36023538353E-01  0.13125934922E+00  0.20048875467E-01 0.  0.
         14    1    1    2    0    0 -0.16109249853E-01  0.77009495299E-02 -0.11434077157E-01  0.21202610097E-01  0.00000000000E+00 0.  1.
     999901    1    3    3    0    0  0.11868376826E+00  0.63065088979E-01  0.47457615510E-01  0.89146804069E+00  0.88000000000E+00 0.  1.
        -11    1    4    4    0    0 -0.77384059060E-01 -0.52805810046E-01 -0.35868383851E-01  0.10031723806E+00  0.51100000000E-03 0.  1.
         11    1    4    4    0    0 -0.25190459350E-01 -0.17960228463E-01 -0.15515450255E-03  0.30942111154E-01  0.51100000000E-03 0. -1.
</event>
<event>
 8    1  0.1088088E+005  0.1043930E+01  0.7957747E-01            NaN
         13   -1    0    0    0    0  0.00000000000E+00  0.00000000000E+00  0.74505805969E-08  0.10566000000E+00  0.10566000000E+00 0. -1.
     999900   -1    0    0    0    0 -0.00000000000E+00 -0.00000000000E+00 -0.74505805969E-08  0.93827000000E+00  0.93827000000E+00 0. -1.
     999902    2    1    2    0    0 -0.14127408876E-01  0.25424094747E-02 -0.18076697003E-01  0.10208472250E+01  0.10205862248E+01 0.  0.
     999903    2    3    3    0    0 -0.37807995026E-02  0.63832994714E-01 -0.11528833010E+00  0.13331486515E+00  0.19811828603E-01 0.  0.
         14    1    1    2    0    0  0.14127408876E-01 -0.25424094747E-02  0.18076697003E-01  0.23082775007E-01  0.00000000000E+00 0. -1.
     999901    1    3    3    0    0 -0.10346609373E-01 -0.61290585240E-01  0.97211633098E-01  0.88753235985E+00  0.88000000000E+00 0.  1.
        -11    1    4    4    0    0 -0.10396144915E-01  0.20116021302E-01 -0.42112190945E-01  0.47816648663E-01  0.51100000000E-03 0.  1.
         11    1    4    4    0    0  0.66153454127E-02  0.43716973412E-01 -0.73176139156E-01  0.85498216484E-01  0.51100000000E-03 0. -1.
</event>
<event>
 8    1  0.1088088E+005  0.1043930E+01  0.7957747E-01            NaN
         13   -1    0    0    0    0  0.00000000000E+00  0.00000000000E+00  0.74505805969E-08  0.10566000000E+00  0.10566000000E+00 0.  1.
     999900   -1    0    0    0    0 -0.00000000000E+00 -0.00000000000E+00 -0.74505805969E-08  0.93827000000E+00  0.93827000000E+00 0. -1.
     999902    2    1    2    0    0  0.48367657640E-02  0.21508197039E-01 -0.80324300319E-02  0.10204669061E+01  0.10201971328E+01 0.  0.
     999903    2    3    3    0    0 -0.10359757018E-01  0.11231141285E+00 -0.68743896735E-01  0.13358357641E+00  0.19941678080E-01 0.  0.
         14    1    1    2    0    0 -0.48367657640E-02 -0.21508197039E-01  0.80324300319E-02  0.23463093896E-01  0.00000000000E+00 0.  1.
     999901    1    3    3    0    0  0.15196522782E-01 -0.90803215813E-01  0.60711466704E-01  0.88688332970E+00  0.88000000000E+00 0.  1.
        -11    1    4    4    0    0 -0.10473903249E-01  0.55393657994E-01 -0.44011906755E-01  0.71522507313E-01  0.51100000000E-03 0. -1.
         11    1    4    4    0    0  0.11414623088E-03  0.56917754859E-01 -0.24731989981E-01  0.62061069093E-01  0.51100000000E-03 0.  1.
</event>
<event>
 8    1  0.1088088E+005  0.1043930E+01  0.7957747E-01            NaN
         13   -1    0    0    0    0  0.00000000000E+00  0.00000000000E+00  0.74505805969E-08  0.10566000000E+00  0.10566000000E+00 0.  1.
     999900   -1    0    0    0    0 -0.00000000000E+00 -0.00000000000E+00 -0.74505805969E-08  0.93827000000E+00  0.93827000000E+00 0. -1.
     999902    2    1    2    0    0 -0.10553367153E-01  0.10698769891E-01 -0.19573020385E-01  0.10192532830E+01  0.10189545203E+01 0.  0.
     999903    2    3    3    0    0 -0.20571805150E-01  0.91615540136E-01  0.86440939902E-01  0.12914831582E+00  0.19764741987E-01 0.  0.
         14    1    1    2    0    0  0.10553367153E-01 -0.10698769891E-01  0.19573020385E-01  0.24676717011E-01  0.00000000000E+00 0. -1.
     999901    1    3    3    0    0  0.10018437997E-01 -0.80916770245E-01 -0.10601396029E+00  0.89010496717E+00  0.88000000000E+00 0. -1.
        -11    1    4    4    0    0 -0.23733043058E-01  0.69846878084E-01  0.69830783051E-01  0.10157973761E+00  0.51100000000E-03 0.  1.
         11    1    4    4    0    0  0.31612379076E-02  0.21768662052E-01  0.16610156851E-01  0.27568578206E-01  0.51100000000E-03 0. -1.
</event>
<event>
 8    1  0.1088088E+005  0.1043930E+01  0.7957747E-01            NaN
         13   -1    0    0    0    0  0.00000000000E+00  0.00000000000E+00  0.74505805969E-08  0.10566000000E+00  0.10566000000E+00 0. -1.
     999900   -1    0    0    0    0 -0.00000000000E+00 -0.00000000000E+00 -0.74505805969E-08  0.93827000000E+00  0.93827000000E+00 0. -1.
     999902    2    1    2    0    0 -0.23906761177E-01 -0.88183397809E-02  0.63372681074E-02  0.10176724808E+01  0.10173336822E+01 0.  0.
     999903    2    3    3    0    0 -0.49711766793E-01  0.11505661791E+00  0.14216700293E-01  0.12858700185E+00  0.24964322472E-01 0.  0.
         14    1    1    2    0    0  0.23906761177E-01  0.88183397809E-02 -0.63372681074E-02  0.26257519181E-01  0.00000000000E+00 0.  1.
     999901    1    3    3    0    0  0.25805005616E-01 -0.12387495769E+00 -0.78794321856E-02  0.88908547897E+00  0.88000000000E+00 0.  1.
        -11    1    4    4    0    0 -0.41099264880E-01  0.85889764614E-01  0.20807593994E-01  0.97464959487E-01  0.51100000000E-03 0.  1.
         11    1    4    4    0    0 -0.86125019129E-02  0.29166853293E-01 -0.65908937011E-02  0.31122042365E-01  0.51100000000E-03 0. -1.
</event>
<event>
 8    1  0.1088088E+005  0.1043930E+01  0.7957747E-01            NaN
         13   -1    0    0    0    0  0.00000000000E+00  0.00000000000E+00  0.74505805969E-08  0.10566000000E+00  0.10566000000E+00 0.  1.
     999900   -1    0    0    0    0 -0.00000000000E+00 -0.00000000000E+00 -0.74505805969E-08  0.93827000000E+00  0.93827000000E+00 0.  1.
     999902    2    1    2    0    0 -0.12808484341E-01  0.17538974041E-01 -0.78907121999E-02  0.10208229400E+01  0.10205613841E+01 0.  0.
     999903    2    3    3    0    0  0.12595836967E+00  0.92269065705E-02 -0.21974543327E-01  0.12979898719E+00  0.20353128178E-01 0.  0.
         14    1    1    2    0    0  0.12808484341E-01 -0.17538974041E-01  0.78907121999E-02  0.23107059972E-01  0.00000000000E+00 0.  1.
     999901    1    3    3    0    0 -0.13876685401E+00  0.83120674710E-02  0.14083831127E-01  0.89102395284E+00  0.88000000000E+00 0.  1.
        -11    1    4    4    0    0  0.10479797642E+00  0.41677043023E-02 -0.25017485518E-01  0.10782449315E+00  0.51100000000E-03 0.  1.
         11    1    4    4    0    0  0.21160393246E-01  0.50592022682E-02  0.30429421914E-02  0.21974494035E-01  0.51100000000E-03 0. -1.
</event>
<event>
 8    1  0.1088088E+005  0.1043930E+01  0.7957747E-01            NaN
         13   -1    0    0    0    0  0.00000000000E+00  0.00000000000E+00  0.74505805969E-08  0.10566000000E+00  0.10566000000E+00 0. -1.
     999900   -1    0    0    0    0 -0.00000000000E+00 -0.00000000000E+00 -0.74505805969E-08  0.93827000000E+00  0.93827000000E+00 0.  1.
     999902    2    1    2    0    0 -0.15103710920E-01 -0.18164291195E-01  0.13793684368E-02  0.10202663947E+01  0.10199919362E+01 0.  0.
     999903    2    3    3    0    0 -0.74381326691E-01 -0.35329495697E-01  0.10164673520E+00  0.13242517871E+00  0.20581888975E-01 0.  0.
         14    1    1    2    0    0  0.15103710920E-01  0.18164291195E-01 -0.13793684368E-02  0.23663605293E-01  0.00000000000E+00 0.  1.
     999901    1    3    3    0    0  0.59277615771E-01  0.17165204503E-01 -0.10026736677E+00  0.88784121599E+00  0.88000000000E+00 0.  1.
        -11    1    4    4    0    0 -0.54442065116E-01 -0.29316831748E-01  0.61591922033E-01  0.87276807106E-01  0.51100000000E-03 0.  1.
         11    1    4    4    0    0 -0.19939261575E-01 -0.60126639497E-02  0.40054813169E-01  0.45148371609E-01  0.51100000000E-03 0. -1.
</event>
<event>
 8    1  0.1088088E+005  0.1043930E+01  0.7957747E-01            NaN
         13   -1    0    0    0    0  0.00000000000E+00  0.00000000000E+00  0.74505805969E-08  0.10566000000E+00  0.10566000000E+00 0.  1.
     999900   -1    0    0    0    0 -0.00000000000E+00 -0.00000000000E+00 -0.74505805969E-08  0.93827000000E+00  0.93827000000E+00 0. -1.
     999902    2    1    2    0    0  0.85436366355E-02  0.21955542636E-01  0.30602182132E-02  0.10201728008E+01  0.10198961412E+01 0.  0.
     999903    2    3    3    0    0  0.15212354487E-01  0.38222368012E-01  0.12345520567E+00  0.13180123752E+00  0.20928766273E-01 0.  0.
         14    1    1    2    0    0 -0.85436366355E-02 -0.21955542636E-01 -0.30602182132E-02  0.23757199223E-01  0.00000000000E+00 0. -1.
     999901    1    3    3    0    0 -0.66687178516E-02 -0.16266825376E-01 -0.12039498746E+00  0.88837156326E+00  0.88000000000E+00 0. -1.
        -11    1    4    4    0    0  0.35280475335E-02  0.32349407852E-01  0.78479769971E-01  0.84960383259E-01  0.51100000000E-03 0. -1.
         11    1    4    4    0    0  0.11684306954E-01  0.58729601599E-02  0.44975435701E-01  0.46840854257E-01  0.51100000000E-03 0.  1.
</event>
<event>
 8    1  0.1088088E+005  0.1043930E+01  0.7957747E-01            NaN
         13   -1    0    0    0    0  0.00000000000E+00  0.00000000000E+00  0.74505805969E-08  0.10566000000E+00  0.10566000000E+00 0.  1.
     999900   -1    0    0    0    0 -0.00000000000E+00 -0.00000000000E+00 -0.74505805969E-08  0.93827000000E+00  0.93827000000E+00 0.  1.
     999902    2    1    2    0    0 -0.17297154406E-01  0.17893540897E-01 -0.58616285262E-02  0.10183618744E+01  0.10180408529E+01 0.  0.
     999903    2    3    3    0    0 -0.29084029744E-01 -0.43126419057E-01 -0.11647599136E+00  0.12926238437E+00  0.20888720475E-01 0.  0.
         14    1    1    2    0    0  0.17297154406E-01 -0.17893540897E-01  0.58616285262E-02  0.25568125574E-01  0.00000000000E+00 0.  1.
     999901    1    3    3    0    0  0.11786875338E-01  0.61019959955E-01  0.11061436284E+00  0.88909949005E+00  0.88000000000E+00 0. -1.
        -11    1    4    4    0    0  0.28622823589E-02 -0.28624919290E-02 -0.14522417162E-01  0.15084702236E-01  0.51100000000E-03 0.  1.
         11    1    4    4    0    0 -0.31946312103E-01 -0.40263927128E-01 -0.10195357420E+00  0.11417768214E+00  0.51100000000E-03 0. -1.
</event>
<event>
 8    1  0.1088088E+005  0.1043930E+01  0.7957747E-01            NaN
         13   -1    0    0    0    0  0.00000000000E+00  0.00000000000E+00  0.74505805969E-08  0.10566000000E+00  0.10566000000E+00 0.  1.
     999900   -1    0    0    0    0 -0.00000000000E+00 -0.00000000000E+00 -0.74505805969E-08  0.93827000000E+00  0.93827000000E+00 0.  1.
     999902    2    1    2    0    0  0.24421798030E-02 -0.22938173604E-01  0.34691202658E-02  0.10206027874E+01  0.10203361656E+01 0.  0.
     999903    2    3    3    0    0  0.53946203250E-01 -0.82790828252E-01 -0.86233434906E-01  0.13252533974E+00  0.19032768868E-01 0.  0.
         14    1    1    2    0    0 -0.24421798030E-02  0.22938173604E-01 -0.34691202658E-02  0.23327212562E-01  0.00000000000E+00 0. -1.
     999901    1    3    3    0    0 -0.51504023447E-01  0.59852654648E-01  0.89702555171E-01  0.88807744769E+00  0.88000000000E+00 0. -1.
        -11    1    4    4    0    0  0.24019892917E-01 -0.23521923594E-01 -0.36054240617E-01  0.49299143327E-01  0.51100000000E-03 0. -1.
         11    1    4    4    0    0  0.29926310333E-01 -0.59268904658E-01 -0.50179194289E-01  0.83226196417E-01  0.51100000000E-03 0.  1.
</event>
<event>
 8    1  0.1088088E+005  0.1043930E+01  0.7957747E-01            NaN
         13   -1    0    0    0    0  0.00000000000E+00  0.00000000000E+00  0.74505805969E-08  0.10566000000E+00  0.10566000000E+00 0.  1.
     999900   -1    0    0    0    0 -0.00000000000E+00 -0.00000000000E+00 -0.74505805969E-08  0.93827000000E+00  0.93827000000E+00 0.  1.
     999902    2    1    2    0    0 -0.15549226013E-01 -0.77433049480E-02 -0.15608079869E-01  0.10205772837E+01  0.10203100718E+01 0.  0.
     999903    2    3    3    0    0 -0.95600825581E-02  0.10281857278E+00 -0.78819230886E-01  0.13138919997E+00  0.19687473777E-01 0.  0.
         14    1    1    2    0    0  0.15549226013E-01  0.77433049480E-02  0.15608079869E-01  0.23352716294E-01  0.00000000000E+00 0.  1.
     999901    1    3    3    0    0 -0.59891434546E-02 -0.11056187773E+00  0.63211151016E-01  0.88918808374E+00  0.88000000000E+00 0. -1.
        -11    1    4    4    0    0 -0.13053757323E-01  0.78807610961E-01 -0.52511348816E-01  0.95596772964E-01  0.51100000000E-03 0.  1.
         11    1    4    4    0    0  0.34936747650E-02  0.24010961820E-01 -0.26307882070E-01  0.35792427005E-01  0.51100000000E-03 0. -1.
</event>
<event>
 8    1  0.1088088E+005  0.1043930E+01  0.7957747E-01            NaN
         13   -1    0    0    0    0  0.00000000000E+00  0.00000000000E+00  0.74505805969E-08  0.10566000000E+00  0.10566000000E+00 0. -1.
     999900   -1    0    0    0    0 -0.00000000000E+00 -0.00000000000E+00 -0.74505805969E-08  0.93827000000E+00  0.93827000000E+00 0. -1.
     999902    2    1    2    0    0 -0.14347352927E-01 -0.14153081679E-01  0.11764051285E-01  0.10205944229E+01  0.10203276076E+01 0.  0.
     999903    2    3    3    0    0  0.12277216724E+00 -0.37037247823E-01  0.46572629804E-02  0.12965337303E+00  0.18534947087E-01 0.  0.
         14    1    1    2    0    0  0.14347352927E-01  0.14153081679E-01 -0.11764051285E-01  0.23335577123E-01  0.00000000000E+00 0.  1.
     999901    1    3    3    0    0 -0.13711952017E+00  0.22884166144E-01  0.71067883045E-02  0.89094104985E+00  0.88000000000E+00 0.  1.
        -11    1    4    4    0    0  0.69980457613E-01 -0.28921865730E-01 -0.24835159250E-02  0.75763894682E-01  0.51100000000E-03 0.  1.
         11    1    4    4    0    0  0.52791709626E-01 -0.81153820932E-02  0.71407789054E-02  0.53889478344E-01  0.51100000000E-03 0. -1.
</event>
<event>
 8    1  0.1088088E+005  0.1043930E+01  0.7957747E-01            NaN
         13   -1    0    0    0    0  0.00000000000E+00  0.00000000000E+00  0.74505805969E-08  0.10566000000E+00  0.10566000000E+00 0. -1.
     999900   -1    0    0    0    0 -0.00000000000E+00 -0.00000000000E+00 -0.74505805969E-08  0.93827000000E+00  0.93827000000E+00 0. -1.
     999902    2    1    2    0    0 -0.15261249055E-03 -0.31158443864E-01  0.73062926088E-02  0.10119260342E+01  0.10114198163E+01 0.  0.
     999903    2    3    3    0    0 -0.10012582839E+00 -0.72440144307E-01 -0.30572108432E-02  0.12524332608E+00  0.20094481134E-01 0.  0.
         14    1    1    2    0    0  0.15261249055E-03  0.31158443864E-01 -0.73062926088E-02  0.32003965790E-01  0.00000000000E+00 0.  1.
     999901    1    3    3    0    0  0.99973215900E-01  0.41281700443E-01  0.10363503452E-01  0.88668270813E+00  0.88000000000E+00 0. -1.
        -11    1    4    4    0    0 -0.37583879289E-01 -0.39444472346E-01 -0.70041169398E-03  0.54490054860E-01  0.51100000000E-03 0. -1.
         11    1    4    4    0    0 -0.62541949101E-01 -0.32995671961E-01 -0.23567991492E-02  0.70753271223E-01  0.51100000000E-03 0.  1.
</event>
<event>
 8    1  0.1088088E+005  0.1043930E+01  0.7957747E-01            NaN
         13   -1    0    0    0    0  0.00000000000E+00  0.00000000000E+00  0.74505805969E-08  0.10566000000E+00  0.10566000000E+00 0.  1.
     999900   -1    0    0    0    0 -0.00000000000E+00 -0.00000000000E+00 -0.74505805969E-08  0.93827000000E+00  0.93827000000E+00 0.  1.
     999902    2    1    2    0    0  0.22335764591E-01 -0.75992760325E-02 -0.14037054706E-02  0.10202951578E+01  0.10200213739E+01 0.  0.
     999903    2    3    3    0    0  0.11796147583E+00 -0.51337565518E-01 -0.30416155748E-01  0.13356011459E+00  0.19044848770E-01 0.  0.
         14    1    1    2    0    0 -0.22335764591E-01  0.75992760325E-02  0.14037054706E-02  0.23634842186E-01  0.00000000000E+00 0.  1.
     999901    1    3    3    0    0 -0.95625711239E-01  0.43738289485E-01  0.29012450277E-01  0.88673504323E+00  0.88000000000E+00 0. -1.
        -11    1    4    4    0    0  0.52715696845E-02  0.11349215778E-02 -0.32531334935E-02  0.63183457054E-02  0.51100000000E-03 0.  1.
         11    1    4    4    0    0  0.11268990615E+00 -0.52472487095E-01 -0.27163022254E-01  0.12724176888E+00  0.51100000000E-03 0. -1.
</event>
<event>
 8    1  0.1088088E+005  0.1043930E+01  0.7957747E-01            NaN
         13   -1    0    0    0    0  0.00000000000E+00  0.00000000000E+00  0.74505805969E-08  0.10566000000E+00  0.10566000000E+00 0. -1.
     999900   -1    0    0    0    0 -0.00000000000E+00 -0.00000000000E+00 -0.74505805969E-08  0.93827000000E+00  0.93827000000E+00 0.  1.
     999902    2    1    2    0    0 -0.22860256077E-01  0.14397086140E-02  0.34690518000E-02  0.10207632482E+01  0.10205003236E+01 0.  0.
     999903    2    3    3    0    0 -0.56793803325E-01 -0.11720790681E+00  0.81854878526E-02  0.13214016328E+00  0.20755505912E-01 0.  0.
         14    1    1    2    0    0  0.22860256077E-01 -0.14397086140E-02 -0.34690518000E-02  0.23166751804E-01  0.00000000000E+00 0.  1.
     999901    1    3    3    0    0  0.33933547249E-01  0.11864761542E+00 -0.47164360526E-02  0.88862308491E+00  0.88000000000E+00 0. -1.
        -11    1    4    4    0    0 -0.39072901866E-01 -0.61937027049E-01 -0.17347632271E-02  0.73254061351E-01  0.51100000000E-03 0.  1.
         11    1    4    4    0    0 -0.17720901459E-01 -0.55270879761E-01  0.99202510797E-02  0.58886101930E-01  0.51100000000E-03 0. -1.
</event>
<event>
 8    1  0.1088088E+005  0.1043930E+01  0.7957747E-01            NaN
         13   -1    0    0    0    0  0.00000000000E+00  0.00000000000E+00  0.74505805969E-08  0.10566000000E+00  0.10566000000E+00 0. -1.
     999900   -1    0    0    0    0 -0.00000000000E+00 -0.00000000000E+00 -0.74505805969E-08  0.93827000000E+00  0.93827000000E+00 0.  1.
     999902    2    1    2    0    0  0.10707829425E-02  0.28900903624E-02  0.23616369361E-01  0.10201133651E+01  0.10198353031E+01 0.  0.
     999903    2    3    3    0    0 -0.43059817595E-01  0.41709043857E-01  0.11721738596E+00  0.13319985666E+00  0.20211234827E-01 0.  0.
         14    1    1    2    0    0 -0.10707829425E-02 -0.28900903624E-02 -0.23616369361E-01  0.23816634947E-01  0.00000000000E+00 0.  1.
     999901    1    3    3    0    0  0.44130600538E-01 -0.38818953494E-01 -0.93601016599E-01  0.88691350839E+00  0.88000000000E+00 0.  1.
        -11    1    4    4    0    0 -0.30611977672E-01  0.39069437716E-01  0.10136654057E+00  0.11286696066E+00  0.51100000000E-03 0.  1.
         11    1    4    4    0    0 -0.12447839923E-01  0.26396061404E-02  0.15850845388E-01  0.20332896002E-01  0.51100000000E-03 0. -1.
</event>
<event>
 8    1  0.1088088E+005  0.1043930E+01  0.7957747E-01            NaN
         13   -1    0    0    0    0  0.00000000000E+00  0.00000000000E+00  0.74505805969E-08  0.10566000000E+00  0.10566000000E+00 0.  1.
     999900   -1    0    0    0    0 -0.00000000000E+00 -0.00000000000E+00 -0.74505805969E-08  0.93827000000E+00  0.93827000000E+00 0.  1.
     999902    2    1    2    0    0  0.14300643235E-01  0.13209659801E-01  0.14781563776E-01  0.10194862250E+01  0.10191931440E+01 0.  0.
     999903    2    3    3    0    0 -0.10977609730E+00  0.43125707633E-02  0.65165522613E-01  0.12931054624E+00  0.20131622541E-01 0.  0.
         14    1    1    2    0    0 -0.14300643235E-01 -0.13209659801E-01 -0.14781563776E-01  0.24443775008E-01  0.00000000000E+00 0. -1.
     999901    1    3    3    0    0  0.12407674054E+00  0.88970890374E-02 -0.50383958836E-01  0.89017567875E+00  0.88000000000E+00 0.  1.
        -11    1    4    4    0    0 -0.95578658006E-01  0.45106953484E-02  0.63867784990E-01  0.11504338885E+00  0.51100000000E-03 0. -1.
         11    1    4    4    0    0 -0.14197439295E-01 -0.19812458510E-03  0.12977376223E-02  0.14267157384E-01  0.51100000000E-03 0.  1.
</event>
<event>
 8    1  0.1100493E+005  0.1043930E+01  0.7957747E-01            NaN
         13   -1    0    0    0    0  0.00000000000E+00  0.00000000000E+00  0.74505805969E-08  0.10566000000E+00  0.10566000000E+00 0. -1.
     999900   -1    0    0    0    0 -0.00000000000E+00 -0.00000000000E+00 -0.74505805969E-08  0.93827000000E+00  0.93827000000E+00 0.  1.
     999902    2    1    2    0    0 -0.73710827807E-02 -0.20302574111E-01 -0.10407278699E-01  0.10199542033E+01  0.10196723680E+01 0.  0.
     999903    2    3    3    0    0 -0.18274375869E-01 -0.46820161850E-02 -0.12891276173E+00  0.13180644920E+00  0.19964113402E-01 0.  0.
         14    1    1    2    0    0  0.73710827807E-02  0.20302574111E-01  0.10407278699E-01  0.23975796688E-01  0.00000000000E+00 0. -1.
     999901    1    3    3    0    0  0.10903293088E-01 -0.15620557926E-01  0.11850548303E+00  0.88814775411E+00  0.88000000000E+00 0. -1.
        -11    1    4    4    0    0 -0.22001384250E-02 -0.83826052197E-02 -0.72844439182E-01  0.73359949019E-01  0.51100000000E-03 0.  1.
         11    1    4    4    0    0 -0.16074237444E-01  0.37005890348E-02 -0.56068322550E-01  0.58446500179E-01  0.51100000000E-03 0. -1.
</event>
<event>
 8    1  0.1088088E+005  0.1043930E+01  0.7957747E-01            NaN
         13   -1    0    0    0    0  0.00000000000E+00  0.00000000000E+00  0.74505805969E-08  0.10566000000E+00  0.10566000000E+00 0.  1.
     999900   -1    0    0    0    0 -0.00000000000E+00 -0.00000000000E+00 -0.74505805969E-08  0.93827000000E+00  0.93827000000E+00 0.  1.
     999902    2    1    2    0    0 -0.10449217995E-01 -0.21343484346E-01  0.64203918883E-02  0.10193139095E+01  0.10190166309E+01 0.  0.
     999903    2    3    3    0    0 -0.85972113468E-01  0.90591522892E-01  0.25583860367E-01  0.12880821488E+00  0.18411789556E-01 0.  0.
         14    1    1    2    0    0  0.10449217995E-01  0.21343484346E-01 -0.64203918883E-02  0.24616090525E-01  0.00000000000E+00 0. -1.
     999901    1    3    3    0    0  0.75522895473E-01 -0.11193500724E+00 -0.19163468479E-01  0.89050569460E+00  0.88000000000E+00 0. -1.
        -11    1    4    4    0    0 -0.72317238833E-01  0.76207493234E-01  0.14425534255E-01  0.10604584960E+00  0.51100000000E-03 0. -1.
         11    1    4    4    0    0 -0.13654874635E-01  0.14384029658E-01  0.11158326112E-01  0.22762365280E-01  0.51100000000E-03 0.  1.
</event>
<event>
 8    1  0.1088088E+005  0.1043930E+01  0.7957747E-01            NaN
         13   -1    0    0    0    0  0.00000000000E+00  0.00000000000E+00  0.74505805969E-08  0.10566000000E+00  0.10566000000E+00 0. -1.
     999900   -1    0    0    0    0 -0.00000000000E+00 -0.00000000000E+00 -0.74505805969E-08  0.93827000000E+00  0.93827000000E+00 0.  1.
     999902    2    1    2    0    0  0.14100646946E-01 -0.18656301087E-01 -0.24100831641E-03  0.10205431682E+01  0.10202751660E+01 0.  0.
     999903    2    3    3    0    0 -0.26029580617E-01  0.28463881708E-01 -0.12246918863E+00  0.12994198093E+00  0.19962079412E-01 0.  0.
         14    1    1    2    0    0 -0.14100646946E-01  0.18656301087E-01  0.24100831641E-03  0.23386831755E-01  0.00000000000E+00 0.  1.
     999901    1    3    3    0    0  0.40130227563E-01 -0.47120182795E-01  0.12222818031E+00  0.89060118732E+00  0.88000000000E+00 0. -1.
        -11    1    4    4    0    0 -0.21866789650E-01  0.15441150792E-01 -0.10096363434E+00  0.10445334943E+00  0.51100000000E-03 0.  1.
         11    1    4    4    0    0 -0.41627909668E-02  0.13022730916E-01 -0.21505554287E-01  0.25488631492E-01  0.51100000000E-03 0. -1.
</event>
<event>
 8    1  0.1088088E+005  0.1043930E+01  0.7957747E-01            NaN
         13   -1    0    0    0    0  0.00000000000E+00  0.00000000000E+00  0.74505805969E-08  0.10566000000E+00  0.10566000000E+00 0. -1.
     999900   -1    0    0    0    0 -0.00000000000E+00 -0.00000000000E+00 -0.74505805969E-08  0.93827000000E+00  0.93827000000E+00 0.  1.
     999902    2    1    2    0    0  0.13973569027E-01 -0.32049526460E-02 -0.13411654507E-01  0.10242982698E+01  0.10241101214E+01 0.  0.
     999903    2    3    3    0    0 -0.78668798110E-02  0.40059671203E-01  0.12425502367E+00  0.13227755978E+00  0.19783246911E-01 0.  0.
         14    1    1    2    0    0 -0.13973569027E-01  0.32049526460E-02  0.13411654507E-01  0.19631730170E-01  0.00000000000E+00 0.  1.
     999901    1    3    3    0    0  0.21840448838E-01 -0.43264623849E-01 -0.13766667818E+00  0.89202071005E+00  0.88000000000E+00 0.  1.
        -11    1    4    4    0    0  0.39955492372E-02  0.78561668309E-02  0.45801305060E-01  0.46644447013E-01  0.51100000000E-03 0.  1.
         11    1    4    4    0    0 -0.11862429048E-01  0.32203504373E-01  0.78453718612E-01  0.85633112765E-01  0.51100000000E-03 0. -1.
</event>
<event>
 8    1  0.1088088E+005  0.1043930E+01  0.7957747E-01            NaN
         13   -1    0    0    0    0  0.00000000000E+00  0.00000000000E+00  0.74505805969E-08  0.10566000000E+00  0.10566000000E+00 0.  1.
     999900   -1    0    0    0    0 -0.00000000000E+00 -0.00000000000E+00 -0.74505805969E-08  0.93827000000E+00  0.93827000000E+00 0. -1.
     999902    2    1    2    0    0 -0.80938321310E-02  0.19150026782E-01 -0.97659869095E-02  0.10209602777E+01  0.10207018568E+01 0.  0.
     999903    2    3    3    0    0  0.66049040823E-01 -0.13546996562E-01 -0.11105151842E+00  0.13145197537E+00  0.20029607445E-01 0.  0.
         14    1    1    2    0    0  0.80938321310E-02 -0.19150026782E-01  0.97659869095E-02  0.22969722345E-01  0.00000000000E+00 0. -1.
     999901    1    3    3    0    0 -0.74142872954E-01  0.32697023344E-01  0.10128553151E+00  0.88950830229E+00  0.88000000000E+00 0. -1.
        -11    1    4    4    0    0  0.42939310326E-01 -0.10210163138E-03 -0.76889658785E-01  0.88068584325E-01  0.51100000000E-03 0.  1.
         11    1    4    4    0    0  0.23109730498E-01 -0.13444894931E-01 -0.34161859637E-01  0.43383391041E-01  0.51100000000E-03 0. -1.
</event>
<event>
 8    1  0.1088088E+005  0.1043930E+01  0.7957747E-01            NaN
         13   -1    0    0    0    0  0.00000000000E+00  0.00000000000E+00  0.74505805969E-08  0.10566000000E+00  0.10566000000E+00 0.  1.
     999900   -1    0    0    0    0 -0.00000000000E+00 -0.00000000000E+00 -0.74505805969E-08  0.93827000000E+00  0.93827000000E+00 0.  1.
     999902    2    1    2    0    0  0.21403067148E-01  0.71169564099E-02  0.10317388584E-01  0.10191269587E+01  0.10188250915E+01 0.  0.
     999903    2    3    3    0    0  0.49773983297E-01  0.11218104258E+00 -0.40883185399E-01  0.13094630708E+00  0.20333832929E-01 0.  0.
         14    1    1    2    0    0 -0.21403067148E-01 -0.71169564099E-02 -0.10317388584E-01  0.24803041327E-01  0.00000000000E+00 0. -1.
     999901    1    3    3    0    0 -0.28370916149E-01 -0.10506408617E+00  0.51200573983E-01  0.88818065159E+00  0.88000000000E+00 0. -1.
        -11    1    4    4    0    0  0.15057278097E-01  0.25217764514E-01 -0.16520107273E-02  0.29421888641E-01  0.51100000000E-03 0.  1.
         11    1    4    4    0    0  0.34716705200E-01  0.86963278069E-01 -0.39231174672E-01  0.10152441844E+00  0.51100000000E-03 0. -1.
</event>
<event>
 8    1  0.1088088E+005  0.1043930E+01  0.7957747E-01            NaN
         13   -1    0    0    0    0  0.00000000000E+00  0.00000000000E+00  0.74505805969E-08  0.10566000000E+00  0.10566000000E+00 0. -1.
     999900   -1    0    0    0    0 -0.00000000000E+00 -0.00000000000E+00 -0.74505805969E-08  0.93827000000E+00  0.93827000000E+00 0.  1.
     999902    2    1    2    0    0  0.16385924686E-01  0.14715206769E-01  0.78141614950E-02  0.10205612825E+01  0.10202937001E+01 0.  0.
     999903    2    3    3    0    0  0.62962947943E-01  0.71788526324E-01 -0.89202687837E-01  0.13217001061E+00  0.19846079267E-01 0.  0.
         14    1    1    2    0    0 -0.16385924686E-01 -0.14715206769E-01 -0.78141614950E-02  0.23368717507E-01  0.00000000000E+00 0. -1.
     999901    1    3    3    0    0 -0.46577023257E-01 -0.57073319555E-01  0.97016849332E-01  0.88839127188E+00  0.88000000000E+00 0. -1.
        -11    1    4    4    0    0  0.40894011131E-01  0.52175852839E-01 -0.72517463948E-01  0.98253160072E-01  0.51100000000E-03 0.  1.
         11    1    4    4    0    0  0.22068936812E-01  0.19612673485E-01 -0.16685223890E-01  0.33916850539E-01  0.51100000000E-03 0. -1.
</event>
<event>
 8    1  0.1113950E+005  0.1043930E+01  0.7957747E-01            NaN
         13   -1    0    0    0    0  0.00000000000E+00  0.00000000000E+00  0.74505805969E-08  0.10566000000E+00  0.10566000000E+00 0.  1.
     999900   -1    0    0    0    0 -0.00000000000E+00 -0.00000000000E+00 -0.74505805969E-08  0.93827000000E+00  0.93827000000E+00 0. -1.
     999902    2    1    2    0    0  0.28169225272E-01 -0.10367863591E-01  0.17021335211E-01  0.10094231355E+01  0.10088331590E+01 0.  0.
     999903    2    3    3    0    0 -0.63855358832E-01 -0.99405570504E-01  0.50957861862E-02  0.12007592765E+00  0.20815548620E-01 0.  0.
         14    1    1    2    0    0 -0.28169225272E-01  0.10367863591E-01 -0.17021335211E-01  0.34506864538E-01  0.00000000000E+00 0. -1.
     999901    1    3    3    0    0  0.92024584104E-01  0.89037706913E-01  0.11925549025E-01  0.88934720782E+00  0.88000000000E+00 0. -1.
        -11    1    4    4    0    0 -0.40510022458E-01 -0.64323852916E-01  0.13213219788E-01  0.77158734254E-01  0.51100000000E-03 0.  1.
         11    1    4    4    0    0 -0.23345336374E-01 -0.35081717588E-01 -0.81174336022E-02  0.42917193392E-01  0.51100000000E-03 0. -1.
</event>
<event>
 8    1  0.1088088E+005  0.1043930E+01  0.7957747E-01            NaN
         13   -1    0    0    0    0  0.00000000000E+00  0.00000000000E+00  0.74505805969E-08  0.10566000000E+00  0.10566000000E+00 0.  1.
     999900   -1    0    0    0    0 -0.00000000000E+00 -0.00000000000E+00 -0.74505805969E-08  0.93827000000E+00  0.93827000000E+00 0. -1.
     999902    2    1    2    0    0 -0.16493882327E-01  0.17000362043E-01  0.99240793826E-03  0.10202225046E+01  0.10199470151E+01 0.  0.
     999903    2    3    3    0    0  0.50572453673E-01  0.97071760866E-01  0.69795333571E-01  0.13137878106E+00  0.20211276457E-01 0.  0.
         14    1    1    2    0    0  0.16493882327E-01 -0.17000362043E-01 -0.99240793826E-03  0.23707495383E-01  0.00000000000E+00 0. -1.
     999901    1    3    3    0    0 -0.67066336000E-01 -0.80071398823E-01 -0.68802925633E-01  0.88884372356E+00  0.88000000000E+00 0. -1.
        -11    1    4    4    0    0  0.25429179540E-01  0.28146084743E-01  0.23725922026E-01  0.44744002452E-01  0.51100000000E-03 0. -1.
         11    1    4    4    0    0  0.25143274134E-01  0.68925676123E-01  0.46069411546E-01  0.86634778607E-01  0.51100000000E-03 0.  1.
</event>
<event>
 8    1  0.1088088E+005  0.1043930E+01  0.7957747E-01            NaN
         13   -1    0    0    0    0  0.00000000000E+00  0.00000000000E+00  0.74505805969E-08  0.10566000000E+00  0.10566000000E+00 0. -1.
     999900   -1    0    0    0    0 -0.00000000000E+00 -0.00000000000E+00 -0.74505805969E-08  0.93827000000E+00  0.93827000000E+00 0. -1.
     999902    2    1    2    0    0 -0.12745534224E-01  0.13124369979E-01 -0.16500931926E-01  0.10192930667E+01  0.10189952783E+01 0.  0.
     999903    2    3    3    0    0  0.74785774992E-01  0.10080159213E+00 -0.29072947824E-01  0.13052589751E+00  0.20926072452E-01 0.  0.
         14    1    1    2    0    0  0.12745534224E-01 -0.13124369979E-01  0.16500931926E-01  0.24636933341E-01  0.00000000000E+00 0. -1.
     999901    1    3    3    0    0 -0.87531309217E-01 -0.87677222150E-01  0.12572015898E-01  0.88876716915E+00  0.88000000000E+00 0. -1.
        -11    1    4    4    0    0  0.12781298946E-01  0.22524071363E-01  0.18989652865E-02  0.25972342668E-01  0.51100000000E-03 0.  1.
         11    1    4    4    0    0  0.62004476046E-01  0.78277520766E-01 -0.30971913110E-01  0.10455355484E+00  0.51100000000E-03 0. -1.
</event>
<event>
 8    1  0.1088088E+005  0.1043930E+01  0.7957747E-01            NaN
         13   -1    0    0    0    0  0.00000000000E+00  0.00000000000E+00  0.74505805969E-08  0.10566000000E+00  0.10566000000E+00 0.  1.
     999900   -1    0    0    0    0 -0.00000000000E+00 -0.00000000000E+00 -0.74505805969E-08  0.93827000000E+00  0.93827000000E+00 0.  1.
     999902    2    1    2    0    0 -0.81602898548E-03 -0.23752246762E-01  0.88033870834E-03  0.10201474407E+01  0.10198701833E+01 0.  0.
     999903    2    3    3    0    0 -0.96751736319E-01 -0.36561925848E-02  0.85362513004E-01  0.13068426042E+00  0.20429172058E-01 0.  0.
         14    1    1    2    0    0  0.81602898548E-03  0.23752246762E-01 -0.88033870834E-03  0.23782559277E-01  0.00000000000E+00 0. -1.
     999901    1    3    3    0    0  0.95935707334E-01 -0.20096054177E-01 -0.84482174295E-01  0.88946318030E+00  0.88000000000E+00 0.  1.
        -11    1    4    4    0    0 -0.50777684839E-01 -0.12104087404E-01  0.45553556499E-01  0.69283979680E-01  0.51100000000E-03 0. -1.
         11    1    4    4    0    0 -0.45974051480E-01  0.84478948197E-02  0.39808956504E-01  0.61400280743E-01  0.51100000000E-03 0.  1.
</event>
<event>
 8    1  0.1088088E+005  0.1043930E+01  0.7957747E-01            NaN
         13   -1    0    0    0    0  0.00000000000E+00  0.00000000000E+00  0.74505805969E-08  0.10566000000E+00  0.10566000000E+00 0. -1.
     999900   -1    0    0    0    0 -0.00000000000E+00 -0.00000000000E+00 -0.74505805969E-08  0.93827000000E+00  0.93827000000E+00 0.  1.
     999902    2    1    2    0    0  0.19810264879E-01 -0.15171788217E-02  0.31122298706E-01  0.10070064858E+01  0.10063293280E+01 0.  0.
     999903    2    3    3    0    0 -0.11136917407E+00 -0.70289279203E-02  0.29542184970E-01  0.11726443251E+00  0.20632684744E-01 0.  0.
         14    1    1    2    0    0 -0.19810264879E-01  0.15171788217E-02 -0.31122298706E-01  0.36923514227E-01  0.00000000000E+00 0.  1.
     999901    1    3    3    0    0  0.13117943895E+00  0.55117490985E-02  0.15801137353E-02  0.88974205326E+00  0.88000000000E+00 0. -1.
        -11    1    4    4    0    0 -0.34446974498E-01  0.31669659907E-02  0.10811298992E-02  0.34612912164E-01  0.51100000000E-03 0.  1.
         11    1    4    4    0    0 -0.76922199569E-01 -0.10195893911E-01  0.28461055071E-01  0.82651520348E-01  0.51100000000E-03 0. -1.
</event>
<event>
 8    1  0.1088088E+005  0.1043930E+01  0.7957747E-01            NaN
         13   -1    0    0    0    0  0.00000000000E+00  0.00000000000E+00  0.74505805969E-08  0.10566000000E+00  0.10566000000E+00 0.  1.
     999900   -1    0    0    0    0 -0.00000000000E+00 -0.00000000000E+00 -0.74505805969E-08  0.93827000000E+00  0.93827000000E+00 0. -1.
     999902    2    1    2    0    0 -0.36931464596E-02 -0.12068893796E-01  0.21454888403E-01  0.10190380382E+01  0.10187339758E+01 0.  0.
     999903    2    3    3    0    0  0.84974908106E-01 -0.14266331704E-01 -0.91503220592E-01  0.12739551616E+00  0.20796993323E-01 0.  0.
         14    1    1    2    0    0  0.36931464596E-02  0.12068893796E-01 -0.21454888403E-01  0.24891961848E-01  0.00000000000E+00 0. -1.
     999901    1    3    3    0    0 -0.88668054566E-01  0.21974379075E-02  0.11295810900E+00  0.89164252199E+00  0.88000000000E+00 0.  1.
        -11    1    4    4    0    0  0.61954319984E-01 -0.88912899345E-02 -0.78539639009E-01  0.10042972079E+00  0.51100000000E-03 0.  1.
         11    1    4    4    0    0  0.23020588123E-01 -0.53750417694E-02 -0.12963581584E-01  0.26965795371E-01  0.51100000000E-03 0. -1.
</event>
<event>
 8    1  0.1088088E+005  0.1043930E+01  0.7957747E-01            NaN
         13   -1    0    0    0    0  0.00000000000E+00  0.00000000000E+00  0.74505805969E-08  0.10566000000E+00  0.10566000000E+00 0. -1.
     999900   -1    0    0    0    0 -0.00000000000E+00 -0.00000000000E+00 -0.74505805969E-08  0.93827000000E+00  0.93827000000E+00 0. -1.
     999902    2    1    2    0    0 -0.27915596650E-02 -0.13893223300E-01 -0.18489380678E-01  0.10206346859E+01  0.10203688012E+01 0.  0.
     999903    2    3    3    0    0  0.60684810569E-01  0.39565621381E-01  0.10391707432E+00  0.12829481915E+00  0.20315453642E-01 0.  0.
         14    1    1    2    0    0  0.27915596650E-02  0.13893223300E-01  0.18489380678E-01  0.23295314054E-01  0.00000000000E+00 0.  1.
     999901    1    3    3    0    0 -0.63476370234E-01 -0.53458844681E-01 -0.12240645499E+00  0.89233986680E+00  0.88000000000E+00 0. -1.
        -11    1    4    4    0    0  0.18486257834E-01  0.23130382864E-01  0.47094222716E-01  0.55631675099E-01  0.51100000000E-03 0.  1.
         11    1    4    4    0    0  0.42198552734E-01  0.16435238517E-01  0.56822851600E-01  0.72663144048E-01  0.51100000000E-03 0. -1.
</event>
<event>
 8    1  0.1088088E+005  0.1043930E+01  0.7957747E-01            NaN
         13   -1    0    0    0    0  0.00000000000E+00  0.00000000000E+00  0.74505805969E-08  0.10566000000E+00  0.10566000000E+00 0. -1.
     999900   -1    0    0    0    0 -0.00000000000E+00 -0.00000000000E+00 -0.74505805969E-08  0.93827000000E+00  0.93827000000E+00 0. -1.
     999902    2    1    2    0    0  0.48249569509E-02  0.10971156210E-01  0.20213729665E-01  0.10204301841E+01  0.10201595558E+01 0.  0.
     999903    2    3    3    0    0  0.88474996162E-01  0.87778304444E-01 -0.36427680708E-01  0.13132675009E+00  0.19669359189E-01 0.  0.
         14    1    1    2    0    0 -0.48249569509E-02 -0.10971156210E-01 -0.20213729665E-01  0.23499815853E-01  0.00000000000E+00 0.  1.
     999901    1    3    3    0    0 -0.83650039211E-01 -0.76807148234E-01  0.56641410373E-01  0.88910343406E+00  0.88000000000E+00 0.  1.
        -11    1    4    4    0    0  0.35103943620E-02  0.10001513123E-01 -0.59834777056E-02  0.12182621219E-01  0.51100000000E-03 0. -1.
         11    1    4    4    0    0  0.84964601800E-01  0.77776791321E-01 -0.30444203002E-01  0.11914412887E+00  0.51100000000E-03 0.  1.
</event>
<event>
 8    1  0.1088088E+005  0.1043930E+01  0.7957747E-01            NaN
         13   -1    0    0    0    0  0.00000000000E+00  0.00000000000E+00  0.74505805969E-08  0.10566000000E+00  0.10566000000E+00 0. -1.
     999900   -1    0    0    0    0 -0.00000000000E+00 -0.00000000000E+00 -0.74505805969E-08  0.93827000000E+00  0.93827000000E+00 0. -1.
     999902    2    1    2    0    0  0.34927018379E-02 -0.21718283039E-01  0.86387318078E-02  0.10202971739E+01  0.10200234372E+01 0.  0.
     999903    2    3    3    0    0  0.10067167796E+00 -0.40089136710E-01 -0.71351607891E-01  0.13115168739E+00  0.19177787394E-01 0.  0.
         14    1    1    2    0    0 -0.34927018379E-02  0.21718283039E-01 -0.86387318078E-02  0.23632826144E-01  0.00000000000E+00 0.  1.
     999901    1    3    3    0    0 -0.97178976126E-01  0.18370853671E-01  0.79990339699E-01  0.88914548647E+00  0.88000000000E+00 0.  1.
        -11    1    4    4    0    0  0.73810686300E-01 -0.25642031109E-01 -0.60323788617E-01  0.98715509245E-01  0.51100000000E-03 0. -1.
         11    1    4    4    0    0  0.26860991664E-01 -0.14447105601E-01 -0.11027819274E-01  0.32436178141E-01  0.51100000000E-03 0.  1.
</event>
<event>
 8    1  0.1088088E+005  0.1043930E+01  0.7957747E-01            NaN
         13   -1    0    0    0    0  0.00000000000E+00  0.00000000000E+00  0.74505805969E-08  0.10566000000E+00  0.10566000000E+00 0.  1.
     999900   -1    0    0    0    0 -0.00000000000E+00 -0.00000000000E+00 -0.74505805969E-08  0.93827000000E+00  0.93827000000E+00 0. -1.
     999902    2    1    2    0    0  0.45400048924E-02  0.22977013725E-01 -0.11559672191E-01  0.10178114084E+01  0.10174762318E+01 0.  0.
     999903    2    3    3    0    0 -0.83675521542E-01 -0.91747874367E-01 -0.38096629556E-02  0.12595724900E+00  0.20771367037E-01 0.  0.
         14    1    1    2    0    0 -0.45400048924E-02 -0.22977013725E-01  0.11559672191E-01  0.26118591564E-01  0.00000000000E+00 0.  1.
     999901    1    3    3    0    0  0.88215526435E-01  0.11472488809E+00 -0.77500092355E-02  0.89185415943E+00  0.88000000000E+00 0.  1.
        -11    1    4    4    0    0 -0.58088039851E-01 -0.64416906659E-01  0.68938802607E-02  0.87014624881E-01  0.51100000000E-03 0. -1.
         11    1    4    4    0    0 -0.25587481692E-01 -0.27330967709E-01 -0.10703543216E-01  0.38942624123E-01  0.51100000000E-03 0.  1.
</event>
<event>
 7    1  0.1088088E+005  0.1043930E+01  0.7957747E-01            NaN
         13   -1    0    0    0    0  0.00000000000E+00  0.00000000000E+00  0.74505805969E-08  0.10566000000E+00  0.10566000000E+00 0. -1.
     999900   -1    0    0    0    0 -0.00000000000E+00 -0.00000000000E+00 -0.74505805969E-08  0.93827000000E+00  0.93827000000E+00 0.  1.
     999903    2    1    2    0    0  0.91498587821E-01 -0.28428107308E-01  0.28471003452E-01  0.10159628560E+00  0.18195008998E-01 0.  0.
         14    1    1    2    0    0  0.37681878907E-01  0.12911742002E-01  0.31449617616E-01  0.50751507639E-01  0.00000000000E+00 0. -1.
     999901    1    1    2    0    0 -0.12918046673E+00  0.15516365307E-01 -0.59920621068E-01  0.89158220676E+00  0.88000000000E+00 0.  1.
        -11    1    3    3    0    0  0.28170190984E-01 -0.17751038964E-01  0.99136279363E-02  0.34744786433E-01  0.51100000000E-03 0.  1.
         11    1    3    3    0    0  0.63328396837E-01 -0.10677068345E-01  0.18557375515E-01  0.66851499171E-01  0.51100000000E-03 0. -1.
</event>
<event>
 8    1  0.1088088E+005  0.1043930E+01  0.7957747E-01            NaN
         13   -1    0    0    0    0  0.00000000000E+00  0.00000000000E+00  0.74505805969E-08  0.10566000000E+00  0.10566000000E+00 0. -1.
     999900   -1    0    0    0    0 -0.00000000000E+00 -0.00000000000E+00 -0.74505805969E-08  0.93827000000E+00  0.93827000000E+00 0. -1.
     999902    2    1    2    0    0  0.12987663388E-01  0.88531440667E-02 -0.17487632246E-01  0.10204167093E+01  0.10201457669E+01 0.  0.
     999903    2    3    3    0    0  0.57478087874E-01  0.10068899699E+00  0.58609273443E-01  0.13125757793E+00  0.18748336774E-01 0.  0.
         14    1    1    2    0    0 -0.12987663388E-01 -0.88531440667E-02  0.17487632246E-01  0.23513290746E-01  0.00000000000E+00 0. -1.
     999901    1    3    3    0    0 -0.44490424486E-01 -0.91835852920E-01 -0.76096905690E-01  0.88915913132E+00  0.88000000000E+00 0. -1.
        -11    1    4    4    0    0  0.51065074734E-01  0.90069783955E-01  0.45178472110E-01  0.11296708947E+00  0.51100000000E-03 0. -1.
         11    1    4    4    0    0  0.64130131403E-02  0.10619213032E-01  0.13430801334E-01  0.18290488469E-01  0.51100000000E-03 0.  1.
</event>
<event>
 8    1  0.1088088E+005  0.1043930E+01  0.7957747E-01            NaN
         13   -1    0    0    0    0  0.00000000000E+00  0.00000000000E+00  0.74505805969E-08  0.10566000000E+00  0.10566000000E+00 0.  1.
     999900   -1    0    0    0    0 -0.00000000000E+00 -0.00000000000E+00 -0.74505805969E-08  0.93827000000E+00  0.93827000000E+00 0. -1.
     999902    2    1    2    0    0  0.21841928686E-01 -0.86919320856E-02  0.60388954569E-02  0.10196588692E+01  0.10193699631E+01 0.  0.
     999903    2    3    3    0    0 -0.88435449798E-01  0.34572833492E-01  0.84237747362E-01  0.12828464891E+00  0.18569961492E-01 0.  0.
         14    1    1    2    0    0 -0.21841928686E-01  0.86919320856E-02 -0.60388954569E-02  0.24271130803E-01  0.00000000000E+00 0.  1.
     999901    1    3    3    0    0  0.11027737848E+00 -0.43264765578E-01 -0.78198851905E-01  0.89137422028E+00  0.88000000000E+00 0.  1.
        -11    1    4    4    0    0 -0.56439721158E-01  0.27484364001E-01  0.45450040184E-01  0.77503546130E-01  0.51100000000E-03 0.  1.
         11    1    4    4    0    0 -0.31995728640E-01  0.70884694913E-02  0.38787707177E-01  0.50781102784E-01  0.51100000000E-03 0. -1.
</event>
<event>
 8    1  0.1088088E+005  0.1043930E+01  0.7957747E-01            NaN
         13   -1    0    0    0    0  0.00000000000E+00  0.00000000000E+00  0.74505805969E-08  0.10566000000E+00  0.10566000000E+00 0.  1.
     999900   -1    0    0    0    0 -0.00000000000E+00 -0.00000000000E+00 -0.74505805969E-08  0.93827000000E+00  0.93827000000E+00 0.  1.
     999902    2    1    2    0    0  0.10590413456E-01  0.19742282127E-01 -0.80021732549E-02  0.10201403103E+01  0.10198628846E+01 0.  0.
     999903    2    3    3    0    0 -0.31150431632E-01  0.11608948924E+00  0.52237543022E-01  0.13185324750E+00  0.14470627873E-01 0.  0.
         14    1    1    2    0    0 -0.10590413456E-01 -0.19742282127E-01  0.80021732549E-02  0.23789689733E-01  0.00000000000E+00 0.  1.
     999901    1    3    3    0    0  0.41740845088E-01 -0.96347207116E-01 -0.60239716277E-01  0.88828706277E+00  0.88000000000E+00 0.  1.
        -11    1    4    4    0    0 -0.13096894075E-01  0.39549993584E-01  0.11180335725E-01  0.43139212497E-01  0.51100000000E-03 0. -1.
         11    1    4    4    0    0 -0.18053537557E-01  0.76539495659E-01  0.41057207297E-01  0.88714035000E-01  0.51100000000E-03 0.  1.
</event>
<event>
 8    1  0.1088088E+005  0.1043930E+01  0.7957747E-01            NaN
         13   -1    0    0    0    0  0.00000000000E+00  0.00000000000E+00  0.74505805969E-08  0.10566000000E+00  0.10566000000E+00 0. -1.
     999900   -1    0    0    0    0 -0.00000000000E+00 -0.00000000000E+00 -0.74505805969E-08  0.93827000000E+00  0.93827000000E+00 0. -1.
     999902    2    1    2    0    0 -0.77080662262E-02  0.20060371975E-01 -0.83501047383E-02  0.10208744788E+01  0.10206141016E+01 0.  0.
     999903    2    3    3    0    0  0.31503796360E-02  0.12501898117E+00 -0.43786728758E-01  0.13386265824E+00  0.19033210739E-01 0.  0.
         14    1    1    2    0    0  0.77080662262E-02 -0.20060371975E-01  0.83501047383E-02  0.23055521201E-01  0.00000000000E+00 0.  1.
     999901    1    3    3    0    0 -0.10858445862E-01 -0.10495860920E+00  0.35436624020E-01  0.88701182056E+00  0.88000000000E+00 0.  1.
        -11    1    4    4    0    0  0.33629997965E-02  0.37987950663E-02 -0.32324790804E-02  0.60374376678E-02  0.51100000000E-03 0.  1.
         11    1    4    4    0    0 -0.21262016049E-03  0.12122018610E+00 -0.40554249678E-01  0.12782522057E+00  0.51100000000E-03 0. -1.
</event>
<event>
 8    1  0.1088088E+005  0.1043930E+01  0.7957747E-01            NaN
         13   -1    0    0    0    0  0.00000000000E+00  0.00000000000E+00  0.74505805969E-08  0.10566000000E+00  0.10566000000E+00 0. -1.
     999900   -1    0    0    0    0 -0.00000000000E+00 -0.00000000000E+00 -0.74505805969E-08  0.93827000000E+00  0.93827000000E+00 0.  1.
     999902    2    1    2    0    0 -0.22442990803E-01  0.28663056275E-03 -0.82728823424E-02  0.10200090766E+01  0.10197285452E+01 0.  0.
     999903    2    3    3    0    0 -0.94298910959E-01  0.10490875948E-01 -0.91382681320E-01  0.13311864450E+00  0.19168619753E-01 0.  0.
         14    1    1    2    0    0  0.22442990803E-01 -0.28663056275E-03  0.82728823424E-02  0.23920923383E-01  0.00000000000E+00 0. -1.
     999901    1    3    3    0    0  0.71855920156E-01 -0.10204245385E-01  0.83109798978E-01  0.88689043211E+00  0.88000000000E+00 0. -1.
        -11    1    4    4    0    0 -0.20997059234E-01  0.66939182264E-02 -0.12392485665E-01  0.25288729894E-01  0.51100000000E-03 0. -1.
         11    1    4    4    0    0 -0.73301851726E-01  0.37969577215E-02 -0.78990195656E-01  0.10782991461E+00  0.51100000000E-03 0.  1.
</event>
<event>
 8    1  0.1088088E+005  0.1043930E+01  0.7957747E-01            NaN
         13   -1    0    0    0    0  0.00000000000E+00  0.00000000000E+00  0.74505805969E-08  0.10566000000E+00  0.10566000000E+00 0. -1.
     999900   -1    0    0    0    0 -0.00000000000E+00 -0.00000000000E+00 -0.74505805969E-08  0.93827000000E+00  0.93827000000E+00 0.  1.
     999902    2    1    2    0    0 -0.11805041486E-01 -0.46048661470E-03 -0.20786819983E-01  0.10200205262E+01  0.10197402664E+01 0.  0.
     999903    2    3    3    0    0  0.84036411098E-02  0.11433568003E+00 -0.60731407427E-01  0.13143619098E+00  0.21068923576E-01 0.  0.
         14    1    1    2    0    0  0.11805041486E-01  0.46048661470E-03  0.20786819983E-01  0.23909473801E-01  0.00000000000E+00 0. -1.
     999901    1    3    3    0    0 -0.20208682596E-01 -0.11479616664E+00  0.39944587444E-01  0.88858433522E+00  0.88000000000E+00 0. -1.
        -11    1    4    4    0    0 -0.31084761603E-02  0.72665692018E-02 -0.89338493946E-02  0.11939030028E-01  0.51100000000E-03 0.  1.
         11    1    4    4    0    0  0.11512117270E-01  0.10706911082E+00 -0.51797558032E-01  0.11949716095E+00  0.51100000000E-03 0. -1.
</event>
<event>
 8    1  0.1088088E+005  0.1043930E+01  0.7957747E-01            NaN
         13   -1    0    0    0    0  0.00000000000E+00  0.00000000000E+00  0.74505805969E-08  0.10566000000E+00  0.10566000000E+00 0.  1.
     999900   -1    0    0    0    0 -0.00000000000E+00 -0.00000000000E+00 -0.74505805969E-08  0.93827000000E+00  0.93827000000E+00 0.  1.
     999902    2    1    2    0    0 -0.14109798242E-01 -0.18924154243E-01  0.12137368210E-02  0.10202935202E+01  0.10200196979E+01 0.  0.
     999903    2    3    3    0    0 -0.36475642725E-01  0.95959059840E-01  0.76929933514E-01  0.12932139588E+00  0.16346103011E-01 0.  0.
         14    1    1    2    0    0  0.14109798242E-01  0.18924154243E-01 -0.12137368210E-02  0.23636479800E-01  0.00000000000E+00 0. -1.
     999901    1    3    3    0    0  0.22365844484E-01 -0.11488321408E+00 -0.75716196694E-01  0.89097212432E+00  0.88000000000E+00 0.  1.
        -11    1    4    4    0    0 -0.27294309635E-01  0.62394524249E-01  0.42003560257E-01  0.80016349516E-01  0.51100000000E-03 0.  1.
         11    1    4    4    0    0 -0.91813330904E-02  0.33564535591E-01  0.34926373258E-01  0.49305046362E-01  0.51100000000E-03 0. -1.
</event>
<event>
 8    1  0.1088088E+005  0.1043930E+01  0.7957747E-01            NaN
         13   -1    0    0    0    0  0.00000000000E+00  0.00000000000E+00  0.74505805969E-08  0.10566000000E+00  0.10566000000E+00 0.  1.
     999900   -1    0    0    0    0 -0.00000000000E+00 -0.00000000000E+00 -0.74505805969E-08  0.93827000000E+00  0.93827000000E+00 0. -1.
     999902    2    1    2    0    0 -0.23772148903E-01  0.17348895699E-02 -0.22808482220E-02  0.10199857486E+01  0.10197046632E+01 0.  0.
     999903    2    3    3    0    0 -0.19066132021E-02  0.77052113493E-01  0.10288107753E+00  0.13026117523E+00  0.21042677872E-01 0.  0.
         14    1    1    2    0    0  0.23772148903E-01 -0.17348895699E-02  0.22808482220E-02  0.23944251375E-01  0.00000000000E+00 0.  1.
     999901    1    3    3    0    0 -0.21865535701E-01 -0.75317223923E-01 -0.10516192575E+00  0.88972457339E+00  0.88000000000E+00 0. -1.
        -11    1    4    4    0    0  0.54203150065E-02  0.68087346086E-01  0.88322752624E-01  0.11165319639E+00  0.51100000000E-03 0.  1.
         11    1    4    4    0    0 -0.73269282086E-02  0.89647674073E-02  0.14558324903E-01  0.18607978843E-01  0.51100000000E-03 0. -1.
</event>
<event>
 8    1  0.1088088E+005  0.1043930E+01  0.7957747E-01            NaN
         13   -1    0    0    0    0  0.00000000000E+00  0.00000000000E+00  0.74505805969E-08  0.10566000000E+00  0.10566000000E+00 0. -1.
     999900   -1    0    0    0    0 -0.00000000000E+00 -0.00000000000E+00 -0.74505805969E-08  0.93827000000E+00  0.93827000000E+00 0.  1.
     999902    2    1    2    0    0  0.12568409184E-01 -0.18956841928E-01  0.43680563218E-02  0.10207695449E+01  0.10205067648E+01 0.  0.
     999903    2    3    3    0    0 -0.80075149795E-01 -0.38959919670E-01 -0.92998610505E-01  0.13034087287E+00  0.20250842649E-01 0.  0.
         14    1    1    2    0    0 -0.12568409184E-01  0.18956841928E-01 -0.43680563218E-02  0.23160455119E-01  0.00000000000E+00 0. -1.
     999901    1    3    3    0    0  0.92643558979E-01  0.20003077742E-01  0.97366666827E-01  0.89042867202E+00  0.88000000000E+00 0. -1.
        -11    1    4    4    0    0 -0.76177376179E-02 -0.76546088567E-02 -0.20452125587E-01  0.23133817783E-01  0.51100000000E-03 0.  1.
         11    1    4    4    0    0 -0.72457412178E-01 -0.31305310813E-01 -0.72546484917E-01  0.10720705508E+00  0.51100000000E-03 0. -1.
</event>
<event>
 8    1  0.1088088E+005  0.1043930E+01  0.7957747E-01            NaN
         13   -1    0    0    0    0  0.00000000000E+00  0.00000000000E+00  0.74505805969E-08  0.10566000000E+00  0.10566000000E+00 0. -1.
     999900   -1    0    0    0    0 -0.00000000000E+00 -0.00000000000E+00 -0.74505805969E-08  0.93827000000E+00  0.93827000000E+00 0. -1.
     999902    2    1    2    0    0 -0.13795529866E-01  0.14551506878E-01 -0.12118626704E-01  0.10205008705E+01  0.10202318867E+01 0.  0.
     999903    2    3    3    0    0 -0.11224138507E+00  0.58523976925E-01 -0.39359179617E-01  0.13350187823E+00  0.15824729819E-01 0.  0.
         14    1    1    2    0    0  0.13795529866E-01 -0.14551506878E-01  0.12118626704E-01  0.23429129516E-01  0.00000000000E+00 0. -1.
     999901    1    3    3    0    0  0.98445855206E-01 -0.43972470047E-01  0.27240552913E-01  0.88699899225E+00  0.88000000000E+00 0.  1.
        -11    1    4    4    0    0 -0.19827898512E-02  0.41299191634E-02 -0.10904207866E-02  0.47368582818E-02  0.51100000000E-03 0.  1.
         11    1    4    4    0    0 -0.11025859522E+00  0.54394057762E-01 -0.38268758830E-01  0.12876501995E+00  0.51100000000E-03 0. -1.
</event>
<event>
 8    1  0.1088088E+005  0.1043930E+01  0.7957747E-01            NaN
         13   -1    0    0    0    0  0.00000000000E+00  0.00000000000E+00  0.74505805969E-08  0.10566000000E+00  0.10566000000E+00 0. -1.
     999900   -1    0    0    0    0 -0.00000000000E+00 -0.00000000000E+00 -0.74505805969E-08  0.93827000000E+00  0.93827000000E+00 0.  1.
     999902    2    1    2    0    0 -0.10590371931E-01 -0.45496600845E-02 -0.19653444321E-01  0.10211459429E+01  0.10208917295E+01 0.  0.
     999903    2    3    3    0    0 -0.95357467949E-01 -0.71231938543E-01 -0.57623386889E-01  0.13374879203E+00  0.20031197919E-01 0.  0.
         14    1    1    2    0    0  0.10590371931E-01  0.45496600845E-02  0.19653444321E-01  0.22784057106E-01  0.00000000000E+00 0. -1.
     999901    1    3    3    0    0  0.84767096017E-01  0.66682278458E-01  0.37969942568E-01  0.88739715087E+00  0.88000000000E+00 0. -1.
        -11    1    4    4    0    0 -0.13040965373E-02 -0.46449022555E-03 -0.42680960750E-02  0.45159920343E-02  0.51100000000E-03 0.  1.
         11    1    4    4    0    0 -0.94053371411E-01 -0.70767448317E-01 -0.53355290814E-01  0.12923279999E+00  0.51100000000E-03 0. -1.
</event>
<event>
 8    1  0.1088088E+005  0.1043930E+01  0.7957747E-01            NaN
         13   -1    0    0    0    0  0.00000000000E+00  0.00000000000E+00  0.74505805969E-08  0.10566000000E+00  0.10566000000E+00 0.  1.
     999900   -1    0    0    0    0 -0.00000000000E+00 -0.00000000000E+00 -0.74505805969E-08  0.93827000000E+00  0.93827000000E+00 0. -1.
     999902    2    1    2    0    0  0.46230684244E-02  0.10855690455E-02 -0.23102606937E-01  0.10203443758E+01  0.10200717443E+01 0.  0.
     999903    2    3    3    0    0  0.11537559351E+00 -0.57551036046E-01  0.70189062359E-02  0.13095600235E+00  0.21830258328E-01 0.  0.
         14    1    1    2    0    0 -0.46230684244E-02 -0.10855690455E-02  0.23102606937E-01  0.23585624204E-01  0.00000000000E+00 0.  1.
     999901    1    3    3    0    0 -0.11075252508E+00  0.58636605091E-01 -0.30121513173E-01  0.88938837345E+00  0.88000000000E+00 0.  1.
        -11    1    4    4    0    0  0.71923342408E-01 -0.28277268671E-01  0.12446392072E-01  0.78279913791E-01  0.51100000000E-03 0.  1.
         11    1    4    4    0    0  0.43452251101E-01 -0.29273767375E-01 -0.54274858365E-02  0.52676088556E-01  0.51100000000E-03 0. -1.
</event>
<event>
 8    1  0.1088088E+005  0.1043930E+01  0.7957747E-01            NaN
         13   -1    0    0    0    0  0.00000000000E+00  0.00000000000E+00  0.74505805969E-08  0.10566000000E+00  0.10566000000E+00 0.  1.
     999900   -1    0    0    0    0 -0.00000000000E+00 -0.00000000000E+00 -0.74505805969E-08  0.93827000000E+00  0.93827000000E+00 0.  1.
     999902    2    1    2    0    0  0.58458234567E-02  0.17042437513E-01 -0.14143871612E-01  0.10210243799E+01  0.10207674157E+01 0.  0.
     999903    2    3    3    0    0 -0.31935816244E-01 -0.10012846085E+00  0.70566181634E-01  0.12842577758E+00  0.21633060944E-01 0.  0.
         14    1    1    2    0    0 -0.58458234567E-02 -0.17042437513E-01  0.14143871612E-01  0.22905620107E-01  0.00000000000E+00 0.  1.
     999901    1    3    3    0    0  0.37781639701E-01  0.11717089837E+00 -0.84710053246E-01  0.89259860231E+00  0.88000000000E+00 0.  1.
        -11    1    4    4    0    0 -0.12541171693E-01 -0.36044045149E-01  0.13609519358E-01  0.40520788692E-01  0.51100000000E-03 0. -1.
         11    1    4    4    0    0 -0.19394644551E-01 -0.64084415704E-01  0.56956662277E-01  0.87904988892E-01  0.51100000000E-03 0.  1.
</event>
<event>
 8    1  0.1088088E+005  0.1043930E+01  0.7957747E-01            NaN
         13   -1    0    0    0    0  0.00000000000E+00  0.00000000000E+00  0.74505805969E-08  0.10566000000E+00  0.10566000000E+00 0.  1.
     999900   -1    0    0    0    0 -0.00000000000E+00 -0.00000000000E+00 -0.74505805969E-08  0.93827000000E+00  0.93827000000E+00 0.  1.
     999902    2    1    2    0    0  0.10061170182E-01 -0.19083631318E-01 -0.85212764139E-02  0.10207346496E+01  0.10204710680E+01 0.  0.
     999903    2    3    3    0    0 -0.87606206883E-01 -0.19285080418E-02 -0.95155740528E-01  0.13093762487E+00  0.20284970388E-01 0.  0.
         14    1    1    2    0    0 -0.10061170182E-01  0.19083631318E-01  0.85212764139E-02  0.23195350427E-01  0.00000000000E+00 0.  1.
     999901    1    3    3    0    0  0.97667377064E-01 -0.17155123276E-01  0.86634464114E-01  0.88979702470E+00  0.88000000000E+00 0. -1.
        -11    1    4    4    0    0 -0.50807456565E-01  0.32623992427E-02 -0.67801155731E-01  0.84789732462E-01  0.51100000000E-03 0. -1.
         11    1    4    4    0    0 -0.36798750317E-01 -0.51909072845E-02 -0.27354584797E-01  0.46147892408E-01  0.51100000000E-03 0.  1.
</event>
<event>
 8    1  0.1088088E+005  0.1043930E+01  0.7957747E-01            NaN
         13   -1    0    0    0    0  0.00000000000E+00  0.00000000000E+00  0.74505805969E-08  0.10566000000E+00  0.10566000000E+00 0.  1.
     999900   -1    0    0    0    0 -0.00000000000E+00 -0.00000000000E+00 -0.74505805969E-08  0.93827000000E+00  0.93827000000E+00 0.  1.
     999902    2    1    2    0    0  0.93045100812E-02 -0.11679921670E-01  0.19422713972E-01  0.10194302797E+01  0.10191358392E+01 0.  0.
     999903    2    3    3    0    0 -0.10571805059E+00  0.47565835191E-01 -0.48887763807E-01  0.12735036703E+00  0.19730373393E-01 0.  0.
         14    1    1    2    0    0 -0.93045100812E-02  0.11679921670E-01 -0.19422713972E-01  0.24499720327E-01  0.00000000000E+00 0. -1.
     999901    1    3    3    0    0  0.11502256067E+00 -0.59245756861E-01  0.68310477779E-01  0.89207991264E+00  0.88000000000E+00 0. -1.
        -11    1    4    4    0    0 -0.59005603810E-01  0.22002122539E-01 -0.16803699025E-01  0.65179598795E-01  0.51100000000E-03 0.  1.
         11    1    4    4    0    0 -0.46712446780E-01  0.25563712652E-01 -0.32084064782E-01  0.62170768233E-01  0.51100000000E-03 0. -1.
</event>
<event>
 8    1  0.1088088E+005  0.1043930E+01  0.7957747E-01            NaN
         13   -1    0    0    0    0  0.00000000000E+00  0.00000000000E+00  0.74505805969E-08  0.10566000000E+00  0.10566000000E+00 0.  1.
     999900   -1    0    0    0    0 -0.00000000000E+00 -0.00000000000E+00 -0.74505805969E-08  0.93827000000E+00  0.93827000000E+00 0.  1.
     999902    2    1    2    0    0 -0.16819850901E-01 -0.11649420375E-01  0.11200140392E-01  0.10206049164E+01  0.10203383438E+01 0.  0.
     999903    2    3    3    0    0 -0.13140602587E-01 -0.36265722372E-01 -0.12260071490E+00  0.13014314404E+00  0.20455429327E-01 0.  0.
         14    1    1    2    0    0  0.16819850901E-01  0.11649420375E-01 -0.11200140392E-01  0.23325083584E-01  0.00000000000E+00 0. -1.
     999901    1    3    3    0    0 -0.36792483147E-02  0.24616301997E-01  0.13380085530E+00  0.89046177238E+00  0.88000000000E+00 0. -1.
        -11    1    4    4    0    0  0.30055841413E-02 -0.21688104081E-01 -0.61163384395E-01  0.64966361345E-01  0.51100000000E-03 0. -1.
         11    1    4    4    0    0 -0.16146186728E-01 -0.14577618291E-01 -0.61437330509E-01  0.65176782691E-01  0.51100000000E-03 0.  1.
</event>
<event>
 8    1  0.1088088E+005  0.1043930E+01  0.7957747E-01            NaN
         13   -1    0    0    0    0  0.00000000000E+00  0.00000000000E+00  0.74505805969E-08  0.10566000000E+00  0.10566000000E+00 0.  1.
     999900   -1    0    0    0    0 -0.00000000000E+00 -0.00000000000E+00 -0.74505805969E-08  0.93827000000E+00  0.93827000000E+00 0.  1.
     999902    2    1    2    0    0  0.20914107557E-01  0.64167000558E-02 -0.10311296506E-01  0.10197453609E+01  0.10194585348E+01 0.  0.
     999903    2    3    3    0    0  0.12176449722E+00  0.29818774696E-01 -0.40465702875E-01  0.13316330238E+00  0.19474082379E-01 0.  0.
         14    1    1    2    0    0 -0.20914107557E-01 -0.64167000558E-02  0.10311296506E-01  0.24184639136E-01  0.00000000000E+00 0. -1.
     999901    1    3    3    0    0 -0.10085038967E+00 -0.23402074640E-01  0.30154406369E-01  0.88658205848E+00  0.88000000000E+00 0. -1.
        -11    1    4    4    0    0  0.95534049224E-01  0.29948787306E-01 -0.27117232033E-01  0.10372699656E+00  0.51100000000E-03 0. -1.
         11    1    4    4    0    0  0.26230447999E-01 -0.13001260999E-03 -0.13348470842E-01  0.29436305820E-01  0.51100000000E-03 0.  1.
</event>
<event>
 8    1  0.1088088E+005  0.1043930E+01  0.7957747E-01            NaN
         13   -1    0    0    0    0  0.00000000000E+00  0.00000000000E+00  0.74505805969E-08  0.10566000000E+00  0.10566000000E+00 0. -1.
     999900   -1    0    0    0    0 -0.00000000000E+00 -0.00000000000E+00 -0.74505805969E-08  0.93827000000E+00  0.93827000000E+00 0. -1.
     999902    2    1    2    0    0 -0.59473331645E-02 -0.14737443307E-01  0.21509983392E-01  0.10171859840E+01  0.10168343442E+01 0.  0.
     999903    2    3    3    0    0 -0.19288210866E-01  0.12298325634E+00  0.55636800991E-03  0.12612817210E+00  0.20275350360E-01 0.  0.
         14    1    1    2    0    0  0.59473331645E-02  0.14737443307E-01 -0.21509983392E-01  0.26744016013E-01  0.00000000000E+00 0. -1.
     999901    1    3    3    0    0  0.13340877701E-01 -0.13772069965E+00  0.20953615382E-01  0.89105781189E+00  0.88000000000E+00 0. -1.
        -11    1    4    4    0    0 -0.38288457923E-02  0.68594899266E-01 -0.70899829770E-02  0.69068438849E-01  0.51100000000E-03 0. -1.
         11    1    4    4    0    0 -0.15459365074E-01  0.54388357077E-01  0.76463509869E-02  0.57059733249E-01  0.51100000000E-03 0.  1.
</event>
<event>
 8    1  0.1088088E+005  0.1043930E+01  0.7957747E-01            NaN
         13   -1    0    0    0    0  0.00000000000E+00  0.00000000000E+00  0.74505805969E-08  0.10566000000E+00  0.10566000000E+00 0.  1.
     999900   -1    0    0    0    0 -0.00000000000E+00 -0.00000000000E+00 -0.74505805969E-08  0.93827000000E+00  0.93827000000E+00 0. -1.
     999902    2    1    2    0    0  0.55882370336E-02  0.21725269307E-01 -0.99590875672E-02  0.10193861791E+01  0.10190906647E+01 0.  0.
     999903    2    3    3    0    0  0.12811882436E+00  0.16400168985E-02 -0.17508028527E-01  0.13063753706E+00  0.18507085567E-01 0.  0.
         14    1    1    2    0    0 -0.55882370336E-02 -0.21725269307E-01  0.99590875672E-02  0.24543820909E-01  0.00000000000E+00 0.  1.
     999901    1    3    3    0    0 -0.12253058733E+00  0.20085252409E-01  0.75489409602E-02  0.88874864203E+00  0.88000000000E+00 0. -1.
        -11    1    4    4    0    0  0.21725207394E-01 -0.46519374100E-02 -0.80554645388E-02  0.23638459931E-01  0.51100000000E-03 0. -1.
         11    1    4    4    0    0  0.10639361697E+00  0.62919543085E-02 -0.94525639886E-02  0.10699907713E+00  0.51100000000E-03 0.  1.
</event>
<event>
 7    1  0.1088088E+005  0.1043930E+01  0.7957747E-01            NaN
         13   -1    0    0    0    0  0.00000000000E+00  0.00000000000E+00  0.74505805969E-08  0.10566000000E+00  0.10566000000E+00 0. -1.
     999900   -1    0    0    0    0 -0.00000000000E+00 -0.00000000000E+00 -0.74505805969E-08  0.93827000000E+00  0.93827000000E+00 0.  1.
     999903    2    1    2    0    0 -0.62478733969E-01 -0.81062792344E-01 -0.50940709171E-01  0.11615046738E+00  0.20523321366E-01 0.  0.
         14    1    1    2    0    0 -0.17256644070E-01 -0.38305450745E-02  0.35857365267E-01  0.39977687327E-01  0.00000000000E+00 0. -1.
     999901    1    1    2    0    0  0.79735378039E-01  0.84893337419E-01  0.15083343904E-01  0.88780184530E+00  0.88000000000E+00 0. -1.
        -11    1    3    3    0    0 -0.45581746983E-01 -0.43136480913E-01 -0.33153264185E-01  0.70977825345E-01  0.51100000000E-03 0. -1.
         11    1    3    3    0    0 -0.16896986986E-01 -0.37926311431E-01 -0.17787444985E-01  0.45172642031E-01  0.51100000000E-03 0.  1.
</event>
<event>
 8    1  0.1088088E+005  0.1043930E+01  0.7957747E-01            NaN
         13   -1    0    0    0    0  0.00000000000E+00  0.00000000000E+00  0.74505805969E-08  0.10566000000E+00  0.10566000000E+00 0. -1.
     999900   -1    0    0    0    0 -0.00000000000E+00 -0.00000000000E+00 -0.74505805969E-08  0.93827000000E+00  0.93827000000E+00 0.  1.
     999902    2    1    2    0    0  0.91242231735E-02  0.41456609693E-02  0.21285752689E-01  0.10204029683E+01  0.10201317055E+01 0.  0.
     999903    2    3    3    0    0  0.11525072810E-01  0.18441572021E-02  0.13149022807E+00  0.13352299479E+00  0.20061950085E-01 0.  0.
         14    1    1    2    0    0 -0.91242231735E-02 -0.41456609693E-02 -0.21285752689E-01  0.23527031707E-01  0.00000000000E+00 0.  1.
     999901    1    3    3    0    0 -0.24008496363E-02  0.23015037672E-02 -0.11020447538E+00  0.88687997350E+00  0.88000000000E+00 0.  1.
        -11    1    4    4    0    0  0.11991783955E-01 -0.59278958871E-02  0.10662950660E+00  0.10746653261E+00  0.51100000000E-03 0.  1.
         11    1    4    4    0    0 -0.46671114564E-03  0.77720530892E-02  0.24860721471E-01  0.26056462185E-01  0.51100000000E-03 0. -1.
</event>
<event>
 8    1  0.1088088E+005  0.1043930E+01  0.7957747E-01            NaN
         13   -1    0    0    0    0  0.00000000000E+00  0.00000000000E+00  0.74505805969E-08  0.10566000000E+00  0.10566000000E+00 0.  1.
     999900   -1    0    0    0    0 -0.00000000000E+00 -0.00000000000E+00 -0.74505805969E-08  0.93827000000E+00  0.93827000000E+00 0.  1.
     999902    2    1    2    0    0 -0.14745355287E-01  0.61785842893E-02 -0.18717982941E-01  0.10193136783E+01  0.10190163942E+01 0.  0.
     999903    2    3    3    0    0 -0.12171290581E+00  0.32170024177E-01  0.31132578303E-01  0.13105544435E+00  0.18903707664E-01 0.  0.
         14    1    1    2    0    0  0.14745355287E-01 -0.61785842893E-02  0.18717982941E-01  0.24616321654E-01  0.00000000000E+00 0.  1.
     999901    1    3    3    0    0  0.10696755053E+00 -0.25991439887E-01 -0.49850561245E-01  0.88825823400E+00  0.88000000000E+00 0. -1.
        -11    1    4    4    0    0 -0.43264202467E-01  0.20581161060E-01  0.93510573474E-02  0.48816788098E-01  0.51100000000E-03 0. -1.
         11    1    4    4    0    0 -0.78448703348E-01  0.11588863116E-01  0.21781520956E-01  0.82238656248E-01  0.51100000000E-03 0.  1.
</event>
<event>
 8    1  0.1088088E+005  0.1043930E+01  0.7957747E-01            NaN
         13   -1    0    0    0    0  0.00000000000E+00  0.00000000000E+00  0.74505805969E-08  0.10566000000E+00  0.10566000000E+00 0. -1.
     999900   -1    0    0    0    0 -0.00000000000E+00 -0.00000000000E+00 -0.74505805969E-08  0.93827000000E+00  0.93827000000E+00 0. -1.
     999902    2    1    2    0    0  0.13144723463E-01 -0.16236195660E-01  0.53926972063E-02  0.10223550379E+01  0.10221273622E+01 0.  0.
     999903    2    3    3    0    0  0.82921148089E-01  0.85322076051E-02  0.10206551458E+00  0.13397006686E+00  0.24122482914E-01 0.  0.
         14    1    1    2    0    0 -0.13144723463E-01  0.16236195660E-01 -0.53926972063E-02  0.21574962054E-01  0.00000000000E+00 0.  1.
     999901    1    3    3    0    0 -0.69776424625E-01 -0.24768403265E-01 -0.96672817370E-01  0.88838497109E+00  0.88000000000E+00 0.  1.
        -11    1    4    4    0    0  0.57344487806E-01  0.26299308742E-02  0.52086005829E-01  0.77514643405E-01  0.51100000000E-03 0.  1.
         11    1    4    4    0    0  0.25576660283E-01  0.59022767309E-02  0.49979508747E-01  0.56455423455E-01  0.51100000000E-03 0. -1.
</event>
<event>
 8    1  0.1088088E+005  0.1043930E+01  0.7957747E-01            NaN
         13   -1    0    0    0    0  0.00000000000E+00  0.00000000000E+00  0.74505805969E-08  0.10566000000E+00  0.10566000000E+00 0. -1.
     999900   -1    0    0    0    0 -0.00000000000E+00 -0.00000000000E+00 -0.74505805969E-08  0.93827000000E+00  0.93827000000E+00 0. -1.
     999902    2    1    2    0    0  0.14302831477E-01 -0.18856879600E-01 -0.13160325086E-02  0.10202258898E+01  0.10199504799E+01 0.  0.
     999903    2    3    3    0    0 -0.65168650171E-01  0.90444251985E-01 -0.59429834038E-01  0.12801533864E+00  0.20710047584E-01 0.  0.
         14    1    1    2    0    0 -0.14302831477E-01  0.18856879600E-01  0.13160325086E-02  0.23704110151E-01  0.00000000000E+00 0.  1.
     999901    1    3    3    0    0  0.79471481648E-01 -0.10930113158E+00  0.58113801529E-01  0.89221055121E+00  0.88000000000E+00 0.  1.
        -11    1    4    4    0    0 -0.43462178551E-01  0.71076654788E-01 -0.51160901524E-01  0.97767841267E-01  0.51100000000E-03 0. -1.
         11    1    4    4    0    0 -0.21706471620E-01  0.19367597197E-01 -0.82689325139E-02  0.30247497372E-01  0.51100000000E-03 0.  1.
</event>
<event>
 8    1  0.1088088E+005  0.1043930E+01  0.7957747E-01            NaN
         13   -1    0    0    0    0  0.00000000000E+00  0.00000000000E+00  0.74505805969E-08  0.10566000000E+00  0.10566000000E+00 0.  1.
     999900   -1    0    0    0    0 -0.00000000000E+00 -0.00000000000E+00 -0.74505805969E-08  0.93827000000E+00  0.93827000000E+00 0.  1.
     999902    2    1    2    0    0 -0.72348648522E-02  0.21608112251E-01  0.58907806674E-02  0.10203937496E+01  0.10201222717E+01 0.  0.
     999903    2    3    3    0    0  0.79957596688E-01 -0.26342842224E-01  0.97177338718E-01  0.13009320764E+00  0.19840486642E-01 0.  0.
         14    1    1    2    0    0  0.72348648522E-02 -0.21608112251E-01 -0.58907806674E-02  0.23536250367E-01  0.00000000000E+00 0.  1.
     999901    1    3    3    0    0 -0.87192461540E-01  0.47950954475E-01 -0.91286558051E-01  0.89030054199E+00  0.88000000000E+00 0.  1.
        -11    1    4    4    0    0  0.51479946941E-01 -0.68203117300E-02  0.60002657504E-01  0.79355413285E-01  0.51100000000E-03 0.  1.
         11    1    4    4    0    0  0.28477649747E-01 -0.19522530494E-01  0.37174681214E-01  0.50737794359E-01  0.51100000000E-03 0. -1.
</event>
<event>
 8    1  0.1088088E+005  0.1043930E+01  0.7957747E-01            NaN
         13   -1    0    0    0    0  0.00000000000E+00  0.00000000000E+00  0.74505805969E-08  0.10566000000E+00  0.10566000000E+00 0. -1.
     999900   -1    0    0    0    0 -0.00000000000E+00 -0.00000000000E+00 -0.74505805969E-08  0.93827000000E+00  0.93827000000E+00 0. -1.
     999902    2    1    2    0    0  0.85807995403E-02 -0.21936618921E-01  0.50772184619E-02  0.10198338692E+01  0.10195491638E+01 0.  0.
     999903    2    3    3    0    0 -0.77414039793E-01 -0.12871580909E-01  0.10187640763E+00  0.13031300364E+00  0.21072857786E-01 0.  0.
         14    1    1    2    0    0 -0.85807995403E-02  0.21936618921E-01 -0.50772184619E-02  0.24096130763E-01  0.00000000000E+00 0. -1.
     999901    1    3    3    0    0  0.85994839334E-01 -0.90650380123E-02 -0.96799189164E-01  0.88952086560E+00  0.88000000000E+00 0. -1.
        -11    1    4    4    0    0 -0.37043708637E-01 -0.10711253518E-01  0.34541428301E-01  0.51771987518E-01  0.51100000000E-03 0. -1.
         11    1    4    4    0    0 -0.40370331157E-01 -0.21603273904E-02  0.67334979325E-01  0.78541016124E-01  0.51100000000E-03 0.  1.
</event>
<event>
 8    1  0.1088088E+005  0.1043930E+01  0.7957747E-01            NaN
         13   -1    0    0    0    0  0.00000000000E+00  0.00000000000E+00  0.74505805969E-08  0.10566000000E+00  0.10566000000E+00 0. -1.
     999900   -1    0    0    0    0 -0.00000000000E+00 -0.00000000000E+00 -0.74505805969E-08  0.93827000000E+00  0.93827000000E+00 0. -1.
     999902    2    1    2    0    0  0.10727625759E-01 -0.54034118595E-02  0.17897960322E-01  0.10223750517E+01  0.10221478027E+01 0.  0.
     999903    2    3    3    0    0  0.26143871901E-01 -0.11765721467E+00 -0.50926579529E-01  0.13244505769E+00  0.20529359497E-01 0.  0.
         14    1    1    2    0    0 -0.10727625759E-01  0.54034118595E-02 -0.17897960322E-01  0.21554948338E-01  0.00000000000E+00 0.  1.
     999901    1    3    3    0    0 -0.15416246142E-01  0.11225380281E+00  0.68824539851E-01  0.88992999397E+00  0.88000000000E+00 0. -1.
        -11    1    4    4    0    0  0.10160378441E-02 -0.15735799284E-01 -0.16602396245E-04  0.15776853573E-01  0.51100000000E-03 0.  1.
         11    1    4    4    0    0  0.25127834057E-01 -0.10192141539E+00 -0.50909977133E-01  0.11666820411E+00  0.51100000000E-03 0. -1.
</event>
<event>
 8    1  0.1088088E+005  0.1043930E+01  0.7957747E-01            NaN
         13   -1    0    0    0    0  0.00000000000E+00  0.00000000000E+00  0.74505805969E-08  0.10566000000E+00  0.10566000000E+00 0. -1.
     999900   -1    0    0    0    0 -0.00000000000E+00 -0.00000000000E+00 -0.74505805969E-08  0.93827000000E+00  0.93827000000E+00 0.  1.
     999902    2    1    2    0    0  0.28664301912E-02  0.22226843557E-01 -0.54192556793E-02  0.10208731718E+01  0.10206127647E+01 0.  0.
     999903    2    3    3    0    0 -0.58364031982E-01 -0.11185334646E+00  0.12473300622E-01  0.12843448455E+00  0.20549993927E-01 0.  0.
         14    1    1    2    0    0 -0.28664301912E-02 -0.22226843557E-01  0.54192556793E-02  0.23056828244E-01  0.00000000000E+00 0. -1.
     999901    1    3    3    0    0  0.61230462173E-01  0.13408019001E+00 -0.17892556301E-01  0.89243868721E+00  0.88000000000E+00 0.  1.
        -11    1    4    4    0    0 -0.40214618860E-01 -0.59231480878E-01  0.10200383380E-02  0.71602272983E-01  0.51100000000E-03 0.  1.
         11    1    4    4    0    0 -0.18149413121E-01 -0.52621865579E-01  0.11453262284E-01  0.56832211567E-01  0.51100000000E-03 0. -1.
</event>
<event>
 8    1  0.1088088E+005  0.1043930E+01  0.7957747E-01            NaN
         13   -1    0    0    0    0  0.00000000000E+00  0.00000000000E+00  0.74505805969E-08  0.10566000000E+00  0.10566000000E+00 0.  1.
     999900   -1    0    0    0    0 -0.00000000000E+00 -0.00000000000E+00 -0.74505805969E-08  0.93827000000E+00  0.93827000000E+00 0.  1.
     999902    2    1    2    0    0 -0.15507798572E-02 -0.18386448049E-02 -0.23096830306E-01  0.10207082623E+01  0.10204440737E+01 0.  0.
     999903    2    3    3    0    0 -0.12931651141E+00  0.68782839294E-02 -0.98453293534E-02  0.13134013305E+00  0.19576238835E-01 0.  0.
         14    1    1    2    0    0  0.15507798572E-02  0.18386448049E-02  0.23096830306E-01  0.23221737727E-01  0.00000000000E+00 0.  1.
     999901    1    3    3    0    0  0.12776573155E+00 -0.87169287343E-02 -0.13251500953E-01  0.88936812923E+00  0.88000000000E+00 0.  1.
        -11    1    4    4    0    0 -0.82740613763E-01  0.10981622581E-01  0.41397983533E-03  0.83468782792E-01  0.51100000000E-03 0.  1.
         11    1    4    4    0    0 -0.46575897642E-01 -0.41033386513E-02 -0.10259309189E-01  0.47871350256E-01  0.51100000000E-03 0. -1.
</event>
<event>
 8    1  0.1088088E+005  0.1043930E+01  0.7957747E-01            NaN
         13   -1    0    0    0    0  0.00000000000E+00  0.00000000000E+00  0.74505805969E-08  0.10566000000E+00  0.10566000000E+00 0.  1.
     999900   -1    0    0    0    0 -0.00000000000E+00 -0.00000000000E+00 -0.74505805969E-08  0.93827000000E+00  0.93827000000E+00 0.  1.
     999902    2    1    2    0    0  0.10685654561E-01 -0.92426511276E-02 -0.19134568003E-01  0.10201446788E+01  0.10198673561E+01 0.  0.
     999903    2    3    3    0    0 -0.48956014115E-01 -0.76513434730E-01  0.89313153373E-01  0.12894133764E+00  0.19950743726E-01 0.  0.
         14    1    1    2    0    0 -0.10685654561E-01  0.92426511276E-02  0.19134568003E-01  0.23785321229E-01  0.00000000000E+00 0.  1.
     999901    1    3    3    0    0  0.59641668676E-01  0.67270783603E-01 -0.10844772138E+00  0.89120334113E+00  0.88000000000E+00 0.  1.
        -11    1    4    4    0    0 -0.16447732620E-01 -0.24146789963E-01  0.16557991593E-01  0.33586062295E-01  0.51100000000E-03 0. -1.
         11    1    4    4    0    0 -0.32508281495E-01 -0.52366644767E-01  0.72755161780E-01  0.95355275347E-01  0.51100000000E-03 0.  1.
</event>
<event>
 8    1  0.1088088E+005  0.1043930E+01  0.7957747E-01            NaN
         13   -1    0    0    0    0  0.00000000000E+00  0.00000000000E+00  0.74505805969E-08  0.10566000000E+00  0.10566000000E+00 0. -1.
     999900   -1    0    0    0    0 -0.00000000000E+00 -0.00000000000E+00 -0.74505805969E-08  0.93827000000E+00  0.93827000000E+00 0.  1.
     999902    2    1    2    0    0  0.16168202426E-02  0.26565173659E-01 -0.32124957137E-02  0.10171224882E+01  0.10167691544E+01 0.  0.
     999903    2    3    3    0    0  0.13838440712E-01 -0.54536028339E-01 -0.11173977501E+00  0.12667038770E+00  0.19847644002E-01 0.  0.
         14    1    1    2    0    0 -0.16168202426E-02 -0.26565173659E-01  0.32124957137E-02  0.26807511782E-01  0.00000000000E+00 0. -1.
     999901    1    3    3    0    0 -0.12221620469E-01  0.81101201999E-01  0.10852727929E+00  0.89045210052E+00  0.88000000000E+00 0. -1.
        -11    1    4    4    0    0  0.65810566554E-02 -0.17491661474E-01 -0.58421453029E-01  0.61340001816E-01  0.51100000000E-03 0.  1.
         11    1    4    4    0    0  0.72573840563E-02 -0.37044366865E-01 -0.53318321977E-01  0.65330385880E-01  0.51100000000E-03 0. -1.
</event>
<event>
 8    1  0.1088088E+005  0.1043930E+01  0.7957747E-01            NaN
         13   -1    0    0    0    0  0.00000000000E+00  0.00000000000E+00  0.74505805969E-08  0.10566000000E+00  0.10566000000E+00 0. -1.
     999900   -1    0    0    0    0 -0.00000000000E+00 -0.00000000000E+00 -0.74505805969E-08  0.93827000000E+00  0.93827000000E+00 0. -1.
     999902    2    1    2    0    0  0.16181882877E-01 -0.15831490544E-01  0.76068576776E-02  0.10200479207E+01  0.10197683104E+01 0.  0.
     999903    2    3    3    0    0  0.12526948194E+00 -0.30269088690E-02  0.38144272950E-01  0.13269421712E+00  0.21240631245E-01 0.  0.
         14    1    1    2    0    0 -0.16181882877E-01  0.15831490544E-01 -0.76068576776E-02  0.23882079265E-01  0.00000000000E+00 0.  1.
     999901    1    3    3    0    0 -0.10908759907E+00 -0.12804581675E-01 -0.30537415273E-01  0.88735370361E+00  0.88000000000E+00 0. -1.
        -11    1    4    4    0    0  0.20877377088E-01  0.68550060193E-02  0.34837565054E-02  0.22254295360E-01  0.51100000000E-03 0. -1.
         11    1    4    4    0    0  0.10439210485E+00 -0.98819148882E-02  0.34660516445E-01  0.11043992176E+00  0.51100000000E-03 0.  1.
</event>
<event>
 8    1  0.1088088E+005  0.1043930E+01  0.7957747E-01            NaN
         13   -1    0    0    0    0  0.00000000000E+00  0.00000000000E+00  0.74505805969E-08  0.10566000000E+00  0.10566000000E+00 0.  1.
     999900   -1    0    0    0    0 -0.00000000000E+00 -0.00000000000E+00 -0.74505805969E-08  0.93827000000E+00  0.93827000000E+00 0. -1.
     999902    2    1    2    0    0  0.19579827133E-01 -0.12950699687E-01 -0.15224750216E-02  0.10204053707E+01  0.10201341639E+01 0.  0.
     999903    2    3    3    0    0  0.50154535165E-01 -0.68258179319E-01  0.99639212109E-01  0.13235840291E+00  0.20398965422E-01 0.  0.
         14    1    1    2    0    0 -0.19579827133E-01  0.12950699687E-01  0.15224750216E-02  0.23524629288E-01  0.00000000000E+00 0. -1.
     999901    1    3    3    0    0 -0.30574708032E-01  0.55307479632E-01 -0.10116168713E+00  0.88804696780E+00  0.88000000000E+00 0. -1.
        -11    1    4    4    0    0  0.37464415059E-01 -0.59382137778E-01  0.71354484175E-01  0.10010766312E+00  0.51100000000E-03 0.  1.
         11    1    4    4    0    0  0.12690120106E-01 -0.88760415406E-02  0.28284727934E-01  0.32250739791E-01  0.51100000000E-03 0. -1.
</event>
<event>
 8    1  0.1088088E+005  0.1043930E+01  0.7957747E-01            NaN
         13   -1    0    0    0    0  0.00000000000E+00  0.00000000000E+00  0.74505805969E-08  0.10566000000E+00  0.10566000000E+00 0.  1.
     999900   -1    0    0    0    0 -0.00000000000E+00 -0.00000000000E+00 -0.74505805969E-08  0.93827000000E+00  0.93827000000E+00 0.  1.
     999902    2    1    2    0    0 -0.38460924198E-03  0.23310987932E-01 -0.59352268979E-03  0.10206082858E+01  0.10203417911E+01 0.  0.
     999903    2    3    3    0    0 -0.35742230954E-01  0.23988361975E-01  0.12242942847E+00  0.13134720675E+00  0.20252782083E-01 0.  0.
         14    1    1    2    0    0  0.38460924198E-03 -0.23310987932E-01  0.59352268979E-03  0.23321714169E-01  0.00000000000E+00 0.  1.
     999901    1    3    3    0    0  0.35357621712E-01 -0.67737404287E-03 -0.12302295116E+00  0.88926107908E+00  0.88000000000E+00 0.  1.
        -11    1    4    4    0    0 -0.30035380688E-01  0.24433636465E-01  0.84060684231E-01  0.92550453475E-01  0.51100000000E-03 0.  1.
         11    1    4    4    0    0 -0.57068502657E-02 -0.44527449008E-03  0.38368744241E-01  0.38796753279E-01  0.51100000000E-03 0. -1.
</event>
<event>
 8    1  0.1088088E+005  0.1043930E+01  0.7957747E-01            NaN
         13   -1    0    0    0    0  0.00000000000E+00  0.00000000000E+00  0.74505805969E-08  0.10566000000E+00  0.10566000000E+00 0.  1.
     999900   -1    0    0    0    0 -0.00000000000E+00 -0.00000000000E+00 -0.74505805969E-08  0.93827000000E+00  0.93827000000E+00 0.  1.
     999902    2    1    2    0    0 -0.70998255605E-02 -0.15716778736E-01  0.16194384737E-01  0.10202723849E+01  0.10199980669E+01 0.  0.
     999903    2    3    3    0    0 -0.11509876154E+00 -0.30956758498E-01  0.54678214357E-01  0.13270434111E+00  0.20363919551E-01 0.  0.
         14    1    1    2    0    0  0.70998255605E-02  0.15716778736E-01 -0.16194384737E-01  0.23657615134E-01  0.00000000000E+00 0. -1.
     999901    1    3    3    0    0  0.10799893598E+00  0.15239979761E-01 -0.38483829620E-01  0.88756804376E+00  0.88000000000E+00 0. -1.
        -11    1    4    4    0    0 -0.74780145132E-01 -0.29368176728E-01  0.32578145670E-01  0.86695770408E-01  0.51100000000E-03 0. -1.
         11    1    4    4    0    0 -0.40318616407E-01 -0.15885817693E-02  0.22100068687E-01  0.46008570702E-01  0.51100000000E-03 0.  1.
</event>
<event>
 7    1  0.1088088E+005  0.1043930E+01  0.7957747E-01            NaN
         13   -1    0    0    0    0  0.00000000000E+00  0.00000000000E+00  0.74505805969E-08  0.10566000000E+00  0.10566000000E+00 0. -1.
     999900   -1    0    0    0    0 -0.00000000000E+00 -0.00000000000E+00 -0.74505805969E-08  0.93827000000E+00  0.93827000000E+00 0.  1.
     999903    2    1    2    0    0  0.96196401725E-01 -0.51777259566E-01  0.36003248497E-01  0.11672887546E+00  0.19868672595E-01 0.  0.
         14    1    1    2    0    0 -0.12568349056E-01  0.61138374825E-03  0.36680324702E-01  0.38778646293E-01  0.00000000000E+00 0. -1.
     999901    1    1    2    0    0 -0.83628052669E-01  0.51165875818E-01 -0.72683573199E-01  0.88842247825E+00  0.88000000000E+00 0.  1.
        -11    1    3    3    0    0  0.28158025274E-01 -0.19327714732E-01  0.25342233161E-02  0.34250815361E-01  0.51100000000E-03 0.  1.
         11    1    3    3    0    0  0.68038376451E-01 -0.32449544834E-01  0.33469025181E-01  0.82478060099E-01  0.51100000000E-03 0. -1.
</event>
<event>
 8    1  0.1088088E+005  0.1043930E+01  0.7957747E-01            NaN
         13   -1    0    0    0    0  0.00000000000E+00  0.00000000000E+00  0.74505805969E-08  0.10566000000E+00  0.10566000000E+00 0.  1.
     999900   -1    0    0    0    0 -0.00000000000E+00 -0.00000000000E+00 -0.74505805969E-08  0.93827000000E+00  0.93827000000E+00 0. -1.
     999902    2    1    2    0    0  0.22893204983E-01 -0.32418780574E-02 -0.22597278764E-02  0.10206982334E+01  0.10204338140E+01 0.  0.
     999903    2    3    3    0    0 -0.76778497697E-01  0.99170051505E-01 -0.23789002380E-01  0.12891005158E+00  0.17951265694E-01 0.  0.
         14    1    1    2    0    0 -0.22893204983E-01  0.32418780574E-02  0.22597278764E-02  0.23231766567E-01  0.00000000000E+00 0. -1.
     999901    1    3    3    0    0  0.99671702680E-01 -0.10241192956E+00  0.21529274504E-01  0.89178818185E+00  0.88000000000E+00 0.  1.
        -11    1    4    4    0    0 -0.20578293609E-01  0.39797161292E-01 -0.55783242859E-02  0.45151512019E-01  0.51100000000E-03 0. -1.
         11    1    4    4    0    0 -0.56200204087E-01  0.59372890213E-01 -0.18210678094E-01  0.83758539561E-01  0.51100000000E-03 0.  1.
</event>
<event>
 8    1  0.1088088E+005  0.1043930E+01  0.7957747E-01            NaN
         13   -1    0    0    0    0  0.00000000000E+00  0.00000000000E+00  0.74505805969E-08  0.10566000000E+00  0.10566000000E+00 0. -1.
     999900   -1    0    0    0    0 -0.00000000000E+00 -0.00000000000E+00 -0.74505805969E-08  0.93827000000E+00  0.93827000000E+00 0. -1.
     999902    2    1    2    0    0  0.10265136913E-01 -0.19562815474E-01  0.81093386144E-02  0.10203962337E+01  0.10201248137E+01 0.  0.
     999903    2    3    3    0    0 -0.23940605078E-01 -0.32990360832E-01 -0.12189646476E+00  0.13008626480E+00  0.20054218736E-01 0.  0.
         14    1    1    2    0    0 -0.10265136913E-01  0.19562815474E-01 -0.81093386144E-02  0.23533766334E-01  0.00000000000E+00 0.  1.
     999901    1    3    3    0    0  0.34205741991E-01  0.13427545358E-01  0.13000580337E+00  0.89030996887E+00  0.88000000000E+00 0.  1.
        -11    1    4    4    0    0 -0.60469320327E-02 -0.23629189143E-01 -0.78804234357E-01  0.82494075182E-01  0.51100000000E-03 0.  1.
         11    1    4    4    0    0 -0.17893673045E-01 -0.93611716887E-02 -0.43092230399E-01  0.47592189613E-01  0.51100000000E-03 0. -1.
</event>
<event>
 8    1  0.1088088E+005  0.1043930E+01  0.7957747E-01            NaN
         13   -1    0    0    0    0  0.00000000000E+00  0.00000000000E+00  0.74505805969E-08  0.10566000000E+00  0.10566000000E+00 0.  1.
     999900   -1    0    0    0    0 -0.00000000000E+00 -0.00000000000E+00 -0.74505805969E-08  0.93827000000E+00  0.93827000000E+00 0. -1.
     999902    2    1    2    0    0 -0.17557996554E-01 -0.14800405795E-01 -0.51343955836E-03  0.10209604794E+01  0.10207020631E+01 0.  0.
     999903    2    3    3    0    0  0.44177520858E-01 -0.92629761865E-01 -0.80354011545E-01  0.13177928322E+00  0.19418706996E-01 0.  0.
         14    1    1    2    0    0  0.17557996554E-01  0.14800405795E-01  0.51343955836E-03  0.22969520563E-01  0.00000000000E+00 0.  1.
     999901    1    3    3    0    0 -0.61735517412E-01  0.77829356070E-01  0.79840571987E-01  0.88918119622E+00  0.88000000000E+00 0.  1.
        -11    1    4    4    0    0  0.24088533039E-01 -0.70056667771E-01 -0.60122245807E-01  0.95410375144E-01  0.51100000000E-03 0.  1.
         11    1    4    4    0    0  0.20088987818E-01 -0.22573094094E-01 -0.20231765738E-01  0.36368908073E-01  0.51100000000E-03 0. -1.
</event>
<event>
 8    1  0.1088088E+005  0.1043930E+01  0.7957747E-01            NaN
         13   -1    0    0    0    0  0.00000000000E+00  0.00000000000E+00  0.74505805969E-08  0.10566000000E+00  0.10566000000E+00 0.  1.
     999900   -1    0    0    0    0 -0.00000000000E+00 -0.00000000000E+00 -0.74505805969E-08  0.93827000000E+00  0.93827000000E+00 0. -1.
     999902    2    1    2    0    0 -0.10301543497E-01  0.19653172441E-01 -0.47537265331E-02  0.10212371178E+01  0.10209849577E+01 0.  0.
     999903    2    3    3    0    0  0.91548893999E-01 -0.35253606623E-01 -0.83150419128E-01  0.13020720395E+00  0.20393797777E-01 0.  0.
         14    1    1    2    0    0  0.10301543497E-01 -0.19653172441E-01  0.47537265331E-02  0.22692882174E-01  0.00000000000E+00 0.  1.
     999901    1    3    3    0    0 -0.10185043750E+00  0.54906779064E-01  0.78396692595E-01  0.89102991387E+00  0.88000000000E+00 0. -1.
        -11    1    4    4    0    0  0.50696050129E-01 -0.20666759409E-01 -0.59269204117E-01  0.80686455622E-01  0.51100000000E-03 0.  1.
         11    1    4    4    0    0  0.40852843870E-01 -0.14586847213E-01 -0.23881215012E-01  0.49520748332E-01  0.51100000000E-03 0. -1.
</event>
<event>
 8    1  0.1088088E+005  0.1043930E+01  0.7957747E-01            NaN
         13   -1    0    0    0    0  0.00000000000E+00  0.00000000000E+00  0.74505805969E-08  0.10566000000E+00  0.10566000000E+00 0. -1.
     999900   -1    0    0    0    0 -0.00000000000E+00 -0.00000000000E+00 -0.74505805969E-08  0.93827000000E+00  0.93827000000E+00 0. -1.
     999902    2    1    2    0    0  0.39636626288E-02  0.16644716975E-01 -0.15903795572E-01  0.10205700356E+01  0.10203026559E+01 0.  0.
     999903    2    3    3    0    0 -0.94980244158E-02  0.12211488457E+00  0.44664330248E-01  0.13210300121E+00  0.21308285549E-01 0.  0.
         14    1    1    2    0    0 -0.39636626288E-02 -0.16644716975E-01  0.15903795572E-01  0.23359964431E-01  0.00000000000E+00 0. -1.
     999901    1    3    3    0    0  0.13461687045E-01 -0.10547016759E+00 -0.60568125820E-01  0.88846703435E+00  0.88000000000E+00 0. -1.
        -11    1    4    4    0    0 -0.99091860794E-02  0.21726546565E-01  0.10038929618E-01  0.25908995026E-01  0.51100000000E-03 0. -1.
         11    1    4    4    0    0  0.41116166366E-03  0.10038833800E+00  0.34625400630E-01  0.10619400619E+00  0.51100000000E-03 0.  1.
</event>
<event>
 8    1  0.1088088E+005  0.1043930E+01  0.7957747E-01            NaN
         13   -1    0    0    0    0  0.00000000000E+00  0.00000000000E+00  0.74505805969E-08  0.10566000000E+00  0.10566000000E+00 0.  1.
     999900   -1    0    0    0    0 -0.00000000000E+00 -0.00000000000E+00 -0.74505805969E-08  0.93827000000E+00  0.93827000000E+00 0. -1.
     999902    2    1    2    0    0 -0.73264831505E-02 -0.13895089558E-02  0.22548251578E-01  0.10201806476E+01  0.10199041729E+01 0.  0.
     999903    2    3    3    0    0 -0.80715253273E-01  0.49996234778E-01 -0.85687951001E-01  0.12903448574E+00  0.17114261902E-01 0.  0.
         14    1    1    2    0    0  0.73264831505E-02  0.13895089558E-02 -0.22548251578E-01  0.23749352406E-01  0.00000000000E+00 0. -1.
     999901    1    3    3    0    0  0.73388770123E-01 -0.51385743733E-01  0.10823620258E+00  0.89114616185E+00  0.88000000000E+00 0.  1.
        -11    1    4    4    0    0 -0.69021955273E-02  0.96353074089E-02 -0.15184665726E-01  0.19269526361E-01  0.51100000000E-03 0.  1.
         11    1    4    4    0    0 -0.73813057746E-01  0.40360927369E-01 -0.70503285275E-01  0.10976495938E+00  0.51100000000E-03 0. -1.
</event>
<event>
 8    1  0.1088088E+005  0.1043930E+01  0.7957747E-01            NaN
         13   -1    0    0    0    0  0.00000000000E+00  0.00000000000E+00  0.74505805969E-08  0.10566000000E+00  0.10566000000E+00 0. -1.
     999900   -1    0    0    0    0 -0.00000000000E+00 -0.00000000000E+00 -0.74505805969E-08  0.93827000000E+00  0.93827000000E+00 0.  1.
     999902    2    1    2    0    0  0.21730756518E-01  0.13973813958E-03  0.31608356449E-03  0.10221964956E+01  0.10219654252E+01 0.  0.
     999903    2    3    3    0    0 -0.35128297637E-02  0.18409282139E-01 -0.12900968993E+00  0.13219864694E+00  0.21948588023E-01 0.  0.
         14    1    1    2    0    0 -0.21730756518E-01 -0.13973813958E-03 -0.31608356449E-03  0.21733504421E-01  0.00000000000E+00 0.  1.
     999901    1    3    3    0    0  0.25243586282E-01 -0.18269544000E-01  0.12932577349E+00  0.88999784864E+00  0.88000000000E+00 0. -1.
        -11    1    4    4    0    0 -0.72638126596E-02  0.87853538740E-02 -0.10971850504E+00  0.11031027553E+00  0.51100000000E-03 0.  1.
         11    1    4    4    0    0  0.37509828959E-02  0.96239282655E-02 -0.19291184888E-01  0.21888371418E-01  0.51100000000E-03 0. -1.
</event>
<event>
 8    1  0.1088088E+005  0.1043930E+01  0.7957747E-01            NaN
         13   -1    0    0    0    0  0.00000000000E+00  0.00000000000E+00  0.74505805969E-08  0.10566000000E+00  0.10566000000E+00 0.  1.
     999900   -1    0    0    0    0 -0.00000000000E+00 -0.00000000000E+00 -0.74505805969E-08  0.93827000000E+00  0.93827000000E+00 0.  1.
     999902    2    1    2    0    0 -0.22495290743E-01  0.10397339221E-01  0.45549451787E-02  0.10187329705E+01  0.10184213151E+01 0.  0.
     999903    2    3    3    0    0  0.11937633128E+00  0.57224873322E-02 -0.36046138846E-01  0.12643377217E+00  0.20067867076E-01 0.  0.
         14    1    1    2    0    0  0.22495290743E-01 -0.10397339221E-01 -0.45549451787E-02  0.25197029469E-01  0.00000000000E+00 0.  1.
     999901    1    3    3    0    0 -0.14187162202E+00  0.46748518885E-02  0.40601084024E-01  0.89229919836E+00  0.88000000000E+00 0. -1.
        -11    1    4    4    0    0  0.86207061491E-01  0.10141265868E-02 -0.16938800759E-01  0.87862790735E-01  0.51100000000E-03 0.  1.
         11    1    4    4    0    0  0.33169269785E-01  0.47083607455E-02 -0.19107338087E-01  0.38570981433E-01  0.51100000000E-03 0. -1.
</event>
<event>
 8    1  0.1088088E+005  0.1043930E+01  0.7957747E-01            NaN
         13   -1    0    0    0    0  0.00000000000E+00  0.00000000000E+00  0.74505805969E-08  0.10566000000E+00  0.10566000000E+00 0.  1.
     999900   -1    0    0    0    0 -0.00000000000E+00 -0.00000000000E+00 -0.74505805969E-08  0.93827000000E+00  0.93827000000E+00 0.  1.
     999902    2    1    2    0    0 -0.98024851119E-02  0.37120118588E-03  0.21326323818E-01  0.10204557888E+01  0.10201857567E+01 0.  0.
     999903    2    3    3    0    0  0.10693374034E+00 -0.22027318306E-01  0.69881099446E-01  0.13113773193E+00  0.19842104242E-01 0.  0.
         14    1    1    2    0    0  0.98024851119E-02 -0.37120118588E-03 -0.21326323818E-01  0.23474211218E-01  0.00000000000E+00 0. -1.
     999901    1    3    3    0    0 -0.11673622545E+00  0.22398519492E-01 -0.48554775628E-01  0.88931805685E+00  0.88000000000E+00 0.  1.
        -11    1    4    4    0    0  0.76492014459E-01 -0.18796993258E-01  0.39950122154E-01  0.88321167410E-01  0.51100000000E-03 0. -1.
         11    1    4    4    0    0  0.30441725882E-01 -0.32303250475E-02  0.29930977292E-01  0.42816564519E-01  0.51100000000E-03 0.  1.
</event>
<event>
 8    1  0.1088088E+005  0.1043930E+01  0.7957747E-01            NaN
         13   -1    0    0    0    0  0.00000000000E+00  0.00000000000E+00  0.74505805969E-08  0.10566000000E+00  0.10566000000E+00 0. -1.
     999900   -1    0    0    0    0 -0.00000000000E+00 -0.00000000000E+00 -0.74505805969E-08  0.93827000000E+00  0.93827000000E+00 0.  1.
     999902    2    1    2    0    0 -0.12063398530E-02 -0.14910309743E-01  0.18987211662E-01  0.10197579749E+01  0.10194714515E+01 0.  0.
     999903    2    3    3    0    0 -0.56203365917E-01  0.10229587033E+00 -0.47950092660E-01  0.12776999051E+00  0.20067278383E-01 0.  0.
         14    1    1    2    0    0  0.12063398530E-02  0.14910309743E-01 -0.18987211662E-01  0.24172025135E-01  0.00000000000E+00 0.  1.
     999901    1    3    3    0    0  0.54997026065E-01 -0.11720618007E+00  0.66937304322E-01  0.89198798435E+00  0.88000000000E+00 0. -1.
        -11    1    4    4    0    0 -0.69343996556E-02  0.28955052252E-01 -0.16084719526E-01  0.33844649100E-01  0.51100000000E-03 0. -1.
         11    1    4    4    0    0 -0.49268966262E-01  0.73340818079E-01 -0.31865373133E-01  0.93925341410E-01  0.51100000000E-03 0.  1.
</event>
<event>
 8    1  0.1088088E+005  0.1043930E+01  0.7957747E-01            NaN
         13   -1    0    0    0    0  0.00000000000E+00  0.00000000000E+00  0.74505805969E-08  0.10566000000E+00  0.10566000000E+00 0. -1.
     999900   -1    0    0    0    0 -0.00000000000E+00 -0.00000000000E+00 -0.74505805969E-08  0.93827000000E+00  0.93827000000E+00 0. -1.
     999902    2    1    2    0    0 -0.14316506437E-01 -0.20513545575E-01  0.19552568661E-02  0.10188383492E+01  0.10185293275E+01 0.  0.
     999903    2    3    3    0    0  0.97732678589E-01  0.76391116236E-01 -0.12584826701E-01  0.12633795855E+00  0.20386829169E-01 0.  0.
         14    1    1    2    0    0  0.14316506437E-01  0.20513545575E-01 -0.19552568661E-02  0.25091650763E-01  0.00000000000E+00 0.  1.
     999901    1    3    3    0    0 -0.11204918503E+00 -0.96904661811E-01  0.14540083567E-01  0.89250039069E+00  0.88000000000E+00 0.  1.
        -11    1    4    4    0    0  0.71277877062E-01  0.44133023022E-01 -0.11320044611E-01  0.84597068569E-01  0.51100000000E-03 0. -1.
         11    1    4    4    0    0  0.26454801527E-01  0.32258093215E-01 -0.12647820902E-02  0.41740889981E-01  0.51100000000E-03 0.  1.
</event>
<event>
 8    1  0.1088088E+005  0.1043930E+01  0.7957747E-01            NaN
         13   -1    0    0    0    0  0.00000000000E+00  0.00000000000E+00  0.74505805969E-08  0.10566000000E+00  0.10566000000E+00 0. -1.
     999900   -1    0    0    0    0 -0.00000000000E+00 -0.00000000000E+00 -0.74505805969E-08  0.93827000000E+00  0.93827000000E+00 0.  1.
     999902    2    1    2    0    0 -0.57450747176E-02 -0.82222331785E-03  0.22747510895E-01  0.10204538166E+01  0.10201837387E+01 0.  0.
     999903    2    3    3    0    0  0.61190728125E-01 -0.79580642062E-01 -0.78085149490E-01  0.12868562048E+00  0.19629430666E-01 0.  0.
         14    1    1    2    0    0  0.57450747176E-02  0.82222331785E-03 -0.22747510895E-01  0.23476183391E-01  0.00000000000E+00 0. -1.
     999901    1    3    3    0    0 -0.66935802842E-01  0.78758418744E-01  0.10083266039E+00  0.89176819613E+00  0.88000000000E+00 0.  1.
        -11    1    4    4    0    0  0.13853522598E-01 -0.70113609792E-02 -0.98127067627E-02  0.18374700165E-01  0.51100000000E-03 0.  1.
         11    1    4    4    0    0  0.47337205526E-01 -0.72569281082E-01 -0.68272442727E-01  0.11031092032E+00  0.51100000000E-03 0. -1.
</event>
<event>
 8    1  0.1088088E+005  0.1043930E+01  0.7957747E-01            NaN
         13   -1    0    0    0    0  0.00000000000E+00  0.00000000000E+00  0.74505805969E-08  0.10566000000E+00  0.10566000000E+00 0.  1.
     999900   -1    0    0    0    0 -0.00000000000E+00 -0.00000000000E+00 -0.74505805969E-08  0.93827000000E+00  0.93827000000E+00 0. -1.
     999902    2    1    2    0    0  0.20608466649E-01  0.66064544871E-02  0.97962756763E-02  0.10201745552E+01  0.10198979371E+01 0.  0.
     999903    2    3    3    0    0 -0.86110804852E-01  0.54833316570E-01 -0.75228308176E-01  0.12835393819E+00  0.19841163783E-01 0.  0.
         14    1    1    2    0    0 -0.20608466649E-01 -0.66064544871E-02 -0.97962756763E-02  0.23755444758E-01  0.00000000000E+00 0. -1.
     999901    1    3    3    0    0  0.10671927150E+00 -0.48226862083E-01  0.85024583852E-01  0.89182061705E+00  0.88000000000E+00 0.  1.
        -11    1    4    4    0    0 -0.68530009144E-01  0.33303679800E-01 -0.55390945376E-01  0.94201460669E-01  0.51100000000E-03 0. -1.
         11    1    4    4    0    0 -0.17580795708E-01  0.21529636770E-01 -0.19837362800E-01  0.34152477524E-01  0.51100000000E-03 0.  1.
</event>
<event>
 8    1  0.1088088E+005  0.1043930E+01  0.7957747E-01            NaN
         13   -1    0    0    0    0  0.00000000000E+00  0.00000000000E+00  0.74505805969E-08  0.10566000000E+00  0.10566000000E+00 0. -1.
     999900   -1    0    0    0    0 -0.00000000000E+00 -0.00000000000E+00 -0.74505805969E-08  0.93827000000E+00  0.93827000000E+00 0.  1.
     999902    2    1    2    0    0  0.18048116752E-02  0.22414344639E-01 -0.11305952790E-02  0.10214147066E+01  0.10211665214E+01 0.  0.
     999903    2    3    3    0    0 -0.12280245489E+00 -0.10972169365E-01  0.39471589663E-01  0.13108321350E+00  0.20590557143E-01 0.  0.
         14    1    1    2    0    0 -0.18048116752E-02 -0.22414344639E-01  0.11305952790E-02  0.22515293390E-01  0.00000000000E+00 0.  1.
     999901    1    3    3    0    0  0.12460726657E+00  0.33386514003E-01 -0.40602184942E-01  0.89033149311E+00  0.88000000000E+00 0.  1.
        -11    1    4    4    0    0 -0.10677576635E+00 -0.52500792655E-02  0.27864105825E-01  0.11047758653E+00  0.51100000000E-03 0.  1.
         11    1    4    4    0    0 -0.16026688545E-01 -0.57220900992E-02  0.11607483839E-01  0.20605626972E-01  0.51100000000E-03 0. -1.
</event>
<event>
 8    1  0.1088088E+005  0.1043930E+01  0.7957747E-01            NaN
         13   -1    0    0    0    0  0.00000000000E+00  0.00000000000E+00  0.74505805969E-08  0.10566000000E+00  0.10566000000E+00 0.  1.
     999900   -1    0    0    0    0 -0.00000000000E+00 -0.00000000000E+00 -0.74505805969E-08  0.93827000000E+00  0.93827000000E+00 0. -1.
     999902    2    1    2    0    0  0.95816363443E-02 -0.17653603724E-01 -0.12066955903E-01  0.10204977806E+01  0.10202287250E+01 0.  0.
     999903    2    3    3    0    0 -0.38349335618E-01 -0.62867076035E-01  0.10544859896E+00  0.13024414162E+00  0.20522880221E-01 0.  0.
         14    1    1    2    0    0 -0.95816363443E-02  0.17653603724E-01  0.12066955903E-01  0.23432219362E-01  0.00000000000E+00 0.  1.
     999901    1    3    3    0    0  0.47930971963E-01  0.45213472311E-01 -0.11751555486E+00  0.89025363902E+00  0.88000000000E+00 0. -1.
        -11    1    4    4    0    0 -0.95390017469E-02 -0.86207594194E-02  0.83207136245E-02  0.15323362670E-01  0.51100000000E-03 0.  1.
         11    1    4    4    0    0 -0.28810333872E-01 -0.54246316616E-01  0.97127885332E-01  0.11492077895E+00  0.51100000000E-03 0. -1.
</event>
<event>
 7    1  0.1088088E+005  0.1043930E+01  0.7957747E-01            NaN
         13   -1    0    0    0    0  0.00000000000E+00  0.00000000000E+00  0.74505805969E-08  0.10566000000E+00  0.10566000000E+00 0.  1.
     999900   -1    0    0    0    0 -0.00000000000E+00 -0.00000000000E+00 -0.74505805969E-08  0.93827000000E+00  0.93827000000E+00 0. -1.
     999903    2    1    2    0    0 -0.88266639909E-01  0.62615942826E-01 -0.38183660252E-01  0.11647015462E+00  0.19888413461E-01 0.  0.
         14    1    1    2    0    0  0.38831923903E-01  0.15187447384E-01 -0.18791086000E-02  0.41738566353E-01  0.00000000000E+00 0. -1.
     999901    1    1    2    0    0  0.49434716006E-01 -0.77803390211E-01  0.40062768852E-01  0.88572127903E+00  0.88000000000E+00 0. -1.
        -11    1    3    3    0    0 -0.56955392484E-01  0.51461373928E-01 -0.27850943212E-01  0.81658593537E-01  0.51100000000E-03 0.  1.
         11    1    3    3    0    0 -0.31311247425E-01  0.11154568899E-01 -0.10332717040E-01  0.34811561083E-01  0.51100000000E-03 0. -1.
</event>
<event>
 8    1  0.1088088E+005  0.1043930E+01  0.7957747E-01            NaN
         13   -1    0    0    0    0  0.00000000000E+00  0.00000000000E+00  0.74505805969E-08  0.10566000000E+00  0.10566000000E+00 0. -1.
     999900   -1    0    0    0    0 -0.00000000000E+00 -0.00000000000E+00 -0.74505805969E-08  0.93827000000E+00  0.93827000000E+00 0.  1.
     999902    2    1    2    0    0 -0.51167115092E-02 -0.17748216427E-01  0.14723495710E-01  0.10203087966E+01  0.10200353323E+01 0.  0.
     999903    2    3    3    0    0 -0.12176330832E+00 -0.35138962483E-01  0.32604251242E-01  0.13226116951E+00  0.19207546040E-01 0.  0.
         14    1    1    2    0    0  0.51167115092E-02  0.17748216427E-01 -0.14723495710E-01  0.23621203376E-01  0.00000000000E+00 0.  1.
     999901    1    3    3    0    0  0.11664659681E+00  0.17390746056E-01 -0.17880755532E-01  0.88804762711E+00  0.88000000000E+00 0. -1.
        -11    1    4    4    0    0 -0.10814796280E+00 -0.26704423345E-01  0.33157321111E-01  0.11622726508E+00  0.51100000000E-03 0.  1.
         11    1    4    4    0    0 -0.13615345525E-01 -0.84345391386E-02 -0.55306986962E-03  0.16033904438E-01  0.51100000000E-03 0. -1.
</event>
<event>
 8    1  0.1088088E+005  0.1043930E+01  0.7957747E-01            NaN
         13   -1    0    0    0    0  0.00000000000E+00  0.00000000000E+00  0.74505805969E-08  0.10566000000E+00  0.10566000000E+00 0.  1.
     999900   -1    0    0    0    0 -0.00000000000E+00 -0.00000000000E+00 -0.74505805969E-08  0.93827000000E+00  0.93827000000E+00 0. -1.
     999902    2    1    2    0    0 -0.72826728887E-03 -0.86596515180E-02  0.20657301923E-01  0.10215191977E+01  0.10212733362E+01 0.  0.
     999903    2    3    3    0    0  0.10550098284E+00 -0.69238725798E-01  0.37816348910E-01  0.13289728105E+00  0.17525767813E-01 0.  0.
         14    1    1    2    0    0  0.72826728887E-03  0.86596515180E-02 -0.20657301923E-01  0.22410802315E-01  0.00000000000E+00 0. -1.
     999901    1    3    3    0    0 -0.10622925012E+00  0.60579074280E-01 -0.17159046987E-01  0.88862191663E+00  0.88000000000E+00 0. -1.
        -11    1    4    4    0    0  0.96326158158E-01 -0.65320930566E-01  0.29938710748E-01  0.12017545605E+00  0.51100000000E-03 0. -1.
         11    1    4    4    0    0  0.91748246778E-02 -0.39177952321E-02  0.78776381615E-02  0.12721825001E-01  0.51100000000E-03 0.  1.
</event>
<event>
 8    1  0.1088088E+005  0.1043930E+01  0.7957747E-01            NaN
         13   -1    0    0    0    0  0.00000000000E+00  0.00000000000E+00  0.74505805969E-08  0.10566000000E+00  0.10566000000E+00 0. -1.
     999900   -1    0    0    0    0 -0.00000000000E+00 -0.00000000000E+00 -0.74505805969E-08  0.93827000000E+00  0.93827000000E+00 0. -1.
     999902    2    1    2    0    0  0.13031807490E-01 -0.15505465491E-01  0.11947343223E-01  0.10204143355E+01  0.10201433378E+01 0.  0.
     999903    2    3    3    0    0 -0.37713984427E-01 -0.22646994017E-01  0.12315890663E+00  0.13193577715E+00  0.17427049375E-01 0.  0.
         14    1    1    2    0    0 -0.13031807490E-01  0.15505465491E-01 -0.11947343223E-01  0.23515664495E-01  0.00000000000E+00 0. -1.
     999901    1    3    3    0    0  0.50745791917E-01  0.71415285264E-02 -0.11121156341E+00  0.88847855836E+00  0.88000000000E+00 0. -1.
        -11    1    4    4    0    0 -0.16204940862E-01 -0.17146585034E-01  0.46794479645E-01  0.52407918609E-01  0.51100000000E-03 0.  1.
         11    1    4    4    0    0 -0.21509043565E-01 -0.55004089839E-02  0.76364426984E-01  0.79527858539E-01  0.51100000000E-03 0. -1.
</event>
<event>
 8    1  0.1088088E+005  0.1043930E+01  0.7957747E-01            NaN
         13   -1    0    0    0    0  0.00000000000E+00  0.00000000000E+00  0.74505805969E-08  0.10566000000E+00  0.10566000000E+00 0.  1.
     999900   -1    0    0    0    0 -0.00000000000E+00 -0.00000000000E+00 -0.74505805969E-08  0.93827000000E+00  0.93827000000E+00 0.  1.
     999902    2    1    2    0    0  0.14413188941E-01  0.88246213076E-02 -0.15282637706E-01  0.10211446325E+01  0.10208903896E+01 0.  0.
     999903    2    3    3    0    0  0.49016090199E-01 -0.44738124368E-01  0.10986785254E+00  0.13000548865E+00  0.20649580766E-01 0.  0.
         14    1    1    2    0    0 -0.14413188941E-01 -0.88246213076E-02  0.15282637706E-01  0.22785367496E-01  0.00000000000E+00 0.  1.
     999901    1    3    3    0    0 -0.34602901257E-01  0.53562745675E-01 -0.12515049025E+00  0.89113914385E+00  0.88000000000E+00 0.  1.
        -11    1    4    4    0    0 -0.43619535803E-03 -0.74522152307E-02  0.13925991438E-01  0.15808862602E-01  0.51100000000E-03 0. -1.
         11    1    4    4    0    0  0.49452285557E-01 -0.37285909137E-01  0.95941861107E-01  0.11419662605E+00  0.51100000000E-03 0.  1.
</event>
<event>
 8    1  0.1088088E+005  0.1043930E+01  0.7957747E-01            NaN
         13   -1    0    0    0    0  0.00000000000E+00  0.00000000000E+00  0.74505805969E-08  0.10566000000E+00  0.10566000000E+00 0.  1.
     999900   -1    0    0    0    0 -0.00000000000E+00 -0.00000000000E+00 -0.74505805969E-08  0.93827000000E+00  0.93827000000E+00 0. -1.
     999902    2    1    2    0    0  0.10431586147E-01 -0.17617857581E-01  0.10797935019E-01  0.10207825963E+01  0.10205201158E+01 0.  0.
     999903    2    3    3    0    0  0.85426423703E-01  0.71594022897E-02  0.98705018997E-01  0.13288294341E+00  0.23796322544E-01 0.  0.
         14    1    1    2    0    0 -0.10431586147E-01  0.17617857581E-01 -0.10797935019E-01  0.23147403655E-01  0.00000000000E+00 0.  1.
     999901    1    3    3    0    0 -0.74994837555E-01 -0.24777259871E-01 -0.87907083979E-01  0.88789965293E+00  0.88000000000E+00 0. -1.
        -11    1    4    4    0    0  0.40241709107E-01 -0.70491316831E-02  0.37236455225E-01  0.55280196527E-01  0.51100000000E-03 0. -1.
         11    1    4    4    0    0  0.45184714596E-01  0.14208533973E-01  0.61468563772E-01  0.77602746884E-01  0.51100000000E-03 0.  1.
</event>
<event>
 8    1  0.1088088E+005  0.1043930E+01  0.7957747E-01            NaN
         13   -1    0    0    0    0  0.00000000000E+00  0.00000000000E+00  0.74505805969E-08  0.10566000000E+00  0.10566000000E+00 0. -1.
     999900   -1    0    0    0    0 -0.00000000000E+00 -0.00000000000E+00 -0.74505805969E-08  0.93827000000E+00  0.93827000000E+00 0. -1.
     999902    2    1    2    0    0  0.56969281982E-02 -0.22929667081E-01  0.51094097378E-02  0.10197570670E+01  0.10194705219E+01 0.  0.
     999903    2    3    3    0    0 -0.87621611456E-01  0.79748265833E-01 -0.43198219698E-01  0.12757730100E+00  0.19301524477E-01 0.  0.
         14    1    1    2    0    0 -0.56969281982E-02  0.22929667081E-01 -0.51094097378E-02  0.24172933029E-01  0.00000000000E+00 0. -1.
     999901    1    3    3    0    0  0.93318539654E-01 -0.10267793291E+00  0.48307629436E-01  0.89217976597E+00  0.88000000000E+00 0. -1.
        -11    1    4    4    0    0 -0.28208409735E-02  0.66957163744E-02  0.76557380635E-03  0.73237275903E-02  0.51100000000E-03 0. -1.
         11    1    4    4    0    0 -0.84800770483E-01  0.73052549459E-01 -0.43963793504E-01  0.12025357341E+00  0.51100000000E-03 0.  1.
</event>
<event>
 8    1  0.1088088E+005  0.1043930E+01  0.7957747E-01            NaN
         13   -1    0    0    0    0  0.00000000000E+00  0.00000000000E+00  0.74505805969E-08  0.10566000000E+00  0.10566000000E+00 0.  1.
     999900   -1    0    0    0    0 -0.00000000000E+00 -0.00000000000E+00 -0.74505805969E-08  0.93827000000E+00  0.93827000000E+00 0.  1.
     999902    2    1    2    0    0 -0.10916729866E-01  0.17647649616E-01 -0.11122160928E-01  0.10203860625E+01  0.10201144052E+01 0.  0.
     999903    2    3    3    0    0 -0.12101213884E+00  0.11501040581E-01 -0.49331545203E-01  0.13268186803E+00  0.19866179069E-01 0.  0.
         14    1    1    2    0    0  0.10916729866E-01 -0.17647649616E-01  0.11122160928E-01  0.23543937471E-01  0.00000000000E+00 0.  1.
     999901    1    3    3    0    0  0.11009540898E+00  0.61466090344E-02  0.38209384275E-01  0.88770419450E+00  0.88000000000E+00 0.  1.
        -11    1    4    4    0    0 -0.83677947698E-01  0.12978860607E-01 -0.25801385192E-01  0.88523569474E-01  0.51100000000E-03 0. -1.
         11    1    4    4    0    0 -0.37334191144E-01 -0.14778200253E-02 -0.23530160011E-01  0.44158298558E-01  0.51100000000E-03 0.  1.
</event>
<event>
 8    1  0.1088088E+005  0.1043930E+01  0.7957747E-01            NaN
         13   -1    0    0    0    0  0.00000000000E+00  0.00000000000E+00  0.74505805969E-08  0.10566000000E+00  0.10566000000E+00 0. -1.
     999900   -1    0    0    0    0 -0.00000000000E+00 -0.00000000000E+00 -0.74505805969E-08  0.93827000000E+00  0.93827000000E+00 0. -1.
     999902    2    1    2    0    0 -0.13583403536E-01 -0.32552312486E-02 -0.19301277326E-01  0.10201047049E+01  0.10198264383E+01 0.  0.
     999903    2    3    3    0    0  0.12452231845E+00  0.17003059231E-01 -0.21691804329E-01  0.12910004528E+00  0.20034357986E-01 0.  0.
         14    1    1    2    0    0  0.13583403536E-01  0.32552312486E-02  0.19301277326E-01  0.23825295141E-01  0.00000000000E+00 0.  1.
     999901    1    3    3    0    0 -0.13810572199E+00 -0.20258290480E-01  0.23905270025E-02  0.89100465958E+00  0.88000000000E+00 0.  1.
        -11    1    4    4    0    0  0.38839340167E-01  0.56710527615E-02 -0.16291405727E-01  0.42500896527E-01  0.51100000000E-03 0.  1.
         11    1    4    4    0    0  0.85682978283E-01  0.11332006470E-01 -0.54003986021E-02  0.86599148750E-01  0.51100000000E-03 0. -1.
</event>
<event>
 8    1  0.1088088E+005  0.1043930E+01  0.7957747E-01            NaN
         13   -1    0    0    0    0  0.00000000000E+00  0.00000000000E+00  0.74505805969E-08  0.10566000000E+00  0.10566000000E+00 0. -1.
     999900   -1    0    0    0    0 -0.00000000000E+00 -0.00000000000E+00 -0.74505805969E-08  0.93827000000E+00  0.93827000000E+00 0. -1.
     999902    2    1    2    0    0 -0.46968491408E-02 -0.13226375708E-01  0.13319969914E-01  0.10245800903E+01  0.10243973558E+01 0.  0.
     999903    2    3    3    0    0 -0.90626733087E-01 -0.85161650000E-01  0.55585877883E-01  0.13646690180E+00  0.82288569089E-02 0.  0.
         14    1    1    2    0    0  0.46968491408E-02  0.13226375708E-01 -0.13319969914E-01  0.19349909683E-01  0.00000000000E+00 0.  1.
     999901    1    3    3    0    0  0.85929883947E-01  0.71935274292E-01 -0.42265907969E-01  0.88811318852E+00  0.88000000000E+00 0. -1.
        -11    1    4    4    0    0 -0.59043870874E-01 -0.60613539886E-01  0.36957751224E-01  0.92338055004E-01  0.51100000000E-03 0. -1.
         11    1    4    4    0    0 -0.31582862213E-01 -0.24548110114E-01  0.18628126659E-01  0.44128846796E-01  0.51100000000E-03 0.  1.
</event>
<event>
 8    1  0.1088088E+005  0.1043930E+01  0.7957747E-01            NaN
         13   -1    0    0    0    0  0.00000000000E+00  0.00000000000E+00  0.74505805969E-08  0.10566000000E+00  0.10566000000E+00 0. -1.
     999900   -1    0    0    0    0 -0.00000000000E+00 -0.00000000000E+00 -0.74505805969E-08  0.93827000000E+00  0.93827000000E+00 0. -1.
     999902    2    1    2    0    0  0.18532664567E-01  0.12541057225E-01 -0.42403209259E-02  0.10211546165E+01  0.10209005988E+01 0.  0.
     999903    2    3    3    0    0 -0.99009443478E-01  0.51902448376E-01 -0.64141687681E-01  0.13045060280E+00  0.20161091890E-01 0.  0.
         14    1    1    2    0    0 -0.18532664567E-01 -0.12541057225E-01  0.42403209259E-02  0.22775383506E-01  0.00000000000E+00 0.  1.
     999901    1    3    3    0    0  0.11754210805E+00 -0.39361391150E-01  0.59901366755E-01  0.89070401370E+00  0.88000000000E+00 0. -1.
        -11    1    4    4    0    0 -0.47533102408E-01  0.34100146062E-01 -0.40005143067E-01  0.70872338601E-01  0.51100000000E-03 0.  1.
         11    1    4    4    0    0 -0.51476341070E-01  0.17802302313E-01 -0.24136544615E-01  0.59578264196E-01  0.51100000000E-03 0. -1.
</event>
<event>
 8    1  0.1088088E+005  0.1043930E+01  0.7957747E-01            NaN
         13   -1    0    0    0    0  0.00000000000E+00  0.00000000000E+00  0.74505805969E-08  0.10566000000E+00  0.10566000000E+00 0. -1.
     999900   -1    0    0    0    0 -0.00000000000E+00 -0.00000000000E+00 -0.74505805969E-08  0.93827000000E+00  0.93827000000E+00 0. -1.
     999902    2    1    2    0    0  0.13698640767E-01 -0.12366939465E-02 -0.18291352626E-01  0.10210442894E+01  0.10207877767E+01 0.  0.
     999903    2    3    3    0    0 -0.55946001627E-02  0.12609653229E+00  0.25788333638E-01  0.13057868172E+00  0.21310067102E-01 0.  0.
         14    1    1    2    0    0 -0.13698640767E-01  0.12366939465E-02  0.18291352626E-01  0.22885710644E-01  0.00000000000E+00 0. -1.
     999901    1    3    3    0    0  0.19293240929E-01 -0.12733322624E+00 -0.44079686265E-01  0.89046560764E+00  0.88000000000E+00 0. -1.
        -11    1    4    4    0    0 -0.10401063847E-01  0.66512460127E-01  0.59150941001E-02  0.67582090383E-01  0.51100000000E-03 0. -1.
         11    1    4    4    0    0  0.48064636839E-02  0.59584072164E-01  0.19873239538E-01  0.62996591333E-01  0.51100000000E-03 0.  1.
</event>
<event>
 8    1  0.1088088E+005  0.1043930E+01  0.7957747E-01            NaN
         13   -1    0    0    0    0  0.00000000000E+00  0.00000000000E+00  0.74505805969E-08  0.10566000000E+00  0.10566000000E+00 0.  1.
     999900   -1    0    0    0    0 -0.00000000000E+00 -0.00000000000E+00 -0.74505805969E-08  0.93827000000E+00  0.93827000000E+00 0.  1.
     999902    2    1    2    0    0  0.57215518371E-03  0.28923442752E-03 -0.23804909809E-01  0.10201164587E+01  0.10198384698E+01 0.  0.
     999903    2    3    3    0    0  0.10395240024E+00  0.63374526377E-01  0.39728334109E-01  0.12955275957E+00  0.19574086784E-01 0.  0.
         14    1    1    2    0    0 -0.57215518371E-03 -0.28923442752E-03  0.23804909809E-01  0.23813541297E-01  0.00000000000E+00 0.  1.
     999901    1    3    3    0    0 -0.10338024505E+00 -0.63085291949E-01 -0.63533243917E-01  0.89056369913E+00  0.88000000000E+00 0. -1.
        -11    1    4    4    0    0  0.54489820569E-01  0.29763109521E-01  0.30015477526E-01  0.68965014653E-01  0.51100000000E-03 0.  1.
         11    1    4    4    0    0  0.49462579666E-01  0.33611416856E-01  0.97128565822E-02  0.60587744918E-01  0.51100000000E-03 0. -1.
</event>
<event>
 8    1  0.1088088E+005  0.1043930E+01  0.7957747E-01            NaN
         13   -1    0    0    0    0  0.00000000000E+00  0.00000000000E+00  0.74505805969E-08  0.10566000000E+00  0.10566000000E+00 0.  1.
     999900   -1    0    0    0    0 -0.00000000000E+00 -0.00000000000E+00 -0.74505805969E-08  0.93827000000E+00  0.93827000000E+00 0. -1.
     999902    2    1    2    0    0 -0.23358635895E-01  0.12571223278E-01 -0.38939065593E-02  0.10171191061E+01  0.10167656819E+01 0.  0.
     999903    2    3    3    0    0  0.12276351955E-01  0.75625388765E-01 -0.10161271322E+00  0.12875282725E+00  0.19550928257E-01 0.  0.
         14    1    1    2    0    0  0.23358635895E-01 -0.12571223278E-01  0.38939065593E-02  0.26810893940E-01  0.00000000000E+00 0. -1.
     999901    1    3    3    0    0 -0.35634987850E-01 -0.63054165487E-01  0.97718806657E-01  0.88836627881E+00  0.88000000000E+00 0.  1.
        -11    1    4    4    0    0  0.12835647001E-01  0.51140975712E-01 -0.81437763126E-01  0.97018161262E-01  0.51100000000E-03 0. -1.
         11    1    4    4    0    0 -0.55929504633E-03  0.24484413053E-01 -0.20174950090E-01  0.31734665992E-01  0.51100000000E-03 0.  1.
</event>
<event>
 8    1  0.1088088E+005  0.1043930E+01  0.7957747E-01            NaN
         13   -1    0    0    0    0  0.00000000000E+00  0.00000000000E+00  0.74505805969E-08  0.10566000000E+00  0.10566000000E+00 0. -1.
     999900   -1    0    0    0    0 -0.00000000000E+00 -0.00000000000E+00 -0.74505805969E-08  0.93827000000E+00  0.93827000000E+00 0.  1.
     999902    2    1    2    0    0 -0.22129175858E-01  0.12051705157E-02 -0.73697710025E-02  0.10205747782E+01  0.10203075083E+01 0.  0.
     999903    2    3    3    0    0 -0.53302189239E-01 -0.10979397983E+00  0.38067192764E-01  0.13189199689E+00  0.32412131912E-01 0.  0.
         14    1    1    2    0    0  0.22129175858E-01 -0.12051705157E-02  0.73697710025E-02  0.23355221788E-01  0.00000000000E+00 0.  1.
     999901    1    3    3    0    0  0.31173013380E-01  0.11099915034E+00 -0.45436963766E-01  0.88868278132E+00  0.88000000000E+00 0.  1.
        -11    1    4    4    0    0 -0.66506583192E-02 -0.42078733179E-02  0.10640017375E-01  0.13244189091E-01  0.51100000000E-03 0. -1.
         11    1    4    4    0    0 -0.46651530919E-01 -0.10558610651E+00  0.27427175389E-01  0.11864780780E+00  0.51100000000E-03 0.  1.
</event>
<event>
 8    1  0.1088088E+005  0.1043930E+01  0.7957747E-01            NaN
         13   -1    0    0    0    0  0.00000000000E+00  0.00000000000E+00  0.74505805969E-08  0.10566000000E+00  0.10566000000E+00 0.  1.
     999900   -1    0    0    0    0 -0.00000000000E+00 -0.00000000000E+00 -0.74505805969E-08  0.93827000000E+00  0.93827000000E+00 0. -1.
     999902    2    1    2    0    0  0.14880622102E-01 -0.16413621146E-01  0.18833572817E-02  0.10216951870E+01  0.10214532139E+01 0.  0.
     999903    2    3    3    0    0  0.10272998476E+00  0.36592308468E-01  0.72439792863E-01  0.13292899185E+00  0.23024909880E-01 0.  0.
         14    1    1    2    0    0 -0.14880622102E-01  0.16413621146E-01 -0.18833572817E-02  0.22234812972E-01  0.00000000000E+00 0.  1.
     999901    1    3    3    0    0 -0.87849362661E-01 -0.53005929614E-01 -0.70556435582E-01  0.88876619518E+00  0.88000000000E+00 0. -1.
        -11    1    4    4    0    0  0.78546836750E-01  0.25872718283E-01  0.42524218228E-01  0.92992329639E-01  0.51100000000E-03 0.  1.
         11    1    4    4    0    0  0.24183148013E-01  0.10719590185E-01  0.29915574636E-01  0.39936662208E-01  0.51100000000E-03 0. -1.
</event>
<event>
 8    1  0.1088088E+005  0.1043930E+01  0.7957747E-01            NaN
         13   -1    0    0    0    0  0.00000000000E+00  0.00000000000E+00  0.74505805969E-08  0.10566000000E+00  0.10566000000E+00 0.  1.
     999900   -1    0    0    0    0 -0.00000000000E+00 -0.00000000000E+00 -0.74505805969E-08  0.93827000000E+00  0.93827000000E+00 0. -1.
     999902    2    1    2    0    0 -0.58478731898E-03 -0.22124333393E-01  0.10178699290E-01  0.10195694987E+01  0.10192784353E+01 0.  0.
     999903    2    3    3    0    0 -0.40178194840E-01 -0.12487535808E+00  0.30072629188E-02  0.13267782522E+00  0.19652462405E-01 0.  0.
         14    1    1    2    0    0  0.58478731898E-03  0.22124333393E-01 -0.10178699290E-01  0.24360501298E-01  0.00000000000E+00 0. -1.
     999901    1    3    3    0    0  0.39593407521E-01  0.10275102469E+00  0.71714363711E-02  0.88689167348E+00  0.88000000000E+00 0.  1.
        -11    1    4    4    0    0 -0.72963095105E-02 -0.45115588639E-01 -0.52738050118E-02  0.46007897268E-01  0.51100000000E-03 0.  1.
         11    1    4    4    0    0 -0.32881885329E-01 -0.79759769441E-01  0.82810679306E-02  0.86669927951E-01  0.51100000000E-03 0. -1.
</event>
<event>
 8    1  0.1088088E+005  0.1043930E+01  0.7957747E-01            NaN
         13   -1    0    0    0    0  0.00000000000E+00  0.00000000000E+00  0.74505805969E-08  0.10566000000E+00  0.10566000000E+00 0.  1.
     999900   -1    0    0    0    0 -0.00000000000E+00 -0.00000000000E+00 -0.74505805969E-08  0.93827000000E+00  0.93827000000E+00 0. -1.
     999902    2    1    2    0    0 -0.97659104688E-02 -0.72966544369E-02 -0.20156546866E-01  0.10203736727E+01  0.10201017260E+01 0.  0.
     999903    2    3    3    0    0 -0.41172092502E-01  0.11623167372E+00  0.34498838606E-01  0.12951296123E+00  0.19454924382E-01 0.  0.
         14    1    1    2    0    0  0.97659104688E-02  0.72966544369E-02  0.20156546866E-01  0.23556327278E-01  0.00000000000E+00 0.  1.
     999901    1    3    3    0    0  0.31406182033E-01 -0.12352832816E+00 -0.54655385472E-01  0.89086071150E+00  0.88000000000E+00 0. -1.
        -11    1    4    4    0    0 -0.16576614707E-01  0.29628860155E-01  0.28141579861E-02  0.34071015767E-01  0.51100000000E-03 0.  1.
         11    1    4    4    0    0 -0.24595477795E-01  0.86602813568E-01  0.31684680620E-01  0.95441945458E-01  0.51100000000E-03 0. -1.
</event>
<event>
 8    1  0.1088088E+005  0.1043930E+01  0.7957747E-01            NaN
         13   -1    0    0    0    0  0.00000000000E+00  0.00000000000E+00  0.74505805969E-08  0.10566000000E+00  0.10566000000E+00 0. -1.
     999900   -1    0    0    0    0 -0.00000000000E+00 -0.00000000000E+00 -0.74505805969E-08  0.93827000000E+00  0.93827000000E+00 0.  1.
     999902    2    1    2    0    0 -0.34143568753E-01 -0.16699844259E-01  0.70363806715E-03  0.10059146979E+01  0.10051961084E+01 0.  0.
     999903    2    3    3    0    0  0.29181768375E-01 -0.95156532741E-01  0.60425592118E-01  0.11814656261E+00  0.20025402464E-01 0.  0.
         14    1    1    2    0    0  0.34143568753E-01  0.16699844259E-01 -0.70363806715E-03  0.38015302077E-01  0.00000000000E+00 0. -1.
     999901    1    3    3    0    0 -0.63325337128E-01  0.78456688482E-01 -0.59721954051E-01  0.88776813532E+00  0.88000000000E+00 0.  1.
        -11    1    4    4    0    0  0.16414525814E-01 -0.40723128220E-01  0.37397742471E-01  0.57677223344E-01  0.51100000000E-03 0.  1.
         11    1    4    4    0    0  0.12767242561E-01 -0.54433404521E-01  0.23027849647E-01  0.60469339262E-01  0.51100000000E-03 0. -1.
</event>
<event>
 8    1  0.1088088E+005  0.1043930E+01  0.7957747E-01            NaN
         13   -1    0    0    0    0  0.00000000000E+00  0.00000000000E+00  0.74505805969E-08  0.10566000000E+00  0.10566000000E+00 0.  1.
     999900   -1    0    0    0    0 -0.00000000000E+00 -0.00000000000E+00 -0.74505805969E-08  0.93827000000E+00  0.93827000000E+00 0. -1.
     999902    2    1    2    0    0  0.74733728478E-02  0.22942765392E-01 -0.21382926249E-02  0.10197061671E+01  0.10194183994E+01 0.  0.
     999903    2    3    3    0    0  0.60838975155E-01 -0.77103241672E-01 -0.81159681081E-01  0.12891917186E+00  0.19671508965E-01 0.  0.
         14    1    1    2    0    0 -0.74733728478E-02 -0.22942765392E-01  0.21382926249E-02  0.24223832911E-01  0.00000000000E+00 0. -1.
     999901    1    3    3    0    0 -0.53365602307E-01  0.10004600706E+00  0.79021388457E-01  0.89078699523E+00  0.88000000000E+00 0.  1.
        -11    1    4    4    0    0  0.10978780364E-01 -0.26182330306E-01 -0.17473903952E-01  0.33341362883E-01  0.51100000000E-03 0.  1.
         11    1    4    4    0    0  0.49860194791E-01 -0.50920911366E-01 -0.63685777129E-01  0.95577808975E-01  0.51100000000E-03 0. -1.
</event>
<event>
 8    1  0.1088088E+005  0.1043930E+01  0.7957747E-01            NaN
         13   -1    0    0    0    0  0.00000000000E+00  0.00000000000E+00  0.74505805969E-08  0.10566000000E+00  0.10566000000E+00 0.  1.
     999900   -1    0    0    0    0 -0.00000000000E+00 -0.00000000000E+00 -0.74505805969E-08  0.93827000000E+00  0.93827000000E+00 0. -1.
     999902    2    1    2    0    0 -0.74526264325E-02 -0.16788775385E-01  0.14469364091E-01  0.10205469481E+01  0.10202790335E+01 0.  0.
     999903    2    3    3    0    0 -0.88240321346E-01  0.28919579255E-01 -0.88318539827E-01  0.12971516906E+00  0.20078949952E-01 0.  0.
         14    1    1    2    0    0  0.74526264325E-02  0.16788775385E-01 -0.14469364091E-01  0.23383051915E-01  0.00000000000E+00 0. -1.
     999901    1    3    3    0    0  0.80787694913E-01 -0.45708354640E-01  0.10278790392E+00  0.89083177903E+00  0.88000000000E+00 0.  1.
        -11    1    4    4    0    0 -0.83059303922E-01  0.21252253451E-01 -0.79764623581E-01  0.11710321320E+00  0.51100000000E-03 0.  1.
         11    1    4    4    0    0 -0.51810174237E-02  0.76673258045E-02 -0.85539162452E-02  0.12611955862E-01  0.51100000000E-03 0. -1.
</event>
<event>
 8    1  0.1088088E+005  0.1043930E+01  0.7957747E-01            NaN
         13   -1    0    0    0    0  0.00000000000E+00  0.00000000000E+00  0.74505805969E-08  0.10566000000E+00  0.10566000000E+00 0.  1.
     999900   -1    0    0    0    0 -0.00000000000E+00 -0.00000000000E+00 -0.74505805969E-08  0.93827000000E+00  0.93827000000E+00 0.  1.
     999902    2    1    2    0    0 -0.22544030853E-01 -0.48210117970E-02  0.23577050506E-02  0.10207560005E+01  0.10204929094E+01 0.  0.
     999903    2    3    3    0    0 -0.48022652311E-01  0.56156570526E-01 -0.10752770840E+00  0.13146289366E+00  0.16141523715E-01 0.  0.
         14    1    1    2    0    0  0.22544030853E-01  0.48210117970E-02 -0.23577050506E-02  0.23173999546E-01  0.00000000000E+00 0.  1.
     999901    1    3    3    0    0  0.25478621459E-01 -0.60977582323E-01  0.10988541345E+00  0.88929310679E+00  0.88000000000E+00 0. -1.
        -11    1    4    4    0    0 -0.14942730450E-01  0.18514881949E-01 -0.48550749798E-01  0.54069607672E-01  0.51100000000E-03 0. -1.
         11    1    4    4    0    0 -0.33079921862E-01  0.37641688577E-01 -0.58976958604E-01  0.77393285991E-01  0.51100000000E-03 0.  1.
</event>
<event>
 8    1  0.1088088E+005  0.1043930E+01  0.7957747E-01            NaN
         13   -1    0    0    0    0  0.00000000000E+00  0.00000000000E+00  0.74505805969E-08  0.10566000000E+00  0.10566000000E+00 0. -1.
     999900   -1    0    0    0    0 -0.00000000000E+00 -0.00000000000E+00 -0.74505805969E-08  0.93827000000E+00  0.93827000000E+00 0.  1.
     999902    2    1    2    0    0  0.12148838844E-01  0.49771486778E-02 -0.18898291401E-01  0.10209188785E+01  0.10206595146E+01 0.  0.
     999903    2    3    3    0    0 -0.67854123776E-01  0.98926681127E-01 -0.50424159262E-01  0.13175023927E+00  0.20612116763E-01 0.  0.
         14    1    1    2    0    0 -0.12148838844E-01 -0.49771486778E-02  0.18898291401E-01  0.23011121487E-01  0.00000000000E+00 0. -1.
     999901    1    3    3    0    0  0.80002962620E-01 -0.93949532449E-01  0.31525867861E-01  0.88916863925E+00  0.88000000000E+00 0.  1.
        -11    1    4    4    0    0 -0.28323860585E-01  0.26094389873E-01 -0.11509643273E-01  0.40198150089E-01  0.51100000000E-03 0.  1.
         11    1    4    4    0    0 -0.39530263190E-01  0.72832291254E-01 -0.38914515989E-01  0.91552089178E-01  0.51100000000E-03 0. -1.
</event>
<event>
 8    1  0.1088088E+005  0.1043930E+01  0.7957747E-01            NaN
         13   -1    0    0    0    0  0.00000000000E+00  0.00000000000E+00  0.74505805969E-08  0.10566000000E+00  0.10566000000E+00 0.  1.
     999900   -1    0    0    0    0 -0.00000000000E+00 -0.00000000000E+00 -0.74505805969E-08  0.93827000000E+00  0.93827000000E+00 0. -1.
     999902    2    1    2    0    0  0.18777379492E-01  0.27014790888E-02  0.18659698743E-01  0.10173203715E+01  0.10169723035E+01 0.  0.
     999903    2    3    3    0    0 -0.88619784025E-01  0.51837746184E-01  0.73384419019E-01  0.12774557508E+00  0.19825260355E-01 0.  0.
         14    1    1    2    0    0 -0.18777379492E-01 -0.27014790888E-02 -0.18659698743E-01  0.26609628465E-01  0.00000000000E+00 0. -1.
     999901    1    3    3    0    0  0.10739716352E+00 -0.49136267095E-01 -0.54724720275E-01  0.88957479645E+00  0.88000000000E+00 0.  1.
        -11    1    4    4    0    0 -0.39326876945E-01  0.13896990435E-01  0.36492912658E-01  0.55423130448E-01  0.51100000000E-03 0. -1.
         11    1    4    4    0    0 -0.49292907080E-01  0.37940755749E-01  0.36891506361E-01  0.72322444634E-01  0.51100000000E-03 0.  1.
</event>
<event>
 8    1  0.1088088E+005  0.1043930E+01  0.7957747E-01            NaN
         13   -1    0    0    0    0  0.00000000000E+00  0.00000000000E+00  0.74505805969E-08  0.10566000000E+00  0.10566000000E+00 0. -1.
     999900   -1    0    0    0    0 -0.00000000000E+00 -0.00000000000E+00 -0.74505805969E-08  0.93827000000E+00  0.93827000000E+00 0.  1.
     999902    2    1    2    0    0 -0.15359278959E-02  0.19597461647E-01 -0.13469032893E-01  0.10201007234E+01  0.10198223627E+01 0.  0.
     999903    2    3    3    0    0 -0.10004235188E+00 -0.11255301410E-01 -0.82203532959E-01  0.13140513992E+00  0.19358098732E-01 0.  0.
         14    1    1    2    0    0  0.15359278959E-02 -0.19597461647E-01  0.13469032893E-01  0.23829276628E-01  0.00000000000E+00 0. -1.
     999901    1    3    3    0    0  0.98506423982E-01  0.30852763058E-01  0.68734500066E-01  0.88869558346E+00  0.88000000000E+00 0. -1.
        -11    1    4    4    0    0 -0.73717022435E-01 -0.16769150859E-01 -0.59658158209E-01  0.96305559440E-01  0.51100000000E-03 0. -1.
         11    1    4    4    0    0 -0.26325329444E-01  0.55138494484E-02 -0.22545374750E-01  0.35099580477E-01  0.51100000000E-03 0.  1.
</event>
<event>
 8    1  0.1088088E+005  0.1043930E+01  0.7957747E-01            NaN
         13   -1    0    0    0    0  0.00000000000E+00  0.00000000000E+00  0.74505805969E-08  0.10566000000E+00  0.10566000000E+00 0. -1.
     999900   -1    0    0    0    0 -0.00000000000E+00 -0.00000000000E+00 -0.74505805969E-08  0.93827000000E+00  0.93827000000E+00 0. -1.
     999902    2    1    2    0    0  0.21603081579E-01 -0.62410685483E-02  0.16960426138E-02  0.10213795980E+01  0.10211306295E+01 0.  0.
     999903    2    3    3    0    0 -0.11500730146E+00  0.68088570985E-02  0.54813157139E-01  0.12916094476E+00  0.20125295797E-01 0.  0.
         14    1    1    2    0    0 -0.21603081579E-01  0.62410685483E-02 -0.16960426138E-02  0.22550402011E-01  0.00000000000E+00 0.  1.
     999901    1    3    3    0    0  0.13661038304E+00 -0.13049925647E-01 -0.53117114525E-01  0.89221865323E+00  0.88000000000E+00 0. -1.
        -11    1    4    4    0    0 -0.10286502769E+00  0.10658038904E-01  0.43782396902E-01  0.11230301472E+00  0.51100000000E-03 0. -1.
         11    1    4    4    0    0 -0.12142273774E-01 -0.38491818058E-02  0.11030760236E-01  0.16857930044E-01  0.51100000000E-03 0.  1.
</event>
<event>
 8    1  0.1088088E+005  0.1043930E+01  0.7957747E-01            NaN
         13   -1    0    0    0    0  0.00000000000E+00  0.00000000000E+00  0.74505805969E-08  0.10566000000E+00  0.10566000000E+00 0.  1.
     999900   -1    0    0    0    0 -0.00000000000E+00 -0.00000000000E+00 -0.74505805969E-08  0.93827000000E+00  0.93827000000E+00 0.  1.
     999902    2    1    2    0    0  0.79895447863E-02  0.16939472329E-01 -0.14446281697E-01  0.10202768056E+01  0.10200025914E+01 0.  0.
     999903    2    3    3    0    0  0.38658837637E-01 -0.94070369193E-01 -0.79163673725E-01  0.13041606863E+00  0.19943009584E-01 0.  0.
         14    1    1    2    0    0 -0.79895447863E-02 -0.16939472329E-01  0.14446281697E-01  0.23653194363E-01  0.00000000000E+00 0. -1.
     999901    1    3    3    0    0 -0.30669292851E-01  0.11100984152E+00  0.64717392027E-01  0.88986073701E+00  0.88000000000E+00 0. -1.
        -11    1    4    4    0    0  0.12953329305E-01 -0.56511603239E-01 -0.47767073985E-01  0.75121931011E-01  0.51100000000E-03 0.  1.
         11    1    4    4    0    0  0.25705508333E-01 -0.37558765955E-01 -0.31396599740E-01  0.55294137618E-01  0.51100000000E-03 0. -1.
</event>
<event>
 8    1  0.1088088E+005  0.1043930E+01  0.7957747E-01            NaN
         13   -1    0    0    0    0  0.00000000000E+00  0.00000000000E+00  0.74505805969E-08  0.10566000000E+00  0.10566000000E+00 0. -1.
     999900   -1    0    0    0    0 -0.00000000000E+00 -0.00000000000E+00 -0.74505805969E-08  0.93827000000E+00  0.93827000000E+00 0.  1.
     999902    2    1    2    0    0  0.22885997760E-01  0.49731067076E-02  0.57513990612E-03  0.10205028476E+01  0.10202339097E+01 0.  0.
     999903    2    3    3    0    0  0.11565255075E-01 -0.73728024872E-01  0.10622444034E+00  0.13062431543E+00  0.14474228123E-01 0.  0.
         14    1    1    2    0    0 -0.22885997760E-01 -0.49731067076E-02 -0.57513990612E-03  0.23427152403E-01  0.00000000000E+00 0.  1.
     999901    1    3    3    0    0  0.11320742685E-01  0.78701131580E-01 -0.10564930043E+00  0.88987853217E+00  0.88000000000E+00 0.  1.
        -11    1    4    4    0    0  0.11556086285E-03 -0.33175333191E-01  0.55687543310E-01  0.64822678805E-01  0.51100000000E-03 0. -1.
         11    1    4    4    0    0  0.11449694212E-01 -0.40552691682E-01  0.50536897031E-01  0.65801636626E-01  0.51100000000E-03 0.  1.
</event>
<event>
 8    1  0.1088088E+005  0.1043930E+01  0.7957747E-01            NaN
         13   -1    0    0    0    0  0.00000000000E+00  0.00000000000E+00  0.74505805969E-08  0.10566000000E+00  0.10566000000E+00 0. -1.
     999900   -1    0    0    0    0 -0.00000000000E+00 -0.00000000000E+00 -0.74505805969E-08  0.93827000000E+00  0.93827000000E+00 0. -1.
     999902    2    1    2    0    0 -0.17143268417E-01 -0.54047742448E-02  0.13805103616E-01  0.10212653994E+01  0.10210138744E+01 0.  0.
     999903    2    3    3    0    0  0.36929135782E-02  0.12898104102E+00 -0.19954585178E-02  0.13067943967E+00  0.20576383174E-01 0.  0.
         14    1    1    2    0    0  0.17143268417E-01  0.54047742448E-02 -0.13805103616E-01  0.22664600647E-01  0.00000000000E+00 0.  1.
     999901    1    3    3    0    0 -0.20836181995E-01 -0.13438581526E+00  0.15800562134E-01  0.89058595968E+00  0.88000000000E+00 0.  1.
        -11    1    4    4    0    0  0.11837493331E-02  0.37317205067E-01  0.87541063384E-02  0.38351930268E-01  0.51100000000E-03 0.  1.
         11    1    4    4    0    0  0.25091642451E-02  0.91663835951E-01 -0.10749564856E-01  0.92327509400E-01  0.51100000000E-03 0. -1.
</event>
<event>
 8    1  0.1088088E+005  0.1043930E+01  0.7957747E-01            NaN
         13   -1    0    0    0    0  0.00000000000E+00  0.00000000000E+00  0.74505805969E-08  0.10566000000E+00  0.10566000000E+00 0. -1.
     999900   -1    0    0    0    0 -0.00000000000E+00 -0.00000000000E+00 -0.74505805969E-08  0.93827000000E+00  0.93827000000E+00 0.  1.
     999902    2    1    2    0    0 -0.21287542150E-01 -0.59345436312E-02  0.69979556867E-02  0.10207491967E+01  0.10204859494E+01 0.  0.
     999903    2    3    3    0    0 -0.59660472404E-01 -0.50295355608E-01  0.10614617007E+00  0.13324103794E+00  0.19929124560E-01 0.  0.
         14    1    1    2    0    0  0.21287542150E-01  0.59345436312E-02 -0.69979556867E-02  0.23180803322E-01  0.00000000000E+00 0. -1.
     999901    1    3    3    0    0  0.38372930254E-01  0.44360811976E-01 -0.99148214388E-01  0.88750815874E+00  0.88000000000E+00 0.  1.
        -11    1    4    4    0    0 -0.18793314273E-01 -0.11364907351E-01  0.17216822221E-01  0.27911106550E-01  0.51100000000E-03 0.  1.
         11    1    4    4    0    0 -0.40867158130E-01 -0.38930448257E-01  0.88929347854E-01  0.10532993139E+00  0.51100000000E-03 0. -1.
</event>
<event>
 8    1  0.1088088E+005  0.1043930E+01  0.7957747E-01            NaN
         13   -1    0    0    0    0  0.00000000000E+00  0.00000000000E+00  0.74505805969E-08  0.10566000000E+00  0.10566000000E+00 0. -1.
     999900   -1    0    0    0    0 -0.00000000000E+00 -0.00000000000E+00 -0.74505805969E-08  0.93827000000E+00  0.93827000000E+00 0. -1.
     999902    2    1    2    0    0 -0.22966900930E-01  0.40666476232E-02 -0.50975775828E-02  0.10200552967E+01  0.10197758611E+01 0.  0.
     999903    2    3    3    0    0 -0.11419103016E+00 -0.52895020217E-01  0.37798629036E-01  0.13247062022E+00  0.16800426511E-01 0.  0.
         14    1    1    2    0    0  0.22966900930E-01 -0.40666476232E-02  0.50975775828E-02  0.23874703316E-01  0.00000000000E+00 0. -1.
     999901    1    3    3    0    0  0.91224129230E-01  0.56961667840E-01 -0.42896206619E-01  0.88758467647E+00  0.88000000000E+00 0.  1.
        -11    1    4    4    0    0 -0.89467529927E-01 -0.38751997367E-01  0.22216265035E-01  0.99999898822E-01  0.51100000000E-03 0. -1.
         11    1    4    4    0    0 -0.24723500232E-01 -0.14143022850E-01  0.15582364001E-01  0.32470721395E-01  0.51100000000E-03 0.  1.
</event>
<event>
 8    1  0.1088088E+005  0.1043930E+01  0.7957747E-01            NaN
         13   -1    0    0    0    0  0.00000000000E+00  0.00000000000E+00  0.74505805969E-08  0.10566000000E+00  0.10566000000E+00 0.  1.
     999900   -1    0    0    0    0 -0.00000000000E+00 -0.00000000000E+00 -0.74505805969E-08  0.93827000000E+00  0.93827000000E+00 0. -1.
     999902    2    1    2    0    0 -0.61070303470E-02  0.22505059558E-01  0.51051232438E-02  0.10200587661E+01  0.10197794126E+01 0.  0.
     999903    2    3    3    0    0  0.55165869047E-01  0.66064402373E-01 -0.96044885023E-01  0.13108007752E+00  0.23443302137E-01 0.  0.
         14    1    1    2    0    0  0.61070303470E-02 -0.22505059558E-01 -0.51051232438E-02  0.23871233917E-01  0.00000000000E+00 0. -1.
     999901    1    3    3    0    0 -0.61272899394E-01 -0.43559342815E-01  0.10115000827E+00  0.88897868856E+00  0.88000000000E+00 0.  1.
        -11    1    4    4    0    0  0.31306148955E-01  0.19622548069E-01 -0.37920610884E-01  0.52946701558E-01  0.51100000000E-03 0.  1.
         11    1    4    4    0    0  0.23859720093E-01  0.46441854304E-01 -0.58124274139E-01  0.78133375963E-01  0.51100000000E-03 0. -1.
</event>
<event>
 8    1  0.1088088E+005  0.1043930E+01  0.7957747E-01            NaN
         13   -1    0    0    0    0  0.00000000000E+00  0.00000000000E+00  0.74505805969E-08  0.10566000000E+00  0.10566000000E+00 0.  1.
     999900   -1    0    0    0    0 -0.00000000000E+00 -0.00000000000E+00 -0.74505805969E-08  0.93827000000E+00  0.93827000000E+00 0. -1.
     999902    2    1    2    0    0  0.15736980328E-01  0.13047577727E-02  0.16379835391E-01  0.10211779902E+01  0.10209244995E+01 0.  0.
     999903    2    3    3    0    0  0.12815101460E+00  0.18253863415E-01 -0.22958236318E-01  0.13299350983E+00  0.20107385952E-01 0.  0.
         14    1    1    2    0    0 -0.15736980328E-01 -0.13047577727E-02 -0.16379835391E-01  0.22752009804E-01  0.00000000000E+00 0. -1.
     999901    1    3    3    0    0 -0.11241403427E+00 -0.16949105642E-01  0.39338071709E-01  0.88818448037E+00  0.88000000000E+00 0.  1.
        -11    1    4    4    0    0  0.41936659424E-01 -0.17497586809E-02 -0.12922211124E-01  0.43920265487E-01  0.51100000000E-03 0. -1.
         11    1    4    4    0    0  0.86214355172E-01  0.20003622096E-01 -0.10036025194E-01  0.89073244340E-01  0.51100000000E-03 0.  1.
</event>
<event>
 8    1  0.1985804E+005  0.1043930E+01  0.7957747E-01            NaN
         13   -1    0    0    0    0  0.00000000000E+00  0.00000000000E+00  0.74505805969E-08  0.10566000000E+00  0.10566000000E+00 0.  1.
     999900   -1    0    0    0    0 -0.00000000000E+00 -0.00000000000E+00 -0.74505805969E-08  0.93827000000E+00  0.93827000000E+00 0. -1.
     999902    2    1    2    0    0 -0.11989361230E-02  0.16866503609E-01 -0.16083654760E-01  0.10205933262E+01  0.10203264856E+01 0.  0.
     999903    2    3    3    0    0  0.13840777828E-01  0.21638974761E-02 -0.13066330264E+00  0.13291610149E+00  0.19938450220E-01 0.  0.
         14    1    1    2    0    0  0.11989361230E-02 -0.16866503609E-01  0.16083654760E-01  0.23336673762E-01  0.00000000000E+00 0.  1.
     999901    1    3    3    0    0 -0.15039713951E-01  0.14702606133E-01  0.11457964788E+00  0.88767722474E+00  0.88000000000E+00 0.  1.
        -11    1    4    4    0    0  0.12397673097E-01 -0.75548971800E-02 -0.78735035340E-01  0.80064009896E-01  0.51100000000E-03 0.  1.
         11    1    4    4    0    0  0.14431047312E-02  0.97187946561E-02 -0.51928267297E-01  0.52852091598E-01  0.51100000000E-03 0. -1.
</event>
<event>
 8    1  0.1088088E+005  0.1043930E+01  0.7957747E-01            NaN
         13   -1    0    0    0    0  0.00000000000E+00  0.00000000000E+00  0.74505805969E-08  0.10566000000E+00  0.10566000000E+00 0.  1.
     999900   -1    0    0    0    0 -0.00000000000E+00 -0.00000000000E+00 -0.74505805969E-08  0.93827000000E+00  0.93827000000E+00 0.  1.
     999902    2    1    2    0    0 -0.20099771113E-01 -0.17104858586E-02 -0.11991201403E-01  0.10204626722E+01  0.10201928004E+01 0.  0.
     999903    2    3    3    0    0 -0.62029212048E-01 -0.96106152561E-01 -0.63961553259E-01  0.13289885067E+00  0.22068269214E-01 0.  0.
         14    1    1    2    0    0  0.20099771113E-01  0.17104858586E-02  0.11991201403E-01  0.23467327750E-01  0.00000000000E+00 0.  1.
     999901    1    3    3    0    0  0.41929440935E-01  0.94395666702E-01  0.51970351856E-01  0.88756382158E+00  0.88000000000E+00 0. -1.
        -11    1    4    4    0    0 -0.33155183726E-01 -0.32738987728E-01 -0.21325627172E-01  0.51245985410E-01  0.51100000000E-03 0. -1.
         11    1    4    4    0    0 -0.28874028322E-01 -0.63367164833E-01 -0.42635926086E-01  0.81652865257E-01  0.51100000000E-03 0.  1.
</event>
<event>
 8    1  0.1088088E+005  0.1043930E+01  0.7957747E-01            NaN
         13   -1    0    0    0    0  0.00000000000E+00  0.00000000000E+00  0.74505805969E-08  0.10566000000E+00  0.10566000000E+00 0.  1.
     999900   -1    0    0    0    0 -0.00000000000E+00 -0.00000000000E+00 -0.74505805969E-08  0.93827000000E+00  0.93827000000E+00 0.  1.
     999902    2    1    2    0    0  0.67747577658E-02 -0.17461772226E-01 -0.14055939695E-01  0.10205124794E+01  0.10202437651E+01 0.  0.
     999903    2    3    3    0    0 -0.88317463383E-01  0.64175591820E-01  0.64581496637E-01  0.12816107093E+00  0.18330561127E-01 0.  0.
         14    1    1    2    0    0 -0.67747577658E-02  0.17461772226E-01  0.14055939695E-01  0.23417520637E-01  0.00000000000E+00 0.  1.
     999901    1    3    3    0    0  0.95092221149E-01 -0.81637364046E-01 -0.78637436333E-01  0.89235140843E+00  0.88000000000E+00 0.  1.
        -11    1    4    4    0    0 -0.23326667828E-01  0.86288711960E-02  0.10538550766E-01  0.27016902549E-01  0.51100000000E-03 0. -1.
         11    1    4    4    0    0 -0.64990795555E-01  0.55546720624E-01  0.54042945871E-01  0.10114416839E+00  0.51100000000E-03 0.  1.
</event>
<event>
 8    1  0.1088088E+005  0.1043930E+01  0.7957747E-01            NaN
         13   -1    0    0    0    0  0.00000000000E+00  0.00000000000E+00  0.74505805969E-08  0.10566000000E+00  0.10566000000E+00 0.  1.
     999900   -1    0    0    0    0 -0.00000000000E+00 -0.00000000000E+00 -0.74505805969E-08  0.93827000000E+00  0.93827000000E+00 0. -1.
     999902    2    1    2    0    0 -0.12842452754E-01  0.13225152325E-02 -0.20227875457E-01  0.10199332380E+01  0.10196509037E+01 0.  0.
     999903    2    3    3    0    0  0.84739940832E-01 -0.58747533089E-01 -0.77736627445E-01  0.13064251459E+00  0.19807906427E-01 0.  0.
         14    1    1    2    0    0  0.12842452754E-01 -0.13225152325E-02  0.20227875457E-01  0.23996761964E-01  0.00000000000E+00 0.  1.
     999901    1    3    3    0    0 -0.97582393585E-01  0.60070048321E-01  0.57508751988E-01  0.88929072344E+00  0.88000000000E+00 0.  1.
        -11    1    4    4    0    0  0.30735197488E-01 -0.11095164968E-01 -0.28862363437E-01  0.43601057263E-01  0.51100000000E-03 0. -1.
         11    1    4    4    0    0  0.54004743344E-01 -0.47652368121E-01 -0.48874264008E-01  0.87041457332E-01  0.51100000000E-03 0.  1.
</event>
<event>
 8    1  0.1088088E+005  0.1043930E+01  0.7957747E-01            NaN
         13   -1    0    0    0    0  0.00000000000E+00  0.00000000000E+00  0.74505805969E-08  0.10566000000E+00  0.10566000000E+00 0.  1.
     999900   -1    0    0    0    0 -0.00000000000E+00 -0.00000000000E+00 -0.74505805969E-08  0.93827000000E+00  0.93827000000E+00 0. -1.
     999902    2    1    2    0    0 -0.28264034361E-02 -0.29229924183E-02  0.22119466772E-01  0.10214399299E+01  0.10211923067E+01 0.  0.
     999903    2    3    3    0    0  0.35961131835E-01 -0.45664287579E-01  0.11971311906E+00  0.13416555740E+00  0.17050975173E-01 0.  0.
         14    1    1    2    0    0  0.28264034361E-02  0.29229924183E-02 -0.22119466772E-01  0.22490070061E-01  0.00000000000E+00 0. -1.
     999901    1    3    3    0    0 -0.38787535271E-01  0.42741295161E-01 -0.97593652284E-01  0.88727437254E+00  0.88000000000E+00 0. -1.
        -11    1    4    4    0    0  0.10199619727E-01 -0.53628564854E-02  0.14044007804E-01  0.18173820414E-01  0.51100000000E-03 0.  1.
         11    1    4    4    0    0  0.25761512108E-01 -0.40301431094E-01  0.10566911125E+00  0.11599173698E+00  0.51100000000E-03 0. -1.
</event>
<event>
 8    1  0.1088088E+005  0.1043930E+01  0.7957747E-01            NaN
         13   -1    0    0    0    0  0.00000000000E+00  0.00000000000E+00  0.74505805969E-08  0.10566000000E+00  0.10566000000E+00 0. -1.
     999900   -1    0    0    0    0 -0.00000000000E+00 -0.00000000000E+00 -0.74505805969E-08  0.93827000000E+00  0.93827000000E+00 0. -1.
     999902    2    1    2    0    0  0.17575683343E-01  0.11417958226E-01  0.10884384302E-01  0.10203133907E+01  0.10200400340E+01 0.  0.
     999903    2    3    3    0    0  0.10695952732E+00  0.85408043877E-02  0.76601212886E-01  0.13334301284E+00  0.19983178768E-01 0.  0.
         14    1    1    2    0    0 -0.17575683343E-01 -0.11417958226E-01 -0.10884384302E-01  0.23616609338E-01  0.00000000000E+00 0.  1.
     999901    1    3    3    0    0 -0.89383843974E-01  0.28771538380E-02 -0.65716828585E-01  0.88697037782E+00  0.88000000000E+00 0. -1.
        -11    1    4    4    0    0  0.76398720478E-01  0.14599467034E-01  0.58299695126E-01  0.97206092922E-01  0.51100000000E-03 0. -1.
         11    1    4    4    0    0  0.30560806839E-01 -0.60586626462E-02  0.18301517760E-01  0.36136919916E-01  0.51100000000E-03 0.  1.
</event>
<event>
 8    1  0.1088088E+005  0.1043930E+01  0.7957747E-01            NaN
         13   -1    0    0    0    0  0.00000000000E+00  0.00000000000E+00  0.74505805969E-08  0.10566000000E+00  0.10566000000E+00 0. -1.
     999900   -1    0    0    0    0 -0.00000000000E+00 -0.00000000000E+00 -0.74505805969E-08  0.93827000000E+00  0.93827000000E+00 0.  1.
     999902    2    1    2    0    0 -0.76874574394E-02  0.15859767239E-01  0.15771842975E-01  0.10202787791E+01  0.10200046112E+01 0.  0.
     999903    2    3    3    0    0  0.11569331144E+00 -0.52874106431E-01 -0.32046741470E-02  0.12881522533E+00  0.20061876736E-01 0.  0.
         14    1    1    2    0    0  0.76874574394E-02 -0.15859767239E-01 -0.15771842975E-01  0.23651220890E-01  0.00000000000E+00 0.  1.
     999901    1    3    3    0    0 -0.12338076888E+00  0.68733873671E-01  0.18976517122E-01  0.89146355378E+00  0.88000000000E+00 0.  1.
        -11    1    4    4    0    0  0.74407241738E-01 -0.24587958481E-01 -0.66490555760E-02  0.78647799628E-01  0.51100000000E-03 0.  1.
         11    1    4    4    0    0  0.41286069698E-01 -0.28286147950E-01  0.34443814290E-02  0.50167425700E-01  0.51100000000E-03 0. -1.
</event>
<event>
 8    1  0.1088088E+005  0.1043930E+01  0.7957747E-01            NaN
         13   -1    0    0    0    0  0.00000000000E+00  0.00000000000E+00  0.74505805969E-08  0.10566000000E+00  0.10566000000E+00 0.  1.
     999900   -1    0    0    0    0 -0.00000000000E+00 -0.00000000000E+00 -0.74505805969E-08  0.93827000000E+00  0.93827000000E+00 0.  1.
     999902    2    1    2    0    0  0.13709327734E-01 -0.12920642247E-01 -0.15393780840E-01  0.10196018856E+01  0.10193116049E+01 0.  0.
     999903    2    3    3    0    0  0.10264879062E+00 -0.25304166204E-01 -0.77972764164E-01  0.13282135530E+00  0.19613399185E-01 0.  0.
         14    1    1    2    0    0 -0.13709327734E-01  0.12920642247E-01  0.15393780840E-01  0.24328114426E-01  0.00000000000E+00 0.  1.
     999901    1    3    3    0    0 -0.88939462890E-01  0.12383523957E-01  0.62578983324E-01  0.88678053028E+00  0.88000000000E+00 0.  1.
        -11    1    4    4    0    0  0.33120708491E-01 -0.15562164906E-01 -0.34160937323E-01  0.50063889854E-01  0.51100000000E-03 0.  1.
         11    1    4    4    0    0  0.69528082132E-01 -0.97420012983E-02 -0.43811826841E-01  0.82757465442E-01  0.51100000000E-03 0. -1.
</event>
<event>
 8    1  0.1088088E+005  0.1043930E+01  0.7957747E-01            NaN
         13   -1    0    0    0    0  0.00000000000E+00  0.00000000000E+00  0.74505805969E-08  0.10566000000E+00  0.10566000000E+00 0. -1.
     999900   -1    0    0    0    0 -0.00000000000E+00 -0.00000000000E+00 -0.74505805969E-08  0.93827000000E+00  0.93827000000E+00 0. -1.
     999902    2    1    2    0    0  0.34441335925E-02  0.51618020274E-02  0.23135868743E-01  0.10199764057E+01  0.10196950983E+01 0.  0.
     999903    2    3    3    0    0 -0.76464089910E-01 -0.76579396983E-01 -0.65710806306E-01  0.12814644465E+00  0.19810101536E-01 0.  0.
         14    1    1    2    0    0 -0.34441335925E-02 -0.51618020274E-02 -0.23135868743E-01  0.23953594279E-01  0.00000000000E+00 0.  1.
     999901    1    3    3    0    0  0.79908223502E-01  0.81741199011E-01  0.88846675049E-01  0.89182996107E+00  0.88000000000E+00 0.  1.
        -11    1    4    4    0    0 -0.38915601883E-01 -0.52627503295E-01 -0.40333466627E-01  0.76883859321E-01  0.51100000000E-03 0.  1.
         11    1    4    4    0    0 -0.37548488027E-01 -0.23951893688E-01 -0.25377339679E-01  0.51262585328E-01  0.51100000000E-03 0. -1.
</event>
<event>
 8    1  0.1088088E+005  0.1043930E+01  0.7957747E-01            NaN
         13   -1    0    0    0    0  0.00000000000E+00  0.00000000000E+00  0.74505805969E-08  0.10566000000E+00  0.10566000000E+00 0.  1.
     999900   -1    0    0    0    0 -0.00000000000E+00 -0.00000000000E+00 -0.74505805969E-08  0.93827000000E+00  0.93827000000E+00 0. -1.
     999902    2    1    2    0    0  0.21592128429E-01  0.72627162981E-02  0.50035234578E-02  0.10206061430E+01  0.10203395988E+01 0.  0.
     999903    2    3    3    0    0 -0.26835587012E-01 -0.82532791403E-01  0.94975957049E-01  0.13015484415E+00  0.19698747456E-01 0.  0.
         14    1    1    2    0    0 -0.21592128429E-01 -0.72627162981E-02 -0.50035234578E-02  0.23323856995E-01  0.00000000000E+00 0. -1.
     999901    1    3    3    0    0  0.48427715441E-01  0.89795507701E-01 -0.89972433591E-01  0.89045129885E+00  0.88000000000E+00 0. -1.
        -11    1    4    4    0    0 -0.12902478440E-01 -0.60897167505E-01  0.75638971305E-01  0.97961492747E-01  0.51100000000E-03 0.  1.
         11    1    4    4    0    0 -0.13933108572E-01 -0.21635623898E-01  0.19336985743E-01  0.32193351403E-01  0.51100000000E-03 0. -1.
</event>
<event>
 8    1  0.1088088E+005  0.1043930E+01  0.7957747E-01            NaN
         13   -1    0    0    0    0  0.00000000000E+00  0.00000000000E+00  0.74505805969E-08  0.10566000000E+00  0.10566000000E+00 0.  1.
     999900   -1    0    0    0    0 -0.00000000000E+00 -0.00000000000E+00 -0.74505805969E-08  0.93827000000E+00  0.93827000000E+00 0. -1.
     999902    2    1    2    0    0 -0.10504160405E-01 -0.20733747291E-01 -0.47354234913E-03  0.10206824215E+01  0.10204176379E+01 0.  0.
     999903    2    3    3    0    0 -0.11881283656E+00  0.44013781944E-01 -0.24614269768E-01  0.13135358100E+00  0.24376173452E-01 0.  0.
         14    1    1    2    0    0  0.10504160405E-01  0.20733747291E-01  0.47354234913E-03  0.23247578474E-01  0.00000000000E+00 0.  1.
     999901    1    3    3    0    0  0.10830867616E+00 -0.64747529235E-01  0.24140727419E-01  0.88932884053E+00  0.88000000000E+00 0. -1.
        -11    1    4    4    0    0 -0.10355671678E+00  0.44701193393E-01 -0.26756638617E-01  0.11592397989E+00  0.51100000000E-03 0. -1.
         11    1    4    4    0    0 -0.15256119780E-01 -0.68741144934E-03  0.21423688483E-02  0.15429601113E-01  0.51100000000E-03 0.  1.
</event>
<event>
 8    1  0.1088088E+005  0.1043930E+01  0.7957747E-01            NaN
         13   -1    0    0    0    0  0.00000000000E+00  0.00000000000E+00  0.74505805969E-08  0.10566000000E+00  0.10566000000E+00 0. -1.
     999900   -1    0    0    0    0 -0.00000000000E+00 -0.00000000000E+00 -0.74505805969E-08  0.93827000000E+00  0.93827000000E+00 0.  1.
     999902    2    1    2    0    0 -0.63707472220E-02 -0.30722810906E-03 -0.22429771936E-01  0.10206110061E+01  0.10203445743E+01 0.  0.
     999903    2    3    3    0    0  0.88284029957E-01 -0.42660469825E-01  0.80885381315E-01  0.12851944976E+00  0.18995221125E-01 0.  0.
         14    1    1    2    0    0  0.63707472220E-02  0.30722810906E-03  0.22429771936E-01  0.23318993940E-01  0.00000000000E+00 0. -1.
     999901    1    3    3    0    0 -0.94654777179E-01  0.42353241716E-01 -0.10331515325E+00  0.89209155630E+00  0.88000000000E+00 0.  1.
        -11    1    4    4    0    0  0.14901903658E-01 -0.10222214803E-02  0.17345450479E-01  0.22896232064E-01  0.51100000000E-03 0. -1.
         11    1    4    4    0    0  0.73382126299E-01 -0.41638248344E-01  0.63539930836E-01  0.10562321770E+00  0.51100000000E-03 0.  1.
</event>
<event>
 8    1  0.1088088E+005  0.1043930E+01  0.7957747E-01            NaN
         13   -1    0    0    0    0  0.00000000000E+00  0.00000000000E+00  0.74505805969E-08  0.10566000000E+00  0.10566000000E+00 0.  1.
     999900   -1    0    0    0    0 -0.00000000000E+00 -0.00000000000E+00 -0.74505805969E-08  0.93827000000E+00  0.93827000000E+00 0. -1.
     999902    2    1    2    0    0  0.70560801583E-02  0.40810798143E-02 -0.22363929361E-01  0.10201268738E+01  0.10198491309E+01 0.  0.
     999903    2    3    3    0    0 -0.15373415498E-01  0.11372815275E+00 -0.63392158172E-01  0.13209034392E+00  0.16089083468E-01 0.  0.
         14    1    1    2    0    0 -0.70560801583E-02 -0.40810798143E-02  0.22363929361E-01  0.23803126184E-01  0.00000000000E+00 0.  1.
     999901    1    3    3    0    0  0.22429495657E-01 -0.10964707293E+00  0.41028228811E-01  0.88803652990E+00  0.88000000000E+00 0.  1.
        -11    1    4    4    0    0 -0.30586345863E-02  0.48961860630E-01 -0.19007302250E-01  0.52613284461E-01  0.51100000000E-03 0. -1.
         11    1    4    4    0    0 -0.12314780912E-01  0.64766292116E-01 -0.44384855922E-01  0.79477059455E-01  0.51100000000E-03 0.  1.
</event>
<event>
 8    1  0.1088088E+005  0.1043930E+01  0.7957747E-01            NaN
         13   -1    0    0    0    0  0.00000000000E+00  0.00000000000E+00  0.74505805969E-08  0.10566000000E+00  0.10566000000E+00 0.  1.
     999900   -1    0    0    0    0 -0.00000000000E+00 -0.00000000000E+00 -0.74505805969E-08  0.93827000000E+00  0.93827000000E+00 0.  1.
     999902    2    1    2    0    0  0.15986237047E-02 -0.11272353400E-01  0.20863455164E-01  0.10201622632E+01  0.10198853553E+01 0.  0.
     999903    2    3    3    0    0  0.87878934230E-01  0.49215666968E-01 -0.74566468678E-01  0.12875328699E+00  0.29535769881E-01 0.  0.
         14    1    1    2    0    0 -0.15986237047E-02  0.11272353400E-01 -0.20863455164E-01  0.23767736752E-01  0.00000000000E+00 0. -1.
     999901    1    3    3    0    0 -0.86280310526E-01 -0.60488020368E-01  0.95429923843E-01  0.89140897626E+00  0.88000000000E+00 0. -1.
        -11    1    4    4    0    0  0.17269169350E-01  0.14803777486E-01 -0.32429804340E-01  0.39614762002E-01  0.51100000000E-03 0. -1.
         11    1    4    4    0    0  0.70609764881E-01  0.34411889482E-01 -0.42136664338E-01  0.89138524986E-01  0.51100000000E-03 0.  1.
</event>
<event>
 8    1  0.1088088E+005  0.1043930E+01  0.7957747E-01            NaN
         13   -1    0    0    0    0  0.00000000000E+00  0.00000000000E+00  0.74505805969E-08  0.10566000000E+00  0.10566000000E+00 0. -1.
     999900   -1    0    0    0    0 -0.00000000000E+00 -0.00000000000E+00 -0.74505805969E-08  0.93827000000E+00  0.93827000000E+00 0.  1.
     999902    2    1    2    0    0  0.16099506552E-01  0.27068878484E-02  0.15537928721E-01  0.10213922853E+01  0.10211436001E+01 0.  0.
     999903    2    3    3    0    0  0.52068065268E-01  0.12945431548E-01  0.12158194321E+00  0.13423733946E+00  0.18942723467E-01 0.  0.
         14    1    1    2    0    0 -0.16099506552E-01 -0.27068878484E-02 -0.15537928721E-01  0.22537714657E-01  0.00000000000E+00 0.  1.
     999901    1    3    3    0    0 -0.35968558716E-01 -0.10238543699E-01 -0.10604401449E+00  0.88715494588E+00  0.88000000000E+00 0.  1.
        -11    1    4    4    0    0  0.32121355606E-01 -0.10151564610E-02  0.76975439888E-01  0.83416374265E-01  0.51100000000E-03 0. -1.
         11    1    4    4    0    0  0.19946709662E-01  0.13960588009E-01  0.44606503321E-01  0.50820965196E-01  0.51100000000E-03 0.  1.
</event>
<event>
 8    1  0.1088088E+005  0.1043930E+01  0.7957747E-01            NaN
         13   -1    0    0    0    0  0.00000000000E+00  0.00000000000E+00  0.74505805969E-08  0.10566000000E+00  0.10566000000E+00 0. -1.
     999900   -1    0    0    0    0 -0.00000000000E+00 -0.00000000000E+00 -0.74505805969E-08  0.93827000000E+00  0.93827000000E+00 0.  1.
     999902    2    1    2    0    0  0.11343274872E-01 -0.34547569028E-02  0.23463254315E-01  0.10176406574E+01  0.10173010263E+01 0.  0.
     999903    2    3    3    0    0 -0.42990273565E-01 -0.49385390571E-01  0.11034577303E+00  0.13050463084E+00  0.23836707467E-01 0.  0.
         14    1    1    2    0    0 -0.11343274872E-01  0.34547569028E-02 -0.23463254315E-01  0.26289342577E-01  0.00000000000E+00 0.  1.
     999901    1    3    3    0    0  0.54333548437E-01  0.45930633668E-01 -0.86882518717E-01  0.88713602658E+00  0.88000000000E+00 0.  1.
        -11    1    4    4    0    0 -0.81054558793E-02 -0.13466893872E-01  0.48171822021E-01  0.50673871013E-01  0.51100000000E-03 0. -1.
         11    1    4    4    0    0 -0.34884817686E-01 -0.35918496699E-01  0.62173951011E-01  0.79830759832E-01  0.51100000000E-03 0.  1.
</event>
<event>
 8    1  0.1088088E+005  0.1043930E+01  0.7957747E-01            NaN
         13   -1    0    0    0    0  0.00000000000E+00  0.00000000000E+00  0.74505805969E-08  0.10566000000E+00  0.10566000000E+00 0. -1.
     999900   -1    0    0    0    0 -0.00000000000E+00 -0.00000000000E+00 -0.74505805969E-08  0.93827000000E+00  0.93827000000E+00 0. -1.
     999902    2    1    2    0    0 -0.20511426318E-01  0.10750052203E-01 -0.55781186687E-02  0.10201098900E+01  0.10198317460E+01 0.  0.
     999903    2    3    3    0    0 -0.95200666418E-01  0.29012069663E-01 -0.86181644544E-01  0.13308739185E+00  0.19496434020E-01 0.  0.
         14    1    1    2    0    0  0.20511426318E-01 -0.10750052203E-01  0.55781186687E-02  0.23820109988E-01  0.00000000000E+00 0. -1.
     999901    1    3    3    0    0  0.74689240100E-01 -0.18262017460E-01  0.80603525876E-01  0.88702249817E+00  0.88000000000E+00 0.  1.
        -11    1    4    4    0    0 -0.38078625078E-01  0.18924068266E-01 -0.27915838665E-01  0.50869020209E-01  0.51100000000E-03 0. -1.
         11    1    4    4    0    0 -0.57122041339E-01  0.10088001397E-01 -0.58265805879E-01  0.82218371637E-01  0.51100000000E-03 0.  1.
</event>
<event>
 8    1  0.1088088E+005  0.1043930E+01  0.7957747E-01            NaN
         13   -1    0    0    0    0  0.00000000000E+00  0.00000000000E+00  0.74505805969E-08  0.10566000000E+00  0.10566000000E+00 0.  1.
     999900   -1    0    0    0    0 -0.00000000000E+00 -0.00000000000E+00 -0.74505805969E-08  0.93827000000E+00  0.93827000000E+00 0. -1.
     999902    2    1    2    0    0 -0.75161642111E-02  0.18440451864E-01  0.13240342143E-01  0.10200166220E+01  0.10197362695E+01 0.  0.
     999903    2    3    3    0    0  0.11010596199E+00 -0.43158138673E-01  0.48955625244E-01  0.12933995089E+00  0.18607037748E-01 0.  0.
         14    1    1    2    0    0  0.75161642111E-02 -0.18440451864E-01 -0.13240342143E-01  0.23913378044E-01  0.00000000000E+00 0. -1.
     999901    1    3    3    0    0 -0.11762212620E+00  0.61598590538E-01 -0.35715283101E-01  0.89067667106E+00  0.88000000000E+00 0. -1.
        -11    1    4    4    0    0  0.73483043800E-01 -0.23386453121E-01  0.39555295202E-01  0.86669293382E-01  0.51100000000E-03 0. -1.
         11    1    4    4    0    0  0.36622918193E-01 -0.19771685552E-01  0.94003300413E-02  0.42670657511E-01  0.51100000000E-03 0.  1.
</event>
<event>
 8    1  0.1088088E+005  0.1043930E+01  0.7957747E-01            NaN
         13   -1    0    0    0    0  0.00000000000E+00  0.00000000000E+00  0.74505805969E-08  0.10566000000E+00  0.10566000000E+00 0. -1.
     999900   -1    0    0    0    0 -0.00000000000E+00 -0.00000000000E+00 -0.74505805969E-08  0.93827000000E+00  0.93827000000E+00 0.  1.
     999902    2    1    2    0    0 -0.11320346141E-01 -0.20260459404E-01 -0.60061890803E-02  0.10199568742E+01  0.10196751024E+01 0.  0.
     999903    2    3    3    0    0  0.28483711342E-01  0.11986106888E+00  0.25470309836E-01  0.12742722449E+00  0.20272227610E-01 0.  0.
         14    1    1    2    0    0  0.11320346141E-01  0.20260459404E-01  0.60061890803E-02  0.23973125772E-01  0.00000000000E+00 0.  1.
     999901    1    3    3    0    0 -0.39804057482E-01 -0.14012152829E+00 -0.31476498916E-01  0.89252964974E+00  0.88000000000E+00 0.  1.
        -11    1    4    4    0    0  0.14846445736E-01  0.37788036792E-01  0.66593012771E-03  0.40608586032E-01  0.51100000000E-03 0. -1.
         11    1    4    4    0    0  0.13637265605E-01  0.82073032090E-01  0.24804379708E-01  0.86818638456E-01  0.51100000000E-03 0.  1.
</event>
<event>
 8    1  0.1088088E+005  0.1043930E+01  0.7957747E-01            NaN
         13   -1    0    0    0    0  0.00000000000E+00  0.00000000000E+00  0.74505805969E-08  0.10566000000E+00  0.10566000000E+00 0. -1.
     999900   -1    0    0    0    0 -0.00000000000E+00 -0.00000000000E+00 -0.74505805969E-08  0.93827000000E+00  0.93827000000E+00 0. -1.
     999902    2    1    2    0    0  0.79335940858E-03  0.22633442165E-01  0.49645434134E-02  0.10207449010E+01  0.10204815550E+01 0.  0.
     999903    2    3    3    0    0  0.45524685805E-01 -0.11828758754E+00 -0.43698528367E-02  0.12836227057E+00  0.19832460985E-01 0.  0.
         14    1    1    2    0    0 -0.79335940858E-03 -0.22633442165E-01 -0.49645434134E-02  0.23185098980E-01  0.00000000000E+00 0.  1.
     999901    1    3    3    0    0 -0.44731326397E-01  0.14092102970E+00  0.93343962502E-02  0.89238263045E+00  0.88000000000E+00 0. -1.
        -11    1    4    4    0    0  0.38688734156E-01 -0.87593210602E-01 -0.10458737405E-01  0.96327747837E-01  0.51100000000E-03 0. -1.
         11    1    4    4    0    0  0.68359516493E-02 -0.30694376938E-01  0.60888845682E-02  0.32034522734E-01  0.51100000000E-03 0.  1.
</event>
<event>
 8    1  0.1088088E+005  0.1043930E+01  0.7957747E-01            NaN
         13   -1    0    0    0    0  0.00000000000E+00  0.00000000000E+00  0.74505805969E-08  0.10566000000E+00  0.10566000000E+00 0.  1.
     999900   -1    0    0    0    0 -0.00000000000E+00 -0.00000000000E+00 -0.74505805969E-08  0.93827000000E+00  0.93827000000E+00 0. -1.
     999902    2    1    2    0    0  0.20953916352E-01  0.98987409129E-02 -0.47930917690E-02  0.10202651440E+01  0.10199906561E+01 0.  0.
     999903    2    3    3    0    0 -0.50574969233E-01 -0.60150199669E-02 -0.11780732738E+00  0.13001695009E+00  0.20780590682E-01 0.  0.
         14    1    1    2    0    0 -0.20953916352E-01 -0.98987409129E-02  0.47930917690E-02  0.23664856028E-01  0.00000000000E+00 0.  1.
     999901    1    3    3    0    0  0.71528885584E-01  0.15913760880E-01  0.11301423561E+00  0.89024819388E+00  0.88000000000E+00 0.  1.
        -11    1    4    4    0    0 -0.73178692656E-02  0.46911425518E-02 -0.94335398046E-02  0.12837866773E-01  0.51100000000E-03 0. -1.
         11    1    4    4    0    0 -0.43257099967E-01 -0.10706162519E-01 -0.10837378757E+00  0.11717908332E+00  0.51100000000E-03 0.  1.
</event>
<event>
 8    1  0.1088088E+005  0.1043930E+01  0.7957747E-01            NaN
         13   -1    0    0    0    0  0.00000000000E+00  0.00000000000E+00  0.74505805969E-08  0.10566000000E+00  0.10566000000E+00 0.  1.
     999900   -1    0    0    0    0 -0.00000000000E+00 -0.00000000000E+00 -0.74505805969E-08  0.93827000000E+00  0.93827000000E+00 0. -1.
     999902    2    1    2    0    0  0.10802524714E-01  0.17332436906E-01 -0.14156224504E-01  0.10190803199E+01  0.10187773024E+01 0.  0.
     999903    2    3    3    0    0 -0.88101561780E-01  0.92420716914E-01 -0.17003812689E-01  0.13035742895E+00  0.20011385115E-01 0.  0.
         14    1    1    2    0    0 -0.10802524714E-01 -0.17332436906E-01  0.14156224504E-01  0.24849680108E-01  0.00000000000E+00 0.  1.
     999901    1    3    3    0    0  0.98904086494E-01 -0.75088280008E-01  0.28475881849E-02  0.88872289094E+00  0.88000000000E+00 0. -1.
        -11    1    4    4    0    0 -0.54872407178E-01  0.65542089459E-01 -0.19005486235E-01  0.87568351522E-01  0.51100000000E-03 0.  1.
         11    1    4    4    0    0 -0.33229154602E-01  0.26878627455E-01  0.20016735466E-02  0.42789077431E-01  0.51100000000E-03 0. -1.
</event>
<event>
 8    1  0.1088088E+005  0.1043930E+01  0.7957747E-01            NaN
         13   -1    0    0    0    0  0.00000000000E+00  0.00000000000E+00  0.74505805969E-08  0.10566000000E+00  0.10566000000E+00 0.  1.
     999900   -1    0    0    0    0 -0.00000000000E+00 -0.00000000000E+00 -0.74505805969E-08  0.93827000000E+00  0.93827000000E+00 0. -1.
     999902    2    1    2    0    0 -0.12533185029E-01 -0.15976376421E-01  0.14324296335E-01  0.10190802355E+01  0.10187772159E+01 0.  0.
     999903    2    3    3    0    0 -0.12446859451E+00 -0.77826155325E-02 -0.34160449720E-01  0.13062796091E+00  0.18539895446E-01 0.  0.
         14    1    1    2    0    0  0.12533185029E-01  0.15976376421E-01 -0.14324296335E-01  0.24849764506E-01  0.00000000000E+00 0. -1.
     999901    1    3    3    0    0  0.11193540948E+00 -0.81937608884E-02  0.48484746055E-01  0.88845227458E+00  0.88000000000E+00 0.  1.
        -11    1    4    4    0    0 -0.47012181955E-01 -0.51636489914E-02 -0.40095484171E-02  0.47467316361E-01  0.51100000000E-03 0. -1.
         11    1    4    4    0    0 -0.77456412554E-01 -0.26189665411E-02 -0.30150901303E-01  0.83160644549E-01  0.51100000000E-03 0.  1.
</event>
<event>
 8    1  0.1088088E+005  0.1043930E+01  0.7957747E-01            NaN
         13   -1    0    0    0    0  0.00000000000E+00  0.00000000000E+00  0.74505805969E-08  0.10566000000E+00  0.10566000000E+00 0.  1.
     999900   -1    0    0    0    0 -0.00000000000E+00 -0.00000000000E+00 -0.74505805969E-08  0.93827000000E+00  0.93827000000E+00 0. -1.
     999902    2    1    2    0    0 -0.16784282954E-01 -0.11225158345E-01 -0.10752416086E-01  0.10210535758E+01  0.10207972736E+01 0.  0.
     999903    2    3    3    0    0 -0.12717031071E+00 -0.21502245765E-01 -0.29657774901E-01  0.13389625812E+00  0.20346739976E-01 0.  0.
         14    1    1    2    0    0  0.16784282954E-01  0.11225158345E-01  0.10752416086E-01  0.22876424236E-01  0.00000000000E+00 0. -1.
     999901    1    3    3    0    0  0.11038602776E+00  0.10277087420E-01  0.18905358815E-01  0.88715731764E+00  0.88000000000E+00 0.  1.
        -11    1    4    4    0    0 -0.86698753801E-01 -0.23044653534E-01 -0.24975754254E-01  0.93122389299E-01  0.51100000000E-03 0. -1.
         11    1    4    4    0    0 -0.40471556912E-01  0.15424077690E-02 -0.46820206470E-02  0.40773868825E-01  0.51100000000E-03 0.  1.
</event>
<event>
 8    1  0.1088088E+005  0.1043930E+01  0.7957747E-01            NaN
         13   -1    0    0    0    0  0.00000000000E+00  0.00000000000E+00  0.74505805969E-08  0.10566000000E+00  0.10566000000E+00 0.  1.
     999900   -1    0    0    0    0 -0.00000000000E+00 -0.00000000000E+00 -0.74505805969E-08  0.93827000000E+00  0.93827000000E+00 0.  1.
     999902    2    1    2    0    0 -0.17310908906E-01  0.11796230949E-01 -0.84693827789E-02  0.10213346669E+01  0.10210846942E+01 0.  0.
     999903    2    3    3    0    0 -0.78139736568E-01  0.10690501134E+00  0.45087330111E-02  0.13402735947E+00  0.20211495075E-01 0.  0.
         14    1    1    2    0    0  0.17310908906E-01 -0.11796230949E-01  0.84693827789E-02  0.22595333067E-01  0.00000000000E+00 0. -1.
     999901    1    3    3    0    0  0.60828827662E-01 -0.95108780392E-01 -0.12978115790E-01  0.88730730746E+00  0.88000000000E+00 0. -1.
        -11    1    4    4    0    0 -0.76624266864E-01  0.10762772413E+00  0.49731128546E-02  0.13221194441E+00  0.51100000000E-03 0.  1.
         11    1    4    4    0    0 -0.15154697034E-02 -0.72271278686E-03 -0.46437984341E-03  0.18154150581E-02  0.51100000000E-03 0. -1.
</event>
<event>
 8    1  0.1088088E+005  0.1043930E+01  0.7957747E-01            NaN
         13   -1    0    0    0    0  0.00000000000E+00  0.00000000000E+00  0.74505805969E-08  0.10566000000E+00  0.10566000000E+00 0. -1.
     999900   -1    0    0    0    0 -0.00000000000E+00 -0.00000000000E+00 -0.74505805969E-08  0.93827000000E+00  0.93827000000E+00 0.  1.
     999902    2    1    2    0    0 -0.14116874375E-02  0.22868001257E-01 -0.58055811183E-02  0.10202943677E+01  0.10200205653E+01 0.  0.
     999903    2    3    3    0    0  0.10309157381E+00  0.78399217536E-01 -0.18347773226E-01  0.13228425841E+00  0.19702140492E-01 0.  0.
         14    1    1    2    0    0  0.14116874375E-02 -0.22868001257E-01  0.58055811183E-02  0.23635632317E-01  0.00000000000E+00 0. -1.
     999901    1    3    3    0    0 -0.10450326124E+00 -0.55531216278E-01  0.12542192108E-01  0.88801010928E+00  0.88000000000E+00 0. -1.
        -11    1    4    4    0    0  0.61924669984E-01  0.34787530211E-01 -0.10329599937E-01  0.71776031979E-01  0.51100000000E-03 0.  1.
         11    1    4    4    0    0  0.41166903823E-01  0.43611687324E-01 -0.80181732887E-02  0.60508226428E-01  0.51100000000E-03 0. -1.
</event>
<event>
 8    1  0.1088088E+005  0.1043930E+01  0.7957747E-01            NaN
         13   -1    0    0    0    0  0.00000000000E+00  0.00000000000E+00  0.74505805969E-08  0.10566000000E+00  0.10566000000E+00 0.  1.
     999900   -1    0    0    0    0 -0.00000000000E+00 -0.00000000000E+00 -0.74505805969E-08  0.93827000000E+00  0.93827000000E+00 0. -1.
     999902    2    1    2    0    0 -0.11702999721E-01 -0.19733470039E-01 -0.33826133653E-02  0.10207392235E+01  0.10204757470E+01 0.  0.
     999903    2    3    3    0    0 -0.12877747121E+00 -0.25480820451E-01 -0.53282224832E-02  0.13296490007E+00  0.20453982346E-01 0.  0.
         14    1    1    2    0    0  0.11702999721E-01  0.19733470039E-01  0.33826133653E-02  0.23190776516E-01  0.00000000000E+00 0.  1.
     999901    1    3    3    0    0  0.11707447149E+00  0.57473504128E-02  0.19456091179E-02  0.88777432341E+00  0.88000000000E+00 0.  1.
        -11    1    4    4    0    0 -0.47925180671E-01 -0.16346613320E-01 -0.93608505915E-02  0.51496809165E-01  0.51100000000E-03 0.  1.
         11    1    4    4    0    0 -0.80852290542E-01 -0.91342071317E-02  0.40326281083E-02  0.81468090908E-01  0.51100000000E-03 0. -1.
</event>
<event>
 8    1  0.1088088E+005  0.1043930E+01  0.7957747E-01            NaN
         13   -1    0    0    0    0  0.00000000000E+00  0.00000000000E+00  0.74505805969E-08  0.10566000000E+00  0.10566000000E+00 0. -1.
     999900   -1    0    0    0    0 -0.00000000000E+00 -0.00000000000E+00 -0.74505805969E-08  0.93827000000E+00  0.93827000000E+00 0. -1.
     999902    2    1    2    0    0 -0.12174610129E-01 -0.48264922198E-02 -0.19558988022E-01  0.10203913048E+01  0.10201197698E+01 0.  0.
     999903    2    3    3    0    0 -0.83245159342E-01  0.90674061162E-01  0.38281596910E-01  0.13049416922E+00  0.20290530223E-01 0.  0.
         14    1    1    2    0    0  0.12174610129E-01  0.48264922198E-02  0.19558988022E-01  0.23538695193E-01  0.00000000000E+00 0. -1.
     999901    1    3    3    0    0  0.71070549213E-01 -0.95500553382E-01 -0.57840584933E-01  0.88989713559E+00  0.88000000000E+00 0. -1.
        -11    1    4    4    0    0 -0.40276304763E-01  0.57383147288E-01  0.17178699997E-01  0.72182928540E-01  0.51100000000E-03 0.  1.
         11    1    4    4    0    0 -0.42968854579E-01  0.33290913874E-01  0.21102896914E-01  0.58311240679E-01  0.51100000000E-03 0. -1.
</event>
<event>
 8    1  0.1088088E+005  0.1043930E+01  0.7957747E-01            NaN
         13   -1    0    0    0    0  0.00000000000E+00  0.00000000000E+00  0.74505805969E-08  0.10566000000E+00  0.10566000000E+00 0.  1.
     999900   -1    0    0    0    0 -0.00000000000E+00 -0.00000000000E+00 -0.74505805969E-08  0.93827000000E+00  0.93827000000E+00 0.  1.
     999902    2    1    2    0    0  0.12730133358E-01 -0.83752298260E-02  0.18374498724E-01  0.10200590349E+01  0.10197796879E+01 0.  0.
     999903    2    3    3    0    0 -0.16038496287E-01  0.65689116319E-01 -0.10615014482E+00  0.12774768329E+00  0.21893468742E-01 0.  0.
         14    1    1    2    0    0 -0.12730133358E-01  0.83752298260E-02 -0.18374498724E-01  0.23870965069E-01  0.00000000000E+00 0. -1.
     999901    1    3    3    0    0  0.28768629645E-01 -0.74064346145E-01  0.12452464355E+00  0.89231135164E+00  0.88000000000E+00 0. -1.
        -11    1    4    4    0    0 -0.16614039306E-01  0.58153070595E-01 -0.78609828041E-01  0.99184535626E-01  0.51100000000E-03 0. -1.
         11    1    4    4    0    0  0.57554301888E-03  0.75360457240E-02 -0.27540316781E-01  0.28563147661E-01  0.51100000000E-03 0.  1.
</event>
<event>
 8    1  0.1088088E+005  0.1043930E+01  0.7957747E-01            NaN
         13   -1    0    0    0    0  0.00000000000E+00  0.00000000000E+00  0.74505805969E-08  0.10566000000E+00  0.10566000000E+00 0. -1.
     999900   -1    0    0    0    0 -0.00000000000E+00 -0.00000000000E+00 -0.74505805969E-08  0.93827000000E+00  0.93827000000E+00 0. -1.
     999902    2    1    2    0    0  0.11893500020E-01  0.18770698067E-01  0.77447087549E-02  0.10203975764E+01  0.10201261877E+01 0.  0.
     999903    2    3    3    0    0  0.49808627919E-01  0.67674924764E-01  0.10144486848E+00  0.13326235541E+00  0.20174220482E-01 0.  0.
         14    1    1    2    0    0 -0.11893500020E-01 -0.18770698067E-01 -0.77447087549E-02  0.23532423640E-01  0.00000000000E+00 0.  1.
     999901    1    3    3    0    0 -0.37915127899E-01 -0.48904226697E-01 -0.93700159726E-01  0.88713522095E+00  0.88000000000E+00 0. -1.
        -11    1    4    4    0    0  0.20521701104E-01  0.21883283917E-01  0.50620178117E-01  0.58844556968E-01  0.51100000000E-03 0.  1.
         11    1    4    4    0    0  0.29286926815E-01  0.45791640847E-01  0.50824690364E-01  0.74417798445E-01  0.51100000000E-03 0. -1.
</event>
<event>
 8    1  0.1088088E+005  0.1043930E+01  0.7957747E-01            NaN
         13   -1    0    0    0    0  0.00000000000E+00  0.00000000000E+00  0.74505805969E-08  0.10566000000E+00  0.10566000000E+00 0.  1.
     999900   -1    0    0    0    0 -0.00000000000E+00 -0.00000000000E+00 -0.74505805969E-08  0.93827000000E+00  0.93827000000E+00 0. -1.
     999902    2    1    2    0    0 -0.30061480324E-02 -0.18462939496E-01 -0.14312623254E-01  0.10203764813E+01  0.10201046002E+01 0.  0.
     999903    2    3    3    0    0  0.12137924831E+00 -0.45539338282E-01 -0.93417830241E-02  0.13120295070E+00  0.17893912673E-01 0.  0.
         14    1    1    2    0    0  0.30061480324E-02  0.18462939496E-01  0.14312623254E-01  0.23553518744E-01  0.00000000000E+00 0.  1.
     999901    1    3    3    0    0 -0.12438539634E+00  0.27076398787E-01 -0.49708402299E-02  0.88917353056E+00  0.88000000000E+00 0. -1.
        -11    1    4    4    0    0  0.71847698931E-01 -0.19360522590E-01 -0.56554684062E-04  0.74412270467E-01  0.51100000000E-03 0.  1.
         11    1    4    4    0    0  0.49531549377E-01 -0.26178815692E-01 -0.92852283400E-02  0.56790680231E-01  0.51100000000E-03 0. -1.
</event>
<event>
 7    1  0.1088088E+005  0.1043930E+01  0.7957747E-01            NaN
         13   -1    0    0    0    0  0.00000000000E+00  0.00000000000E+00  0.74505805969E-08  0.10566000000E+00  0.10566000000E+00 0. -1.
     999900   -1    0    0    0    0 -0.00000000000E+00 -0.00000000000E+00 -0.74505805969E-08  0.93827000000E+00  0.93827000000E+00 0. -1.
     999903    2    1    2    0    0 -0.84820586346E-01 -0.16939359275E-01  0.58654551613E-01  0.10632757004E+00  0.19588822435E-01 0.  0.
         14    1    1    2    0    0  0.30541781463E-01  0.18419278982E-01  0.36227620941E-01  0.50838083876E-01  0.00000000000E+00 0.  1.
     999901    1    1    2    0    0  0.54278804883E-01 -0.14799197070E-02 -0.94882172554E-01  0.88676434609E+00  0.88000000000E+00 0. -1.
        -11    1    3    3    0    0 -0.32125009221E-01 -0.65015558180E-02  0.11179005867E-01  0.34634054609E-01  0.51100000000E-03 0. -1.
         11    1    3    3    0    0 -0.52695577125E-01 -0.10437803457E-01  0.47475545746E-01  0.71693515428E-01  0.51100000000E-03 0.  1.
</event>
<event>
 7    1  0.1088088E+005  0.1043930E+01  0.7957747E-01            NaN
         13   -1    0    0    0    0  0.00000000000E+00  0.00000000000E+00  0.74505805969E-08  0.10566000000E+00  0.10566000000E+00 0.  1.
     999900   -1    0    0    0    0 -0.00000000000E+00 -0.00000000000E+00 -0.74505805969E-08  0.93827000000E+00  0.93827000000E+00 0.  1.
     999903    2    1    2    0    0  0.18006890017E-01  0.79788027437E-01 -0.12433238628E-02  0.85355858226E-01  0.24365944859E-01 0.  0.
         14    1    1    2    0    0  0.57218935757E-01  0.34309202068E-01  0.12883347210E-01  0.67949308981E-01  0.00000000000E+00 0.  1.
     999901    1    1    2    0    0 -0.75225825774E-01 -0.11409722951E+00 -0.11640023347E-01  0.89062483279E+00  0.88000000000E+00 0.  1.
        -11    1    3    3    0    0  0.12195275181E-01  0.13336205418E-01  0.37437190475E-02  0.18462276810E-01  0.51100000000E-03 0. -1.
         11    1    3    3    0    0  0.58116148355E-02  0.66451822019E-01 -0.49870429103E-02  0.66893581416E-01  0.51100000000E-03 0.  1.
</event>
<event>
 8    1  0.1088088E+005  0.1043930E+01  0.7957747E-01            NaN
         13   -1    0    0    0    0  0.00000000000E+00  0.00000000000E+00  0.74505805969E-08  0.10566000000E+00  0.10566000000E+00 0.  1.
     999900   -1    0    0    0    0 -0.00000000000E+00 -0.00000000000E+00 -0.74505805969E-08  0.93827000000E+00  0.93827000000E+00 0.  1.
     999902    2    1    2    0    0 -0.18136887661E-01  0.15059618619E-01  0.31431181118E-02  0.10201472752E+01  0.10198700138E+01 0.  0.
     999903    2    3    3    0    0  0.46563274417E-01 -0.93855350250E-01  0.71510187219E-01  0.12845078113E+00  0.20222042472E-01 0.  0.
         14    1    1    2    0    0  0.18136887661E-01 -0.15059618619E-01 -0.31431181118E-02  0.23782724790E-01  0.00000000000E+00 0. -1.
     999901    1    3    3    0    0 -0.64700162078E-01  0.10891496887E+00 -0.68367069107E-01  0.89169649408E+00  0.88000000000E+00 0. -1.
        -11    1    4    4    0    0  0.22901859655E-01 -0.66071040844E-01  0.51323156402E-01  0.86742176119E-01  0.51100000000E-03 0.  1.
         11    1    4    4    0    0  0.23661414762E-01 -0.27784309406E-01  0.20187030818E-01  0.41708605011E-01  0.51100000000E-03 0. -1.
</event>
<event>
 8    1  0.1088088E+005  0.1043930E+01  0.7957747E-01            NaN
         13   -1    0    0    0    0  0.00000000000E+00  0.00000000000E+00  0.74505805969E-08  0.10566000000E+00  0.10566000000E+00 0.  1.
     999900   -1    0    0    0    0 -0.00000000000E+00 -0.00000000000E+00 -0.74505805969E-08  0.93827000000E+00  0.93827000000E+00 0. -1.
     999902    2    1    2    0    0 -0.18079199211E-01  0.13095394465E-01 -0.68622300517E-02  0.10205754073E+01  0.10203081519E+01 0.  0.
     999903    2    3    3    0    0 -0.54345393510E-01  0.45706295780E-01 -0.11062722101E+00  0.13313758912E+00  0.21089057339E-01 0.  0.
         14    1    1    2    0    0  0.18079199211E-01 -0.13095394465E-01  0.68622300517E-02  0.23354592730E-01  0.00000000000E+00 0. -1.
     999901    1    3    3    0    0  0.36266194299E-01 -0.32610901315E-01  0.10376499096E+00  0.88743781815E+00  0.88000000000E+00 0.  1.
        -11    1    4    4    0    0 -0.15653636958E-01  0.37538330855E-02 -0.33699916318E-01  0.37350677285E-01  0.51100000000E-03 0.  1.
         11    1    4    4    0    0 -0.38691756552E-01  0.41952462694E-01 -0.76927304689E-01  0.95786911835E-01  0.51100000000E-03 0. -1.
</event>
<event>
 8    1  0.1088088E+005  0.1043930E+01  0.7957747E-01            NaN
         13   -1    0    0    0    0  0.00000000000E+00  0.00000000000E+00  0.74505805969E-08  0.10566000000E+00  0.10566000000E+00 0. -1.
     999900   -1    0    0    0    0 -0.00000000000E+00 -0.00000000000E+00 -0.74505805969E-08  0.93827000000E+00  0.93827000000E+00 0.  1.
     999902    2    1    2    0    0  0.22597462845E-01  0.55254437351E-02  0.62375465295E-02  0.10198450910E+01  0.10195606538E+01 0.  0.
     999903    2    3    3    0    0  0.72692810101E-01 -0.48022086929E-01  0.97328886994E-01  0.13210948048E+00  0.19739227827E-01 0.  0.
         14    1    1    2    0    0 -0.22597462845E-01 -0.55254437351E-02 -0.62375465295E-02  0.24084909014E-01  0.00000000000E+00 0. -1.
     999901    1    3    3    0    0 -0.50095347256E-01  0.53547530664E-01 -0.91091340464E-01  0.88773561051E+00  0.88000000000E+00 0.  1.
        -11    1    4    4    0    0  0.56367054756E-01 -0.45756461477E-01  0.75402166218E-01  0.10467400069E+00  0.51100000000E-03 0. -1.
         11    1    4    4    0    0  0.16325755345E-01 -0.22656254519E-02  0.21926720776E-01  0.27435479789E-01  0.51100000000E-03 0.  1.
</event>
<event>
 8    1  0.1088088E+005  0.1043930E+01  0.7957747E-01            NaN
         13   -1    0    0    0    0  0.00000000000E+00  0.00000000000E+00  0.74505805969E-08  0.10566000000E+00  0.10566000000E+00 0. -1.
     999900   -1    0    0    0    0 -0.00000000000E+00 -0.00000000000E+00 -0.74505805969E-08  0.93827000000E+00  0.93827000000E+00 0. -1.
     999902    2    1    2    0    0  0.26366917247E-01 -0.51288499819E-02  0.24254986873E-02  0.10169596001E+01  0.10166019013E+01 0.  0.
     999903    2    3    3    0    0 -0.70324031935E-01 -0.72539609472E-01 -0.72733983684E-01  0.12592520236E+00  0.18959425040E-01 0.  0.
         14    1    1    2    0    0 -0.26366917247E-01  0.51288499819E-02 -0.24254986873E-02  0.26970399906E-01  0.00000000000E+00 0.  1.
     999901    1    3    3    0    0  0.96690949181E-01  0.67410759490E-01  0.75159482371E-01  0.89103439773E+00  0.88000000000E+00 0.  1.
        -11    1    4    4    0    0 -0.63180611316E-01 -0.71718416921E-01 -0.67261707159E-01  0.11687480200E+00  0.51100000000E-03 0. -1.
         11    1    4    4    0    0 -0.71434206186E-02 -0.82119255019E-03 -0.54722765248E-02  0.90504003614E-02  0.51100000000E-03 0.  1.
</event>
<event>
 8    1  0.1088088E+005  0.1043930E+01  0.7957747E-01            NaN
         13   -1    0    0    0    0  0.00000000000E+00  0.00000000000E+00  0.74505805969E-08  0.10566000000E+00  0.10566000000E+00 0. -1.
     999900   -1    0    0    0    0 -0.00000000000E+00 -0.00000000000E+00 -0.74505805969E-08  0.93827000000E+00  0.93827000000E+00 0.  1.
     999902    2    1    2    0    0 -0.83448276099E-02 -0.20140961923E-01  0.11880580164E-01  0.10191017363E+01  0.10187992472E+01 0.  0.
     999903    2    3    3    0    0 -0.36196015872E-01 -0.38655926701E-02  0.12438196162E+00  0.13135338388E+00  0.21394969212E-01 0.  0.
         14    1    1    2    0    0  0.83448276099E-02  0.20140961923E-01 -0.11880580164E-01  0.24828263734E-01  0.00000000000E+00 0.  1.
     999901    1    3    3    0    0  0.27851188262E-01 -0.16275369253E-01 -0.11250138146E+00  0.88774835239E+00  0.88000000000E+00 0.  1.
        -11    1    4    4    0    0 -0.33463778537E-01 -0.92695118498E-02  0.11537458631E+00  0.12048777785E+00  0.51100000000E-03 0. -1.
         11    1    4    4    0    0 -0.27322373351E-02  0.54039191798E-02  0.90073753127E-02  0.10865606029E-01  0.51100000000E-03 0.  1.
</event>
<event>
 8    1  0.1088088E+005  0.1043930E+01  0.7957747E-01            NaN
         13   -1    0    0    0    0  0.00000000000E+00  0.00000000000E+00  0.74505805969E-08  0.10566000000E+00  0.10566000000E+00 0.  1.
     999900   -1    0    0    0    0 -0.00000000000E+00 -0.00000000000E+00 -0.74505805969E-08  0.93827000000E+00  0.93827000000E+00 0. -1.
     999902    2    1    2    0    0  0.94041072133E-02  0.94328710086E-02  0.19791029940E-01  0.10200741589E+01  0.10197951699E+01 0.  0.
     999903    2    3    3    0    0  0.90141111273E-01 -0.91535992637E-01  0.12140175435E-01  0.13059582257E+00  0.20090473440E-01 0.  0.
         14    1    1    2    0    0 -0.94041072133E-02 -0.94328710086E-02 -0.19791029940E-01  0.23855841088E-01  0.00000000000E+00 0. -1.
     999901    1    3    3    0    0 -0.80737004060E-01  0.10096886365E+00  0.76508545052E-02  0.88947833634E+00  0.88000000000E+00 0.  1.
        -11    1    4    4    0    0  0.35005756872E-01 -0.22325332682E-01  0.49278909429E-02  0.41813499300E-01  0.51100000000E-03 0.  1.
         11    1    4    4    0    0  0.55135354401E-01 -0.69210659954E-01  0.72122844916E-02  0.88782323268E-01  0.51100000000E-03 0. -1.
</event>
<event>
 8    1  0.1088088E+005  0.1043930E+01  0.7957747E-01            NaN
         13   -1    0    0    0    0  0.00000000000E+00  0.00000000000E+00  0.74505805969E-08  0.10566000000E+00  0.10566000000E+00 0.  1.
     999900   -1    0    0    0    0 -0.00000000000E+00 -0.00000000000E+00 -0.74505805969E-08  0.93827000000E+00  0.93827000000E+00 0.  1.
     999902    2    1    2    0    0  0.57099646618E-02 -0.74015008496E-02  0.30564225730E-01  0.10119681821E+01  0.10114633180E+01 0.  0.
     999903    2    3    3    0    0 -0.74226488333E-01  0.13571301990E-01  0.98155656513E-01  0.12551553443E+00  0.20636488823E-01 0.  0.
         14    1    1    2    0    0 -0.57099646618E-02  0.74015008496E-02 -0.30564225730E-01  0.31961817935E-01  0.00000000000E+00 0. -1.
     999901    1    3    3    0    0  0.79936452995E-01 -0.20972802840E-01 -0.67591430783E-01  0.88645264763E+00  0.88000000000E+00 0.  1.
        -11    1    4    4    0    0 -0.46591499038E-01  0.16165883623E-01  0.72700229536E-01  0.87850373201E-01  0.51100000000E-03 0. -1.
         11    1    4    4    0    0 -0.27634989294E-01 -0.25945816333E-02  0.25455426976E-01  0.37665161233E-01  0.51100000000E-03 0.  1.
</event>
<event>
 8    1  0.1088088E+005  0.1043930E+01  0.7957747E-01            NaN
         13   -1    0    0    0    0  0.00000000000E+00  0.00000000000E+00  0.74505805969E-08  0.10566000000E+00  0.10566000000E+00 0. -1.
     999900   -1    0    0    0    0 -0.00000000000E+00 -0.00000000000E+00 -0.74505805969E-08  0.93827000000E+00  0.93827000000E+00 0.  1.
     999902    2    1    2    0    0  0.13618921838E-02 -0.98112165712E-02  0.21814563243E-01  0.10199719139E+01  0.10196904997E+01 0.  0.
     999903    2    3    3    0    0 -0.25485200888E-01  0.11890373863E+00 -0.36014127126E-01  0.12832598442E+00  0.19569016334E-01 0.  0.
         14    1    1    2    0    0 -0.13618921838E-02  0.98112165712E-02 -0.21814563243E-01  0.23958086117E-01  0.00000000000E+00 0.  1.
     999901    1    3    3    0    0  0.26847093072E-01 -0.12871495520E+00  0.57828690369E-01  0.89164592946E+00  0.88000000000E+00 0. -1.
        -11    1    4    4    0    0 -0.11127258616E-01  0.84526185458E-01 -0.18911219880E-01  0.87329189111E-01  0.51100000000E-03 0.  1.
         11    1    4    4    0    0 -0.14357942272E-01  0.34377553171E-01 -0.17102907246E-01  0.40996795309E-01  0.51100000000E-03 0. -1.
</event>
<event>
 8    1  0.1088088E+005  0.1043930E+01  0.7957747E-01            NaN
         13   -1    0    0    0    0  0.00000000000E+00  0.00000000000E+00  0.74505805969E-08  0.10566000000E+00  0.10566000000E+00 0. -1.
     999900   -1    0    0    0    0 -0.00000000000E+00 -0.00000000000E+00 -0.74505805969E-08  0.93827000000E+00  0.93827000000E+00 0.  1.
     999902    2    1    2    0    0 -0.42081681334E-02  0.21909276312E-01  0.10158198320E-01  0.10194164515E+01  0.10191216745E+01 0.  0.
     999903    2    3    3    0    0  0.11234132980E+00 -0.57943930417E-01 -0.44946423909E-02  0.12802707202E+00  0.19815547053E-01 0.  0.
         14    1    1    2    0    0  0.42081681334E-02 -0.21909276312E-01 -0.10158198320E-01  0.24513548512E-01  0.00000000000E+00 0.  1.
     999901    1    3    3    0    0 -0.11654949794E+00  0.79853206729E-01  0.14652840710E-01  0.89138937947E+00  0.88000000000E+00 0. -1.
        -11    1    4    4    0    0  0.84974656536E-01 -0.43875829638E-01 -0.11902982797E-01  0.96372832273E-01  0.51100000000E-03 0.  1.
         11    1    4    4    0    0  0.27366673266E-01 -0.14068100779E-01  0.74083404058E-02  0.31654239744E-01  0.51100000000E-03 0. -1.
</event>
<event>
 8    1  0.1088088E+005  0.1043930E+01  0.7957747E-01            NaN
         13   -1    0    0    0    0  0.00000000000E+00  0.00000000000E+00  0.74505805969E-08  0.10566000000E+00  0.10566000000E+00 0. -1.
     999900   -1    0    0    0    0 -0.00000000000E+00 -0.00000000000E+00 -0.74505805969E-08  0.93827000000E+00  0.93827000000E+00 0. -1.
     999902    2    1    2    0    0  0.23794494318E-01 -0.39394268787E-02 -0.95381204119E-02  0.10179940638E+01  0.10176636189E+01 0.  0.
     999903    2    3    3    0    0  0.48002941148E-01 -0.10017594620E+00 -0.65719922069E-01  0.13063623782E+00  0.20179591657E-01 0.  0.
         14    1    1    2    0    0 -0.23794494318E-01  0.39394268787E-02  0.95381204119E-02  0.25935936169E-01  0.00000000000E+00 0. -1.
     999901    1    3    3    0    0 -0.24208446830E-01  0.96236519317E-01  0.56181801658E-01  0.88735782601E+00  0.88000000000E+00 0.  1.
        -11    1    4    4    0    0  0.24784921277E-01 -0.37425704461E-01 -0.35435390226E-01  0.57191814787E-01  0.51100000000E-03 0.  1.
         11    1    4    4    0    0  0.23218019871E-01 -0.62750241734E-01 -0.30284531843E-01  0.73444423032E-01  0.51100000000E-03 0. -1.
</event>
<event>
 8    1  0.1088088E+005  0.1043930E+01  0.7957747E-01            NaN
         13   -1    0    0    0    0  0.00000000000E+00  0.00000000000E+00  0.74505805969E-08  0.10566000000E+00  0.10566000000E+00 0.  1.
     999900   -1    0    0    0    0 -0.00000000000E+00 -0.00000000000E+00 -0.74505805969E-08  0.93827000000E+00  0.93827000000E+00 0. -1.
     999902    2    1    2    0    0  0.18900833063E-01 -0.93574571693E-02 -0.12896770297E-01  0.10192089527E+01  0.10189091025E+01 0.  0.
     999903    2    3    3    0    0 -0.12391427612E+00 -0.39286272245E-02  0.19287429219E-01  0.12709828115E+00  0.20292516052E-01 0.  0.
         14    1    1    2    0    0 -0.18900833063E-01  0.93574571693E-02  0.12896770297E-01  0.24721047292E-01  0.00000000000E+00 0.  1.
     999901    1    3    3    0    0  0.14281510918E+00 -0.54288299447E-02 -0.32184199515E-01  0.89211067156E+00  0.88000000000E+00 0.  1.
        -11    1    4    4    0    0 -0.71190520346E-01 -0.10028036540E-01  0.17480242673E-01  0.73989672988E-01  0.51100000000E-03 0.  1.
         11    1    4    4    0    0 -0.52723755774E-01  0.60994093150E-02  0.18071865460E-02  0.53108608164E-01  0.51100000000E-03 0. -1.
</event>
<event>
 8    1  0.1088088E+005  0.1043930E+01  0.7957747E-01            NaN
         13   -1    0    0    0    0  0.00000000000E+00  0.00000000000E+00  0.74505805969E-08  0.10566000000E+00  0.10566000000E+00 0.  1.
     999900   -1    0    0    0    0 -0.00000000000E+00 -0.00000000000E+00 -0.74505805969E-08  0.93827000000E+00  0.93827000000E+00 0.  1.
     999902    2    1    2    0    0 -0.20908313860E-02  0.23656123842E-01 -0.95468498709E-03  0.10201624761E+01  0.10198855732E+01 0.  0.
     999903    2    3    3    0    0  0.28163100627E-02  0.10588718028E+00  0.77677729856E-01  0.13282427483E+00  0.19708671190E-01 0.  0.
         14    1    1    2    0    0  0.20908313860E-02 -0.23656123842E-01  0.95468498709E-03  0.23767523946E-01  0.00000000000E+00 0. -1.
     999901    1    3    3    0    0 -0.49071414487E-02 -0.82231056435E-01 -0.78632414843E-01  0.88733820122E+00  0.88000000000E+00 0. -1.
        -11    1    4    4    0    0 -0.22321358445E-02  0.39722360037E-01  0.40436380020E-01  0.56729271699E-01  0.51100000000E-03 0. -1.
         11    1    4    4    0    0  0.50484459072E-02  0.66164820241E-01  0.37241349836E-01  0.76095003135E-01  0.51100000000E-03 0.  1.
</event>
<event>
 8    1  0.1088088E+005  0.1043930E+01  0.7957747E-01            NaN
         13   -1    0    0    0    0  0.00000000000E+00  0.00000000000E+00  0.74505805969E-08  0.10566000000E+00  0.10566000000E+00 0. -1.
     999900   -1    0    0    0    0 -0.00000000000E+00 -0.00000000000E+00 -0.74505805969E-08  0.93827000000E+00  0.93827000000E+00 0. -1.
     999902    2    1    2    0    0  0.24157052438E-01  0.45795698745E-02 -0.27677934427E-01  0.10069083348E+01  0.10062275046E+01 0.  0.
     999903    2    3    3    0    0  0.30982801601E-01  0.83534430928E-01 -0.80306233152E-01  0.12178111297E+00  0.21062128271E-01 0.  0.
         14    1    1    2    0    0 -0.24157052438E-01 -0.45795698745E-02  0.27677934427E-01  0.37021665237E-01  0.00000000000E+00 0. -1.
     999901    1    3    3    0    0 -0.68257491622E-02 -0.78954861054E-01  0.52628298725E-01  0.88512722179E+00  0.88000000000E+00 0.  1.
        -11    1    4    4    0    0  0.47436171867E-02  0.11817704840E-01 -0.23029924968E-01  0.26321067925E-01  0.51100000000E-03 0.  1.
         11    1    4    4    0    0  0.26239184414E-01  0.71716726088E-01 -0.57276308184E-01  0.95460045043E-01  0.51100000000E-03 0. -1.
</event>
<event>
 8    1  0.1088088E+005  0.1043930E+01  0.7957747E-01            NaN
         13   -1    0    0    0    0  0.00000000000E+00  0.00000000000E+00  0.74505805969E-08  0.10566000000E+00  0.10566000000E+00 0. -1.
     999900   -1    0    0    0    0 -0.00000000000E+00 -0.00000000000E+00 -0.74505805969E-08  0.93827000000E+00  0.93827000000E+00 0.  1.
     999902    2    1    2    0    0 -0.17112709661E-03 -0.23710708002E-01 -0.95304928568E-04  0.10202184829E+01  0.10199428988E+01 0.  0.
     999903    2    3    3    0    0  0.86247186456E-01 -0.83623774858E-01 -0.52365644627E-01  0.13241789220E+00  0.18995382196E-01 0.  0.
         14    1    1    2    0    0  0.17112709661E-03  0.23710708002E-01  0.95304928568E-04  0.23711517063E-01  0.00000000000E+00 0. -1.
     999901    1    3    3    0    0 -0.86418313553E-01  0.59913066857E-01  0.52270339699E-01  0.88780059074E+00  0.88000000000E+00 0. -1.
        -11    1    4    4    0    0  0.38094388938E-01 -0.44062264193E-01 -0.34000646050E-01  0.67446057314E-01  0.51100000000E-03 0.  1.
         11    1    4    4    0    0  0.48152797518E-01 -0.39561510665E-01 -0.18364998577E-01  0.64971834887E-01  0.51100000000E-03 0. -1.
</event>
<event>
 8    1  0.1164086E+005  0.1043930E+01  0.7957747E-01            NaN
         13   -1    0    0    0    0  0.00000000000E+00  0.00000000000E+00  0.74505805969E-08  0.10566000000E+00  0.10566000000E+00 0.  1.
     999900   -1    0    0    0    0 -0.00000000000E+00 -0.00000000000E+00 -0.74505805969E-08  0.93827000000E+00  0.93827000000E+00 0. -1.
     999902    2    1    2    0    0 -0.12101657945E-01 -0.19361075666E-01 -0.85782402051E-02  0.10195396826E+01  0.10192478977E+01 0.  0.
     999903    2    3    3    0    0  0.86745160038E-01 -0.75196897310E-01 -0.61251627128E-01  0.13068490367E+00  0.12144384162E-01 0.  0.
         14    1    1    2    0    0  0.12101657945E-01  0.19361075666E-01  0.85782402051E-02  0.24390317361E-01  0.00000000000E+00 0. -1.
     999901    1    3    3    0    0 -0.98846817983E-01  0.55835821645E-01  0.52673386923E-01  0.88885477897E+00  0.88000000000E+00 0.  1.
        -11    1    4    4    0    0  0.27494659722E-01 -0.30878046664E-01 -0.24580607641E-01  0.48102780295E-01  0.51100000000E-03 0. -1.
         11    1    4    4    0    0  0.59250500315E-01 -0.44318850646E-01 -0.36671019487E-01  0.82582123377E-01  0.51100000000E-03 0.  1.
</event>
<event>
 8    1  0.1088088E+005  0.1043930E+01  0.7957747E-01            NaN
         13   -1    0    0    0    0  0.00000000000E+00  0.00000000000E+00  0.74505805969E-08  0.10566000000E+00  0.10566000000E+00 0.  1.
     999900   -1    0    0    0    0 -0.00000000000E+00 -0.00000000000E+00 -0.74505805969E-08  0.93827000000E+00  0.93827000000E+00 0.  1.
     999902    2    1    2    0    0 -0.20468516307E-01  0.70935913946E-02 -0.10327997515E-01  0.10199311098E+01  0.10196487248E+01 0.  0.
     999903    2    3    3    0    0 -0.34348900622E-01  0.74846065278E-01  0.99085583718E-01  0.13046250745E+00  0.20511764631E-01 0.  0.
         14    1    1    2    0    0  0.20468516307E-01 -0.70935913946E-02  0.10327997515E-01  0.23998890211E-01  0.00000000000E+00 0. -1.
     999901    1    3    3    0    0  0.13880384315E-01 -0.67752473884E-01 -0.10941358123E+00  0.88946860234E+00  0.88000000000E+00 0.  1.
        -11    1    4    4    0    0 -0.16917506844E-01  0.50739184260E-01  0.50929143224E-01  0.73855978822E-01  0.51100000000E-03 0.  1.
         11    1    4    4    0    0 -0.17431393778E-01  0.24106881018E-01  0.48156440494E-01  0.56606528630E-01  0.51100000000E-03 0. -1.
</event>
<event>
 8    1  0.1088088E+005  0.1043930E+01  0.7957747E-01            NaN
         13   -1    0    0    0    0  0.00000000000E+00  0.00000000000E+00  0.74505805969E-08  0.10566000000E+00  0.10566000000E+00 0.  1.
     999900   -1    0    0    0    0 -0.00000000000E+00 -0.00000000000E+00 -0.74505805969E-08  0.93827000000E+00  0.93827000000E+00 0. -1.
     999902    2    1    2    0    0  0.14629526504E-01  0.18450081371E-01 -0.26051466452E-02  0.10202400161E+01  0.10199649382E+01 0.  0.
     999903    2    3    3    0    0  0.63642444241E-01 -0.22679817735E-01  0.11028741280E+00  0.13072404396E+00  0.18992825125E-01 0.  0.
         14    1    1    2    0    0 -0.14629526504E-01 -0.18450081371E-01  0.26051466452E-02  0.23689983904E-01  0.00000000000E+00 0.  1.
     999901    1    3    3    0    0 -0.49012917737E-01  0.41129899106E-01 -0.11289255944E+00  0.88951597214E+00  0.88000000000E+00 0. -1.
        -11    1    4    4    0    0  0.19592473980E-01 -0.14673236864E-01  0.29291511677E-01  0.38176205862E-01  0.51100000000E-03 0. -1.
         11    1    4    4    0    0  0.44049970261E-01 -0.80065808714E-02  0.80995901121E-01  0.92547838099E-01  0.51100000000E-03 0.  1.
</event>
<event>
 8    1  0.1088088E+005  0.1043930E+01  0.7957747E-01            NaN
         13   -1    0    0    0    0  0.00000000000E+00  0.00000000000E+00  0.74505805969E-08  0.10566000000E+00  0.10566000000E+00 0. -1.
     999900   -1    0    0    0    0 -0.00000000000E+00 -0.00000000000E+00 -0.74505805969E-08  0.93827000000E+00  0.93827000000E+00 0. -1.
     999902    2    1    2    0    0 -0.71277491684E-02 -0.18561348645E-01 -0.14223054292E-01  0.10194836558E+01  0.10191905125E+01 0.  0.
     999903    2    3    3    0    0  0.11280545477E-01  0.83187649534E-01  0.93290890932E-01  0.12693059162E+00  0.18993394048E-01 0.  0.
         14    1    1    2    0    0  0.71277491684E-02  0.18561348645E-01  0.14223054292E-01  0.24446344207E-01  0.00000000000E+00 0. -1.
     999901    1    3    3    0    0 -0.18408294645E-01 -0.10174899818E+00 -0.10751394522E+00  0.89255306417E+00  0.88000000000E+00 0. -1.
        -11    1    4    4    0    0  0.14798410631E-01  0.54954200591E-01  0.69567619913E-01  0.89882545475E-01  0.51100000000E-03 0. -1.
         11    1    4    4    0    0 -0.35178651538E-02  0.28233448943E-01  0.23723271019E-01  0.37048046147E-01  0.51100000000E-03 0.  1.
</event>
<event>
 8    1  0.1088088E+005  0.1043930E+01  0.7957747E-01            NaN
         13   -1    0    0    0    0  0.00000000000E+00  0.00000000000E+00  0.74505805969E-08  0.10566000000E+00  0.10566000000E+00 0. -1.
     999900   -1    0    0    0    0 -0.00000000000E+00 -0.00000000000E+00 -0.74505805969E-08  0.93827000000E+00  0.93827000000E+00 0.  1.
     999902    2    1    2    0    0 -0.75937009066E-03  0.19491985708E-01 -0.12705403679E-01  0.10206503644E+01  0.10203848416E+01 0.  0.
     999903    2    3    3    0    0 -0.68185920166E-01  0.10035179482E+00 -0.52511750483E-01  0.13348116206E+00  0.18437306032E-01 0.  0.
         14    1    1    2    0    0  0.75937009066E-03 -0.19491985708E-01  0.12705403679E-01  0.23279635573E-01  0.00000000000E+00 0. -1.
     999901    1    3    3    0    0  0.67426550076E-01 -0.80859809109E-01  0.39806346804E-01  0.88716920237E+00  0.88000000000E+00 0. -1.
        -11    1    4    4    0    0 -0.97048766487E-02  0.22446519868E-01 -0.44714908381E-02  0.24865362178E-01  0.51100000000E-03 0.  1.
         11    1    4    4    0    0 -0.58481043518E-01  0.77905274949E-01 -0.48040259645E-01  0.10861579988E+00  0.51100000000E-03 0. -1.
</event>
<event>
 8    1  0.1088088E+005  0.1043930E+01  0.7957747E-01            NaN
         13   -1    0    0    0    0  0.00000000000E+00  0.00000000000E+00  0.74505805969E-08  0.10566000000E+00  0.10566000000E+00 0.  1.
     999900   -1    0    0    0    0 -0.00000000000E+00 -0.00000000000E+00 -0.74505805969E-08  0.93827000000E+00  0.93827000000E+00 0. -1.
     999902    2    1    2    0    0 -0.15170300400E-01 -0.67329443875E-02  0.17313791495E-01  0.10199458817E+01  0.10196638484E+01 0.  0.
     999903    2    3    3    0    0 -0.45159613643E-02 -0.98434958009E-01  0.86923936323E-01  0.13238273099E+00  0.16111545362E-01 0.  0.
         14    1    1    2    0    0  0.15170300400E-01  0.67329443875E-02 -0.17313791495E-01  0.23984118293E-01  0.00000000000E+00 0. -1.
     999901    1    3    3    0    0 -0.10654339036E-01  0.91702013622E-01 -0.69610144827E-01  0.88756315071E+00  0.88000000000E+00 0. -1.
        -11    1    4    4    0    0 -0.90118117837E-02 -0.65873152645E-01  0.64149693034E-01  0.92390092696E-01  0.51100000000E-03 0. -1.
         11    1    4    4    0    0  0.44958504194E-02 -0.32561805364E-01  0.22774243289E-01  0.39992638297E-01  0.51100000000E-03 0.  1.
</event>
<event>
 8    1  0.1088088E+005  0.1043930E+01  0.7957747E-01            NaN
         13   -1    0    0    0    0  0.00000000000E+00  0.00000000000E+00  0.74505805969E-08  0.10566000000E+00  0.10566000000E+00 0. -1.
     999900   -1    0    0    0    0 -0.00000000000E+00 -0.00000000000E+00 -0.74505805969E-08  0.93827000000E+00  0.93827000000E+00 0.  1.
     999902    2    1    2    0    0  0.22491350176E-01  0.79029942037E-02 -0.96200354681E-03  0.10200711735E+01  0.10197921138E+01 0.  0.
     999903    2    3    3    0    0 -0.11617294329E+00 -0.22474584842E-01 -0.43754061933E-01  0.12766894142E+00  0.19587775578E-01 0.  0.
         14    1    1    2    0    0 -0.22491350176E-01 -0.79029942037E-02  0.96200354681E-03  0.23858826479E-01  0.00000000000E+00 0. -1.
     999901    1    3    3    0    0  0.13866429347E+00  0.30377579046E-01  0.42792058386E-01  0.89240223210E+00  0.88000000000E+00 0.  1.
        -11    1    4    4    0    0 -0.33805832016E-01 -0.15646717003E-01 -0.12248992446E-01  0.39216743467E-01  0.51100000000E-03 0.  1.
         11    1    4    4    0    0 -0.82367111274E-01 -0.68278678390E-02 -0.31505069487E-01  0.88452197956E-01  0.51100000000E-03 0. -1.
</event>
<event>
 8    1  0.1088088E+005  0.1043930E+01  0.7957747E-01            NaN
         13   -1    0    0    0    0  0.00000000000E+00  0.00000000000E+00  0.74505805969E-08  0.10566000000E+00  0.10566000000E+00 0. -1.
     999900   -1    0    0    0    0 -0.00000000000E+00 -0.00000000000E+00 -0.74505805969E-08  0.93827000000E+00  0.93827000000E+00 0. -1.
     999902    2    1    2    0    0 -0.23129189937E-01  0.40346119894E-02  0.49070164449E-03  0.10204464247E+01  0.10201761747E+01 0.  0.
     999903    2    3    3    0    0  0.96044271717E-01 -0.28560829015E-01  0.77783249351E-01  0.12846048609E+00  0.20288901476E-01 0.  0.
         14    1    1    2    0    0  0.23129189937E-01 -0.40346119894E-02 -0.49070164449E-03  0.23483575306E-01  0.00000000000E+00 0.  1.
     999901    1    3    3    0    0 -0.11917346165E+00  0.32595441004E-01 -0.77292547707E-01  0.89198593860E+00  0.88000000000E+00 0. -1.
        -11    1    4    4    0    0  0.80550644021E-01 -0.15760957655E-01  0.60840541116E-01  0.10216969513E+00  0.51100000000E-03 0.  1.
         11    1    4    4    0    0  0.15493627696E-01 -0.12799871360E-01  0.16942708235E-01  0.26290790961E-01  0.51100000000E-03 0. -1.
</event>
<event>
 8    1  0.1088088E+005  0.1043930E+01  0.7957747E-01            NaN
         13   -1    0    0    0    0  0.00000000000E+00  0.00000000000E+00  0.74505805969E-08  0.10566000000E+00  0.10566000000E+00 0. -1.
     999900   -1    0    0    0    0 -0.00000000000E+00 -0.00000000000E+00 -0.74505805969E-08  0.93827000000E+00  0.93827000000E+00 0. -1.
     999902    2    1    2    0    0  0.94860338663E-02  0.23287403839E-01 -0.28242397792E-02  0.10186265547E+01  0.10183122279E+01 0.  0.
     999903    2    3    3    0    0  0.92668465244E-01 -0.15545256202E-01  0.86227147939E-01  0.12938112057E+00  0.21800318310E-01 0.  0.
         14    1    1    2    0    0 -0.94860338663E-02 -0.23287403839E-01  0.28242397792E-02  0.25303445347E-01  0.00000000000E+00 0.  1.
     999901    1    3    3    0    0 -0.83182431377E-01  0.38832660041E-01 -0.89051387718E-01  0.88924543408E+00  0.88000000000E+00 0. -1.
        -11    1    4    4    0    0  0.73122608447E-01 -0.37959615759E-02  0.60374223458E-01  0.94903283239E-01  0.51100000000E-03 0. -1.
         11    1    4    4    0    0  0.19545856797E-01 -0.11749294626E-01  0.25852924481E-01  0.34477837335E-01  0.51100000000E-03 0.  1.
</event>
<event>
 8    1  0.1088088E+005  0.1043930E+01  0.7957747E-01            NaN
         13   -1    0    0    0    0  0.00000000000E+00  0.00000000000E+00  0.74505805969E-08  0.10566000000E+00  0.10566000000E+00 0. -1.
     999900   -1    0    0    0    0 -0.00000000000E+00 -0.00000000000E+00 -0.74505805969E-08  0.93827000000E+00  0.93827000000E+00 0. -1.
     999902    2    1    2    0    0  0.47773483538E-02 -0.10961798285E-01  0.19155712152E-01  0.10213484724E+01  0.10210988085E+01 0.  0.
     999903    2    3    3    0    0  0.11455990183E+00 -0.28554283422E-01  0.59118129405E-01  0.13345281451E+00  0.19374784282E-01 0.  0.
         14    1    1    2    0    0 -0.47773483538E-02  0.10961798285E-01 -0.19155712152E-01  0.22581527561E-01  0.00000000000E+00 0.  1.
     999901    1    3    3    0    0 -0.10978255348E+00  0.17592485137E-01 -0.39962417253E-01  0.88789565793E+00  0.88000000000E+00 0. -1.
        -11    1    4    4    0    0  0.81840121015E-01 -0.11228501773E-01  0.40093835328E-01  0.91824078607E-01  0.51100000000E-03 0.  1.
         11    1    4    4    0    0  0.32719780817E-01 -0.17325781649E-01  0.19024294078E-01  0.41628735900E-01  0.51100000000E-03 0. -1.
</event>
<event>
 8    1  0.1088088E+005  0.1043930E+01  0.7957747E-01            NaN
         13   -1    0    0    0    0  0.00000000000E+00  0.00000000000E+00  0.74505805969E-08  0.10566000000E+00  0.10566000000E+00 0.  1.
     999900   -1    0    0    0    0 -0.00000000000E+00 -0.00000000000E+00 -0.74505805969E-08  0.93827000000E+00  0.93827000000E+00 0.  1.
     999902    2    1    2    0    0  0.67159094959E-02 -0.17895523841E-01 -0.14453002690E-01  0.10199666425E+01  0.10196851031E+01 0.  0.
     999903    2    3    3    0    0 -0.47925168330E-02 -0.96556147720E-01  0.85606741840E-01  0.13073557578E+00  0.20425930704E-01 0.  0.
         14    1    1    2    0    0 -0.67159094959E-02  0.17895523841E-01  0.14453002690E-01  0.23963357457E-01  0.00000000000E+00 0.  1.
     999901    1    3    3    0    0  0.11508426329E-01  0.78660623880E-01 -0.10005974453E+00  0.88923106677E+00  0.88000000000E+00 0.  1.
        -11    1    4    4    0    0 -0.91946550784E-02 -0.82505496861E-01  0.65169888220E-01  0.10554181231E+00  0.51100000000E-03 0.  1.
         11    1    4    4    0    0  0.44021382454E-02 -0.14050650860E-01  0.20436853620E-01  0.25193763466E-01  0.51100000000E-03 0. -1.
</event>
<event>
 8    1  0.1088088E+005  0.1043930E+01  0.7957747E-01            NaN
         13   -1    0    0    0    0  0.00000000000E+00  0.00000000000E+00  0.74505805969E-08  0.10566000000E+00  0.10566000000E+00 0.  1.
     999900   -1    0    0    0    0 -0.00000000000E+00 -0.00000000000E+00 -0.74505805969E-08  0.93827000000E+00  0.93827000000E+00 0. -1.
     999902    2    1    2    0    0  0.10783802525E-01 -0.73443964330E-02 -0.17756966894E-01  0.10218950181E+01  0.10216574218E+01 0.  0.
     999903    2    3    3    0    0 -0.12761155453E+00  0.25394072562E-02 -0.21461742514E-01  0.13101641253E+00  0.20335597398E-01 0.  0.
         14    1    1    2    0    0 -0.10783802525E-01  0.73443964330E-02  0.17756966894E-01  0.22034981941E-01  0.00000000000E+00 0.  1.
     999901    1    3    3    0    0  0.13839535705E+00 -0.98838036892E-02  0.37047756194E-02  0.89087860553E+00  0.88000000000E+00 0. -1.
        -11    1    4    4    0    0 -0.51072678277E-01 -0.45667214535E-02 -0.16975921876E-01  0.54015890771E-01  0.51100000000E-03 0. -1.
         11    1    4    4    0    0 -0.76538876252E-01  0.71061287097E-02 -0.44858206380E-02  0.77000521757E-01  0.51100000000E-03 0.  1.
</event>
<event>
 8    1  0.1088088E+005  0.1043930E+01  0.7957747E-01            NaN
         13   -1    0    0    0    0  0.00000000000E+00  0.00000000000E+00  0.74505805969E-08  0.10566000000E+00  0.10566000000E+00 0.  1.
     999900   -1    0    0    0    0 -0.00000000000E+00 -0.00000000000E+00 -0.74505805969E-08  0.93827000000E+00  0.93827000000E+00 0.  1.
     999902    2    1    2    0    0  0.46647721428E-02  0.15422730415E-01 -0.17154378635E-01  0.10203950596E+01  0.10201236122E+01 0.  0.
     999903    2    3    3    0    0  0.84952889076E-01  0.34787609505E-01 -0.94381561476E-01  0.13316046942E+00  0.19916333314E-01 0.  0.
         14    1    1    2    0    0 -0.46647721428E-02 -0.15422730415E-01  0.17154378635E-01  0.23534940386E-01  0.00000000000E+00 0.  1.
     999901    1    3    3    0    0 -0.80288116933E-01 -0.19364879090E-01  0.77227182841E-01  0.88723459019E+00  0.88000000000E+00 0. -1.
        -11    1    4    4    0    0  0.99373097108E-02  0.34434117492E-02 -0.32194102447E-02  0.11010582731E-01  0.51100000000E-03 0.  1.
         11    1    4    4    0    0  0.75015579365E-01  0.31344197756E-01 -0.91162151232E-01  0.12214988669E+00  0.51100000000E-03 0. -1.
</event>
<event>
 8    1  0.1088088E+005  0.1043930E+01  0.7957747E-01            NaN
         13   -1    0    0    0    0  0.00000000000E+00  0.00000000000E+00  0.74505805969E-08  0.10566000000E+00  0.10566000000E+00 0.  1.
     999900   -1    0    0    0    0 -0.00000000000E+00 -0.00000000000E+00 -0.74505805969E-08  0.93827000000E+00  0.93827000000E+00 0. -1.
     999902    2    1    2    0    0  0.19278119392E-01  0.62866077127E-02 -0.12141422208E-01  0.10202956721E+01  0.10200219002E+01 0.  0.
     999903    2    3    3    0    0 -0.12841297621E-02 -0.12580900379E+00 -0.29319949275E-01  0.13003326217E+00  0.14813352854E-01 0.  0.
         14    1    1    2    0    0 -0.19278119392E-01 -0.62866077127E-02  0.12141422208E-01  0.23634327937E-01  0.00000000000E+00 0.  1.
     999901    1    3    3    0    0  0.20562249154E-01  0.13209561150E+00  0.17178527067E-01  0.89026240989E+00  0.88000000000E+00 0.  1.
        -11    1    4    4    0    0 -0.72128844533E-02 -0.43013256012E-01 -0.82263912647E-02  0.44385814504E-01  0.51100000000E-03 0. -1.
         11    1    4    4    0    0  0.59287546913E-02 -0.82795747776E-01 -0.21093558010E-01  0.85647447671E-01  0.51100000000E-03 0.  1.
</event>
<event>
 8    1  0.1088088E+005  0.1043930E+01  0.7957747E-01            NaN
         13   -1    0    0    0    0  0.00000000000E+00  0.00000000000E+00  0.74505805969E-08  0.10566000000E+00  0.10566000000E+00 0.  1.
     999900   -1    0    0    0    0 -0.00000000000E+00 -0.00000000000E+00 -0.74505805969E-08  0.93827000000E+00  0.93827000000E+00 0. -1.
     999902    2    1    2    0    0  0.11349721367E-01  0.21167692575E-01  0.29663967100E-03  0.10199096882E+01  0.10196267928E+01 0.  0.
     999903    2    3    3    0    0  0.82181154031E-01 -0.81325402067E-01  0.54490039283E-01  0.12948346954E+00  0.20718141918E-01 0.  0.
         14    1    1    2    0    0 -0.11349721367E-01 -0.21167692575E-01 -0.29663967100E-03  0.24020311804E-01  0.00000000000E+00 0. -1.
     999901    1    3    3    0    0 -0.70831432665E-01  0.10249309464E+00 -0.54193399612E-01  0.89042621865E+00  0.88000000000E+00 0. -1.
        -11    1    4    4    0    0  0.32161521113E-01 -0.31347543480E-01  0.10234894299E-01  0.46065671653E-01  0.51100000000E-03 0.  1.
         11    1    4    4    0    0  0.50019632918E-01 -0.49977858588E-01  0.44255144985E-01  0.83417797890E-01  0.51100000000E-03 0. -1.
</event>
<event>
 8    1  0.1088088E+005  0.1043930E+01  0.7957747E-01            NaN
         13   -1    0    0    0    0  0.00000000000E+00  0.00000000000E+00  0.74505805969E-08  0.10566000000E+00  0.10566000000E+00 0. -1.
     999900   -1    0    0    0    0 -0.00000000000E+00 -0.00000000000E+00 -0.74505805969E-08  0.93827000000E+00  0.93827000000E+00 0. -1.
     999902    2    1    2    0    0 -0.21278303078E-02 -0.27177078028E-02 -0.24028474555E-01  0.10196548854E+01  0.10193658834E+01 0.  0.
     999903    2    3    3    0    0  0.10342010575E+00  0.71033653063E-03 -0.78881903272E-01  0.13164530388E+00  0.20295529522E-01 0.  0.
         14    1    1    2    0    0  0.21278303078E-02  0.27177078028E-02  0.24028474555E-01  0.24275114562E-01  0.00000000000E+00 0. -1.
     999901    1    3    3    0    0 -0.10554793606E+00 -0.34280443334E-02  0.54853428717E-01  0.88800958156E+00  0.88000000000E+00 0.  1.
        -11    1    4    4    0    0  0.34457865329E-01  0.38504405303E-02 -0.15710902769E-01  0.38069199651E-01  0.51100000000E-03 0. -1.
         11    1    4    4    0    0  0.68962240423E-01 -0.31401039997E-02 -0.63171000504E-01  0.93576104230E-01  0.51100000000E-03 0.  1.
</event>
<event>
 8    1  0.1088088E+005  0.1043930E+01  0.7957747E-01            NaN
         13   -1    0    0    0    0  0.00000000000E+00  0.00000000000E+00  0.74505805969E-08  0.10566000000E+00  0.10566000000E+00 0. -1.
     999900   -1    0    0    0    0 -0.00000000000E+00 -0.00000000000E+00 -0.74505805969E-08  0.93827000000E+00  0.93827000000E+00 0. -1.
     999902    2    1    2    0    0 -0.19326070443E-01  0.76601164394E-02  0.10136909475E-01  0.10208014178E+01  0.10205393688E+01 0.  0.
     999903    2    3    3    0    0 -0.12051083642E+00 -0.48356740703E-01 -0.20162481444E-01  0.13271679441E+00  0.18600693392E-01 0.  0.
         14    1    1    2    0    0  0.19326070443E-01 -0.76601164394E-02 -0.10136909475E-01  0.23128582238E-01  0.00000000000E+00 0. -1.
     999901    1    3    3    0    0  0.10118476597E+00  0.56016857142E-01  0.30299390919E-01  0.88808462335E+00  0.88000000000E+00 0.  1.
        -11    1    4    4    0    0 -0.56748874656E-01 -0.22346405219E-01 -0.18852159740E-01  0.63839342484E-01  0.51100000000E-03 0. -1.
         11    1    4    4    0    0 -0.63761961760E-01 -0.26010335484E-01 -0.13103217042E-02  0.68877451923E-01  0.51100000000E-03 0.  1.
</event>
<event>
 8    1  0.1088088E+005  0.1043930E+01  0.7957747E-01            NaN
         13   -1    0    0    0    0  0.00000000000E+00  0.00000000000E+00  0.74505805969E-08  0.10566000000E+00  0.10566000000E+00 0. -1.
     999900   -1    0    0    0    0 -0.00000000000E+00 -0.00000000000E+00 -0.74505805969E-08  0.93827000000E+00  0.93827000000E+00 0. -1.
     999902    2    1    2    0    0  0.47543656567E-04 -0.10035533791E-01  0.21430563653E-01  0.10202660346E+01  0.10199915677E+01 0.  0.
     999903    2    3    3    0    0  0.11178745380E+00 -0.52659683249E-01  0.41653138803E-01  0.13194650980E+00  0.20135054270E-01 0.  0.
         14    1    1    2    0    0 -0.47543656567E-04  0.10035533791E-01 -0.21430563653E-01  0.23663965377E-01  0.00000000000E+00 0.  1.
     999901    1    3    3    0    0 -0.11173991014E+00  0.42624149458E-01 -0.20222575150E-01  0.88831952482E+00  0.88000000000E+00 0.  1.
        -11    1    4    4    0    0  0.80953265791E-01 -0.34585140278E-01  0.38433022820E-01  0.96056866149E-01  0.51100000000E-03 0. -1.
         11    1    4    4    0    0  0.30834188005E-01 -0.18074542971E-01  0.32201159831E-02  0.35889643652E-01  0.51100000000E-03 0.  1.
</event>
<event>
 8    1  0.1088088E+005  0.1043930E+01  0.7957747E-01            NaN
         13   -1    0    0    0    0  0.00000000000E+00  0.00000000000E+00  0.74505805969E-08  0.10566000000E+00  0.10566000000E+00 0.  1.
     999900   -1    0    0    0    0 -0.00000000000E+00 -0.00000000000E+00 -0.74505805969E-08  0.93827000000E+00  0.93827000000E+00 0.  1.
     999902    2    1    2    0    0  0.80855856134E-02 -0.13925653772E-01 -0.17911719694E-01  0.10198441072E+01  0.10195596465E+01 0.  0.
     999903    2    3    3    0    0  0.49003628508E-01 -0.99943747312E-01 -0.70467469463E-01  0.13314488795E+00  0.19281823086E-01 0.  0.
         14    1    1    2    0    0 -0.80855856134E-02  0.13925653772E-01  0.17911719694E-01  0.24085892761E-01  0.00000000000E+00 0.  1.
     999901    1    3    3    0    0 -0.40918042895E-01  0.86018093540E-01  0.52555749769E-01  0.88669921929E+00  0.88000000000E+00 0. -1.
        -11    1    4    4    0    0  0.63669574332E-02 -0.20109945766E-01 -0.21976538648E-01  0.30466004622E-01  0.51100000000E-03 0.  1.
         11    1    4    4    0    0  0.42636671075E-01 -0.79833801546E-01 -0.48490930815E-01  0.10267888333E+00  0.51100000000E-03 0. -1.
</event>
<event>
 8    1  0.1088088E+005  0.1043930E+01  0.7957747E-01            NaN
         13   -1    0    0    0    0  0.00000000000E+00  0.00000000000E+00  0.74505805969E-08  0.10566000000E+00  0.10566000000E+00 0. -1.
     999900   -1    0    0    0    0 -0.00000000000E+00 -0.00000000000E+00 -0.74505805969E-08  0.93827000000E+00  0.93827000000E+00 0. -1.
     999902    2    1    2    0    0  0.23369104942E-01  0.23149632947E-02 -0.10161018359E-01  0.10183424949E+01  0.10180209804E+01 0.  0.
     999903    2    3    3    0    0 -0.33824618002E-01 -0.44253132058E-01 -0.11472081023E+00  0.12908861695E+00  0.20014051207E-01 0.  0.
         14    1    1    2    0    0 -0.23369104942E-01 -0.23149632947E-02  0.10161018359E-01  0.25587505055E-01  0.00000000000E+00 0.  1.
     999901    1    3    3    0    0  0.57193722944E-01  0.46568095352E-01  0.10455979188E+00  0.88925387799E+00  0.88000000000E+00 0.  1.
        -11    1    4    4    0    0 -0.17393888302E-01 -0.37540817891E-01 -0.82716717198E-01  0.92488792744E-01  0.51100000000E-03 0.  1.
         11    1    4    4    0    0 -0.16430729700E-01 -0.67123141669E-02 -0.32004093036E-01  0.36599824208E-01  0.51100000000E-03 0. -1.
</event>
<event>
 8    1  0.1088088E+005  0.1043930E+01  0.7957747E-01            NaN
         13   -1    0    0    0    0  0.00000000000E+00  0.00000000000E+00  0.74505805969E-08  0.10566000000E+00  0.10566000000E+00 0. -1.
     999900   -1    0    0    0    0 -0.00000000000E+00 -0.00000000000E+00 -0.74505805969E-08  0.93827000000E+00  0.93827000000E+00 0. -1.
     999902    2    1    2    0    0  0.15425595706E-01 -0.70021680689E-02  0.16667363319E-01  0.10201648920E+01  0.10198880460E+01 0.  0.
     999903    2    3    3    0    0  0.12953181421E+00 -0.18691627423E-01  0.98287343844E-02  0.13269453222E+00  0.19579760788E-01 0.  0.
         14    1    1    2    0    0 -0.15425595706E-01  0.70021680689E-02 -0.16667363319E-01  0.23765108049E-01  0.00000000000E+00 0. -1.
     999901    1    3    3    0    0 -0.11410621850E+00  0.11689459354E-01  0.68386289351E-02  0.88747035973E+00  0.88000000000E+00 0. -1.
        -11    1    4    4    0    0  0.10137586901E+00 -0.21645905671E-01  0.11684029337E-01  0.10431869302E+00  0.51100000000E-03 0.  1.
         11    1    4    4    0    0  0.28155945195E-01  0.29542782473E-02 -0.18552949531E-02  0.28375839197E-01  0.51100000000E-03 0. -1.
</event>
<event>
 8    1  0.1088088E+005  0.1043930E+01  0.7957747E-01            NaN
         13   -1    0    0    0    0  0.00000000000E+00  0.00000000000E+00  0.74505805969E-08  0.10566000000E+00  0.10566000000E+00 0.  1.
     999900   -1    0    0    0    0 -0.00000000000E+00 -0.00000000000E+00 -0.74505805969E-08  0.93827000000E+00  0.93827000000E+00 0.  1.
     999902    2    1    2    0    0  0.15118733381E-01  0.75348117624E-02  0.13419118819E-01  0.10223563532E+01  0.10221287055E+01 0.  0.
     999903    2    3    3    0    0  0.37817958203E-01  0.42646190127E-01  0.12118385403E+00  0.13479717101E+00  0.15357582458E-01 0.  0.
         14    1    1    2    0    0 -0.15118733381E-01 -0.75348117624E-02 -0.13419118819E-01  0.21573646822E-01  0.00000000000E+00 0. -1.
     999901    1    3    3    0    0 -0.22699224822E-01 -0.35111378365E-01 -0.10776473521E+00  0.88755918217E+00  0.88000000000E+00 0.  1.
        -11    1    4    4    0    0  0.13943223612E-01  0.63564475045E-02  0.37394415705E-01  0.40415607833E-01  0.51100000000E-03 0. -1.
         11    1    4    4    0    0  0.23874734591E-01  0.36289742623E-01  0.83789438326E-01  0.94381563175E-01  0.51100000000E-03 0.  1.
</event>
<event>
 8    1  0.1088088E+005  0.1043930E+01  0.7957747E-01            NaN
         13   -1    0    0    0    0  0.00000000000E+00  0.00000000000E+00  0.74505805969E-08  0.10566000000E+00  0.10566000000E+00 0.  1.
     999900   -1    0    0    0    0 -0.00000000000E+00 -0.00000000000E+00 -0.74505805969E-08  0.93827000000E+00  0.93827000000E+00 0.  1.
     999902    2    1    2    0    0 -0.17973061296E-01  0.71978363412E-02  0.13530597917E-01  0.10203097362E+01  0.10200362940E+01 0.  0.
     999903    2    3    3    0    0 -0.26067138728E-01  0.12545444558E-01 -0.12458475480E+00  0.12948429786E+00  0.20197484049E-01 0.  0.
         14    1    1    2    0    0  0.17973061296E-01 -0.71978363412E-02 -0.13530597917E-01  0.23620263765E-01  0.00000000000E+00 0. -1.
     999901    1    3    3    0    0  0.80940774321E-02 -0.53476082164E-02  0.13811535272E+00  0.89082543838E+00  0.88000000000E+00 0. -1.
        -11    1    4    4    0    0 -0.82131149579E-02 -0.35866003254E-02 -0.16829519117E-01  0.19073877265E-01  0.51100000000E-03 0.  1.
         11    1    4    4    0    0 -0.17854023771E-01  0.16132044883E-01 -0.10775523569E+00  0.11041042059E+00  0.51100000000E-03 0. -1.
</event>
<event>
 8    1  0.1088088E+005  0.1043930E+01  0.7957747E-01            NaN
         13   -1    0    0    0    0  0.00000000000E+00  0.00000000000E+00  0.74505805969E-08  0.10566000000E+00  0.10566000000E+00 0. -1.
     999900   -1    0    0    0    0 -0.00000000000E+00 -0.00000000000E+00 -0.74505805969E-08  0.93827000000E+00  0.93827000000E+00 0.  1.
     999902    2    1    2    0    0  0.72356424920E-03 -0.65935393127E-03  0.27822980848E-01  0.10160898032E+01  0.10157083300E+01 0.  0.
     999903    2    3    3    0    0  0.68433194240E-01  0.39992460961E-01  0.10068321957E+00  0.12955397292E+00  0.19095082791E-01 0.  0.
         14    1    1    2    0    0 -0.72356424920E-03  0.65935393127E-03 -0.27822980848E-01  0.27840196768E-01  0.00000000000E+00 0.  1.
     999901    1    3    3    0    0 -0.67709629991E-01 -0.40651814893E-01 -0.72860238726E-01  0.88653583032E+00  0.88000000000E+00 0.  1.
        -11    1    4    4    0    0  0.25337459730E-01  0.12433725139E-01  0.50721906319E-01  0.58047887887E-01  0.51100000000E-03 0. -1.
         11    1    4    4    0    0  0.43095734510E-01  0.27558735822E-01  0.49961313255E-01  0.71506085029E-01  0.51100000000E-03 0.  1.
</event>
<event>
 8    1  0.1088088E+005  0.1043930E+01  0.7957747E-01            NaN
         13   -1    0    0    0    0  0.00000000000E+00  0.00000000000E+00  0.74505805969E-08  0.10566000000E+00  0.10566000000E+00 0.  1.
     999900   -1    0    0    0    0 -0.00000000000E+00 -0.00000000000E+00 -0.74505805969E-08  0.93827000000E+00  0.93827000000E+00 0.  1.
     999902    2    1    2    0    0 -0.18242830700E-01  0.27326947023E-01  0.79154280570E-02  0.10101333004E+01  0.10095677627E+01 0.  0.
     999903    2    3    3    0    0 -0.79311930128E-01 -0.11032617665E-01  0.91479186807E-01  0.12323770735E+00  0.20173992712E-01 0.  0.
         14    1    1    2    0    0  0.18242830700E-01 -0.27326947023E-01 -0.79154280570E-02  0.33796699644E-01  0.00000000000E+00 0. -1.
     999901    1    3    3    0    0  0.61069099429E-01  0.38359564688E-01 -0.83563758750E-01  0.88689559300E+00  0.88000000000E+00 0.  1.
        -11    1    4    4    0    0 -0.27699712665E-01  0.57322816169E-02  0.30154013799E-01  0.41348020550E-01  0.51100000000E-03 0.  1.
         11    1    4    4    0    0 -0.51612217464E-01 -0.16764899282E-01  0.61325173008E-01  0.81889686805E-01  0.51100000000E-03 0. -1.
</event>
<event>
 8    1  0.1088088E+005  0.1043930E+01  0.7957747E-01            NaN
         13   -1    0    0    0    0  0.00000000000E+00  0.00000000000E+00  0.74505805969E-08  0.10566000000E+00  0.10566000000E+00 0.  1.
     999900   -1    0    0    0    0 -0.00000000000E+00 -0.00000000000E+00 -0.74505805969E-08  0.93827000000E+00  0.93827000000E+00 0.  1.
     999902    2    1    2    0    0  0.22854716601E-01 -0.79702803385E-02 -0.12056671851E-02  0.10196953745E+01  0.10194073473E+01 0.  0.
     999903    2    3    3    0    0  0.24653703069E-01 -0.27145107234E-01 -0.12493310370E+00  0.13083127416E+00  0.12801561419E-01 0.  0.
         14    1    1    2    0    0 -0.22854716601E-01  0.79702803385E-02  0.12056671851E-02  0.24234625496E-01  0.00000000000E+00 0.  1.
     999901    1    3    3    0    0 -0.17989864685E-02  0.19174826896E-01  0.12372743652E+00  0.88886410035E+00  0.88000000000E+00 0. -1.
        -11    1    4    4    0    0  0.14895575626E-01 -0.70852931015E-02 -0.55401634151E-01  0.57807281022E-01  0.51100000000E-03 0.  1.
         11    1    4    4    0    0  0.97581274433E-02 -0.20059814133E-01 -0.69531469552E-01  0.73023993135E-01  0.51100000000E-03 0. -1.
</event>
<event>
 8    1  0.1088088E+005  0.1043930E+01  0.7957747E-01            NaN
         13   -1    0    0    0    0  0.00000000000E+00  0.00000000000E+00  0.74505805969E-08  0.10566000000E+00  0.10566000000E+00 0.  1.
     999900   -1    0    0    0    0 -0.00000000000E+00 -0.00000000000E+00 -0.74505805969E-08  0.93827000000E+00  0.93827000000E+00 0. -1.
     999902    2    1    2    0    0 -0.14669883656E-01  0.17619114436E-01 -0.55946203620E-02  0.10203304564E+01  0.10200574993E+01 0.  0.
     999903    2    3    3    0    0  0.10731249418E+00 -0.66635242193E-01  0.20403564772E-02  0.12789738331E+00  0.19933657296E-01 0.  0.
         14    1    1    2    0    0  0.14669883656E-01 -0.17619114436E-01  0.55946203620E-02  0.23599543576E-01  0.00000000000E+00 0.  1.
     999901    1    3    3    0    0 -0.12198237784E+00  0.84254356628E-01 -0.76349768392E-02  0.89243307311E+00  0.88000000000E+00 0.  1.
        -11    1    4    4    0    0  0.82823998475E-01 -0.52949502448E-01  0.97855152663E-02  0.98790090408E-01  0.51100000000E-03 0.  1.
         11    1    4    4    0    0  0.24488495710E-01 -0.13685739745E-01 -0.77451587891E-02  0.29107292903E-01  0.51100000000E-03 0. -1.
</event>
<event>
 8    1  0.1088088E+005  0.1043930E+01  0.7957747E-01            NaN
         13   -1    0    0    0    0  0.00000000000E+00  0.00000000000E+00  0.74505805969E-08  0.10566000000E+00  0.10566000000E+00 0.  1.
     999900   -1    0    0    0    0 -0.00000000000E+00 -0.00000000000E+00 -0.74505805969E-08  0.93827000000E+00  0.93827000000E+00 0. -1.
     999902    2    1    2    0    0 -0.10278646829E-01 -0.20399862507E-01 -0.75576970004E-02  0.10198691655E+01  0.10195853035E+01 0.  0.
     999903    2    3    3    0    0 -0.11200378804E+00  0.78137990758E-02 -0.65435985267E-01  0.13167216526E+00  0.21208181093E-01 0.  0.
         14    1    1    2    0    0  0.10278646829E-01  0.20399862507E-01  0.75576970004E-02  0.24060834459E-01  0.00000000000E+00 0. -1.
     999901    1    3    3    0    0  0.10172514121E+00 -0.28213661583E-01  0.57878288267E-01  0.88819700028E+00  0.88000000000E+00 0.  1.
        -11    1    4    4    0    0 -0.40894850627E-01  0.11803262621E-01 -0.30331668815E-01  0.52268318037E-01  0.51100000000E-03 0. -1.
         11    1    4    4    0    0 -0.71108937413E-01 -0.39894635451E-02 -0.35104316452E-01  0.79403847224E-01  0.51100000000E-03 0.  1.
</event>
<event>
 8    1  0.1088088E+005  0.1043930E+01  0.7957747E-01            NaN
         13   -1    0    0    0    0  0.00000000000E+00  0.00000000000E+00  0.74505805969E-08  0.10566000000E+00  0.10566000000E+00 0.  1.
     999900   -1    0    0    0    0 -0.00000000000E+00 -0.00000000000E+00 -0.74505805969E-08  0.93827000000E+00  0.93827000000E+00 0. -1.
     999902    2    1    2    0    0 -0.16063597458E-01  0.44908007758E-02 -0.26630596031E-01  0.10125071564E+01  0.10120194399E+01 0.  0.
     999903    2    3    3    0    0 -0.24536203889E-01  0.69197784446E-01  0.94858608769E-01  0.12176678700E+00  0.20943640696E-01 0.  0.
         14    1    1    2    0    0  0.16063597458E-01 -0.44908007758E-02  0.26630596031E-01  0.31422843599E-01  0.00000000000E+00 0.  1.
     999901    1    3    3    0    0  0.84726064311E-02 -0.64706983670E-01 -0.12148920480E+00  0.89074036940E+00  0.88000000000E+00 0. -1.
        -11    1    4    4    0    0 -0.10792835048E-01  0.27098497394E-01  0.22141109658E-01  0.36623813391E-01  0.51100000000E-03 0. -1.
         11    1    4    4    0    0 -0.13743368841E-01  0.42099287052E-01  0.72717499111E-01  0.85142973611E-01  0.51100000000E-03 0.  1.
</event>
<event>
 8    1  0.1088088E+005  0.1043930E+01  0.7957747E-01            NaN
         13   -1    0    0    0    0  0.00000000000E+00  0.00000000000E+00  0.74505805969E-08  0.10566000000E+00  0.10566000000E+00 0. -1.
     999900   -1    0    0    0    0 -0.00000000000E+00 -0.00000000000E+00 -0.74505805969E-08  0.93827000000E+00  0.93827000000E+00 0.  1.
     999902    2    1    2    0    0 -0.68125726747E-02 -0.21726275714E-01  0.60543770548E-02  0.10203694889E+01  0.10200974444E+01 0.  0.
     999903    2    3    3    0    0 -0.13479823186E-01 -0.10632447535E+00 -0.75370077814E-01  0.13254560462E+00  0.20027206054E-01 0.  0.
         14    1    1    2    0    0  0.68125726747E-02  0.21726275714E-01 -0.60543770548E-02  0.23560511123E-01  0.00000000000E+00 0.  1.
     999901    1    3    3    0    0  0.66672505113E-02  0.84598199636E-01  0.81424454869E-01  0.88782388426E+00  0.88000000000E+00 0. -1.
        -11    1    4    4    0    0 -0.13044570467E-01 -0.44245325908E-01 -0.24202653728E-01  0.52094522283E-01  0.51100000000E-03 0. -1.
         11    1    4    4    0    0 -0.43525271932E-03 -0.62079149442E-01 -0.51167424086E-01  0.80451082335E-01  0.51100000000E-03 0.  1.
</event>
<event>
 8    1  0.1088088E+005  0.1043930E+01  0.7957747E-01            NaN
         13   -1    0    0    0    0  0.00000000000E+00  0.00000000000E+00  0.74505805969E-08  0.10566000000E+00  0.10566000000E+00 0.  1.
     999900   -1    0    0    0    0 -0.00000000000E+00 -0.00000000000E+00 -0.74505805969E-08  0.93827000000E+00  0.93827000000E+00 0. -1.
     999902    2    1    2    0    0  0.15444639034E-01 -0.11950587013E-01 -0.13817349764E-01  0.10200077811E+01  0.10197272188E+01 0.  0.
     999903    2    3    3    0    0 -0.47872673040E-01  0.72155423892E-01 -0.94824654923E-01  0.13003863183E+00  0.20497135555E-01 0.  0.
         14    1    1    2    0    0 -0.15444639034E-01  0.11950587013E-01  0.13817349764E-01  0.23922218947E-01  0.00000000000E+00 0.  1.
     999901    1    3    3    0    0  0.63317312074E-01 -0.84106010906E-01  0.81007305158E-01  0.88996914922E+00  0.88000000000E+00 0.  1.
        -11    1    4    4    0    0 -0.41103100076E-01  0.49406493190E-01 -0.60230466802E-01  0.88081988268E-01  0.51100000000E-03 0. -1.
         11    1    4    4    0    0 -0.67695729647E-02  0.22748930702E-01 -0.34594188121E-01  0.41956643562E-01  0.51100000000E-03 0.  1.
</event>
<event>
 8    1  0.1088088E+005  0.1043930E+01  0.7957747E-01            NaN
         13   -1    0    0    0    0  0.00000000000E+00  0.00000000000E+00  0.74505805969E-08  0.10566000000E+00  0.10566000000E+00 0. -1.
     999900   -1    0    0    0    0 -0.00000000000E+00 -0.00000000000E+00 -0.74505805969E-08  0.93827000000E+00  0.93827000000E+00 0.  1.
     999902    2    1    2    0    0  0.12398506889E-01 -0.15396298841E-01 -0.10845410320E-01  0.10213824521E+01  0.10211335474E+01 0.  0.
     999903    2    3    3    0    0 -0.98778574079E-01 -0.21093501428E-01  0.79089913956E-01  0.12982136951E+00  0.19905551778E-01 0.  0.
         14    1    1    2    0    0 -0.12398506889E-01  0.15396298841E-01  0.10845410320E-01  0.22547547895E-01  0.00000000000E+00 0. -1.
     999901    1    3    3    0    0  0.11117708097E+00  0.56972025873E-02 -0.89935324276E-01  0.89156108260E+00  0.88000000000E+00 0.  1.
        -11    1    4    4    0    0 -0.80636614628E-01 -0.10261117233E-01  0.67840959436E-01  0.10587828410E+00  0.51100000000E-03 0. -1.
         11    1    4    4    0    0 -0.18141959451E-01 -0.10832384196E-01  0.11248954520E-01  0.23943085409E-01  0.51100000000E-03 0.  1.
</event>
<event>
 8    1  0.1088088E+005  0.1043930E+01  0.7957747E-01            NaN
         13   -1    0    0    0    0  0.00000000000E+00  0.00000000000E+00  0.74505805969E-08  0.10566000000E+00  0.10566000000E+00 0.  1.
     999900   -1    0    0    0    0 -0.00000000000E+00 -0.00000000000E+00 -0.74505805969E-08  0.93827000000E+00  0.93827000000E+00 0.  1.
     999902    2    1    2    0    0 -0.76390780100E-03 -0.23538606237E-01 -0.21193058229E-02  0.10202838376E+01  0.10200097883E+01 0.  0.
     999903    2    3    3    0    0 -0.82671158901E-01 -0.10198572363E+00 -0.22989563865E-03  0.13300354487E+00  0.21313886495E-01 0.  0.
         14    1    1    2    0    0  0.76390780100E-03  0.23538606237E-01  0.21193058229E-02  0.23646162392E-01  0.00000000000E+00 0. -1.
     999901    1    3    3    0    0  0.81907251100E-01  0.78447117393E-01 -0.18894101843E-02  0.88728029274E+00  0.88000000000E+00 0.  1.
        -11    1    4    4    0    0 -0.42911173328E-01 -0.40525017788E-01  0.70327538887E-02  0.59442128254E-01  0.51100000000E-03 0. -1.
         11    1    4    4    0    0 -0.39759985574E-01 -0.61460705842E-01 -0.72626495274E-02  0.73561416616E-01  0.51100000000E-03 0.  1.
</event>
<event>
 8    1  0.1088088E+005  0.1043930E+01  0.7957747E-01            NaN
         13   -1    0    0    0    0  0.00000000000E+00  0.00000000000E+00  0.74505805969E-08  0.10566000000E+00  0.10566000000E+00 0.  1.
     999900   -1    0    0    0    0 -0.00000000000E+00 -0.00000000000E+00 -0.74505805969E-08  0.93827000000E+00  0.93827000000E+00 0.  1.
     999902    2    1    2    0    0  0.18309787873E-01  0.60516665218E-02 -0.13159211401E-01  0.10205839973E+01  0.10203169408E+01 0.  0.
     999903    2    3    3    0    0 -0.13311198071E-01 -0.52174917022E-01  0.11529732669E+00  0.12879293206E+00  0.19867960301E-01 0.  0.
         14    1    1    2    0    0 -0.18309787873E-01 -0.60516665218E-02  0.13159211401E-01  0.23346002748E-01  0.00000000000E+00 0.  1.
     999901    1    3    3    0    0  0.31620985944E-01  0.58226583544E-01 -0.12845653809E+00  0.89179106519E+00  0.88000000000E+00 0.  1.
        -11    1    4    4    0    0 -0.10880412246E-01 -0.96452663385E-02  0.34759944036E-01  0.37681950106E-01  0.51100000000E-03 0. -1.
         11    1    4    4    0    0 -0.24307858253E-02 -0.42529650684E-01  0.80537382651E-01  0.91110981952E-01  0.51100000000E-03 0.  1.
</event>
<event>
 8    1  0.1088088E+005  0.1043930E+01  0.7957747E-01            NaN
         13   -1    0    0    0    0  0.00000000000E+00  0.00000000000E+00  0.74505805969E-08  0.10566000000E+00  0.10566000000E+00 0. -1.
     999900   -1    0    0    0    0 -0.00000000000E+00 -0.00000000000E+00 -0.74505805969E-08  0.93827000000E+00  0.93827000000E+00 0.  1.
     999902    2    1    2    0    0 -0.25174983409E-01  0.16163760533E-02 -0.25154242073E-02  0.10185780805E+01  0.10182625331E+01 0.  0.
     999903    2    3    3    0    0  0.12384836765E+00  0.90667926609E-02  0.44760490074E-02  0.12599063465E+00  0.20808174029E-01 0.  0.
         14    1    1    2    0    0  0.25174983409E-01 -0.16163760533E-02  0.25154242073E-02  0.25351919457E-01  0.00000000000E+00 0. -1.
     999901    1    3    3    0    0 -0.14902335106E+00 -0.74504166076E-02 -0.69914732147E-02  0.89258744589E+00  0.88000000000E+00 0.  1.
        -11    1    4    4    0    0  0.75691990727E-01  0.13847361945E-01  0.85512081853E-02  0.77423582812E-01  0.51100000000E-03 0. -1.
         11    1    4    4    0    0  0.48156376922E-01 -0.47805692842E-02 -0.40751591778E-02  0.48567051838E-01  0.51100000000E-03 0.  1.
</event>
<event>
 8    1  0.1088088E+005  0.1043930E+01  0.7957747E-01            NaN
         13   -1    0    0    0    0  0.00000000000E+00  0.00000000000E+00  0.74505805969E-08  0.10566000000E+00  0.10566000000E+00 0.  1.
     999900   -1    0    0    0    0 -0.00000000000E+00 -0.00000000000E+00 -0.74505805969E-08  0.93827000000E+00  0.93827000000E+00 0.  1.
     999902    2    1    2    0    0  0.27330410360E-02  0.22991345409E-01  0.76768565040E-02  0.10195372633E+01  0.10192454198E+01 0.  0.
     999903    2    3    3    0    0  0.49632879155E-01 -0.11543117217E+00  0.77288796503E-02  0.12748323418E+00  0.20111221113E-01 0.  0.
         14    1    1    2    0    0 -0.27330410360E-02 -0.22991345409E-01 -0.76768565040E-02  0.24392736681E-01  0.00000000000E+00 0. -1.
     999901    1    3    3    0    0 -0.46899838119E-01  0.13842251758E+00 -0.52023146255E-04  0.89205402913E+00  0.88000000000E+00 0. -1.
        -11    1    4    4    0    0  0.21821276506E-01 -0.49042902895E-01 -0.66176782680E-02  0.54087237121E-01  0.51100000000E-03 0. -1.
         11    1    4    4    0    0  0.27811602650E-01 -0.66388269279E-01  0.14346557918E-01  0.73395997063E-01  0.51100000000E-03 0.  1.
</event>
<event>
 8    1  0.1088088E+005  0.1043930E+01  0.7957747E-01            NaN
         13   -1    0    0    0    0  0.00000000000E+00  0.00000000000E+00  0.74505805969E-08  0.10566000000E+00  0.10566000000E+00 0.  1.
     999900   -1    0    0    0    0 -0.00000000000E+00 -0.00000000000E+00 -0.74505805969E-08  0.93827000000E+00  0.93827000000E+00 0. -1.
     999902    2    1    2    0    0 -0.59185148231E-02  0.21221565395E-01 -0.82515542477E-02  0.10204040186E+01  0.10201327802E+01 0.  0.
     999903    2    3    3    0    0 -0.23304868364E-01  0.12965326799E+00  0.61584795011E-02  0.13346130987E+00  0.20516032070E-01 0.  0.
         14    1    1    2    0    0  0.59185148231E-02 -0.21221565395E-01  0.82515542477E-02  0.23525981446E-01  0.00000000000E+00 0. -1.
     999901    1    3    3    0    0  0.17386353541E-01 -0.10843170260E+00 -0.14410033749E-01  0.88694270869E+00  0.88000000000E+00 0. -1.
        -11    1    4    4    0    0  0.93047067596E-03  0.79868778203E-02 -0.39865970534E-02  0.89894421441E-02  0.51100000000E-03 0. -1.
         11    1    4    4    0    0 -0.24235339040E-01  0.12166639017E+00  0.10145076554E-01  0.12447186772E+00  0.51100000000E-03 0.  1.
</event>
<event>
 8    1  0.1088088E+005  0.1043930E+01  0.7957747E-01            NaN
         13   -1    0    0    0    0  0.00000000000E+00  0.00000000000E+00  0.74505805969E-08  0.10566000000E+00  0.10566000000E+00 0.  1.
     999900   -1    0    0    0    0 -0.00000000000E+00 -0.00000000000E+00 -0.74505805969E-08  0.93827000000E+00  0.93827000000E+00 0.  1.
     999902    2    1    2    0    0 -0.13172801873E-01  0.11344108711E-01 -0.14898145593E-01  0.10210353226E+01  0.10207786066E+01 0.  0.
     999903    2    3    3    0    0 -0.73690030214E-01 -0.10523875111E+00 -0.14299022068E-01  0.13128577520E+00  0.22936378288E-01 0.  0.
         14    1    1    2    0    0  0.13172801873E-01 -0.11344108711E-01  0.14898145593E-01  0.22894677411E-01  0.00000000000E+00 0. -1.
     999901    1    3    3    0    0  0.60517228341E-01  0.11658285982E+00 -0.59912352533E-03  0.88974954739E+00  0.88000000000E+00 0.  1.
        -11    1    4    4    0    0 -0.31386013478E-01 -0.64687025660E-01 -0.76846038961E-02  0.72310492937E-01  0.51100000000E-03 0.  1.
         11    1    4    4    0    0 -0.42304016736E-01 -0.40551725453E-01 -0.66144181720E-02  0.58975282262E-01  0.51100000000E-03 0. -1.
</event>
<event>
 8    1  0.1088088E+005  0.1043930E+01  0.7957747E-01            NaN
         13   -1    0    0    0    0  0.00000000000E+00  0.00000000000E+00  0.74505805969E-08  0.10566000000E+00  0.10566000000E+00 0. -1.
     999900   -1    0    0    0    0 -0.00000000000E+00 -0.00000000000E+00 -0.74505805969E-08  0.93827000000E+00  0.93827000000E+00 0.  1.
     999902    2    1    2    0    0 -0.16584135044E-01 -0.13828784846E-01  0.72975926891E-02  0.10211369378E+01  0.10208825212E+01 0.  0.
     999903    2    3    3    0    0 -0.42733335132E-01 -0.77200311435E-01  0.98478859163E-01  0.13377356555E+00  0.20279426060E-01 0.  0.
         14    1    1    2    0    0  0.16584135044E-01  0.13828784846E-01 -0.72975926891E-02  0.22793062202E-01  0.00000000000E+00 0. -1.
     999901    1    3    3    0    0  0.26149200088E-01  0.63371526589E-01 -0.91181266474E-01  0.88736337225E+00  0.88000000000E+00 0.  1.
        -11    1    4    4    0    0 -0.30930094649E-01 -0.43862046098E-01  0.47170758848E-01  0.71455520810E-01  0.51100000000E-03 0. -1.
         11    1    4    4    0    0 -0.11803240484E-01 -0.33338265337E-01  0.51308100315E-01  0.62318044743E-01  0.51100000000E-03 0.  1.
</event>
<event>
 8    1  0.1088088E+005  0.1043930E+01  0.7957747E-01            NaN
         13   -1    0    0    0    0  0.00000000000E+00  0.00000000000E+00  0.74505805969E-08  0.10566000000E+00  0.10566000000E+00 0. -1.
     999900   -1    0    0    0    0 -0.00000000000E+00 -0.00000000000E+00 -0.74505805969E-08  0.93827000000E+00  0.93827000000E+00 0. -1.
     999902    2    1    2    0    0 -0.10427228183E-01  0.15718630569E-01  0.13754484127E-01  0.10205850162E+01  0.10203179833E+01 0.  0.
     999903    2    3    3    0    0  0.10450123981E+00 -0.70914575149E-01  0.16367341532E-01  0.12888961300E+00  0.19881055779E-01 0.  0.
         14    1    1    2    0    0  0.10427228183E-01 -0.15718630569E-01 -0.13754484127E-01  0.23344983790E-01  0.00000000000E+00 0. -1.
     999901    1    3    3    0    0 -0.11492846799E+00  0.86633205718E-01 -0.26128574048E-02  0.89169540321E+00  0.88000000000E+00 0.  1.
        -11    1    4    4    0    0  0.33051776384E-01 -0.11994044045E-01  0.64144166965E-02  0.35744690197E-01  0.51100000000E-03 0.  1.
         11    1    4    4    0    0  0.71449463427E-01 -0.58920531103E-01  0.99529248353E-02  0.93144922799E-01  0.51100000000E-03 0. -1.
</event>
<event>
 8    1  0.1088088E+005  0.1043930E+01  0.7957747E-01            NaN
         13   -1    0    0    0    0  0.00000000000E+00  0.00000000000E+00  0.74505805969E-08  0.10566000000E+00  0.10566000000E+00 0.  1.
     999900   -1    0    0    0    0 -0.00000000000E+00 -0.00000000000E+00 -0.74505805969E-08  0.93827000000E+00  0.93827000000E+00 0.  1.
     999902    2    1    2    0    0  0.15324896485E-01 -0.79251531911E-03 -0.18921312569E-01  0.10195682143E+01  0.10192771198E+01 0.  0.
     999903    2    3    3    0    0 -0.53079509522E-01 -0.14104575544E-01  0.11286363041E+00  0.12703045886E+00  0.19549041552E-01 0.  0.
         14    1    1    2    0    0 -0.15324896485E-01  0.79251531911E-03  0.18921312569E-01  0.24361785693E-01  0.00000000000E+00 0.  1.
     999901    1    3    3    0    0  0.68404406007E-01  0.13312060225E-01 -0.13178494298E+00  0.89253775545E+00  0.88000000000E+00 0. -1.
        -11    1    4    4    0    0 -0.28296436073E-01 -0.10242317830E-01  0.40623330003E-01  0.50557980879E-01  0.51100000000E-03 0.  1.
         11    1    4    4    0    0 -0.24783073449E-01 -0.38622577143E-02  0.72240300407E-01  0.76472477978E-01  0.51100000000E-03 0. -1.
</event>
