<event>
 8    1  0.5616615E+005  0.1043930E+01  0.7957747E-01            NaN
         13   -1    0    0    0    0  0.00000000000E+00  0.00000000000E+00  0.74505805969E-08  0.10566000000E+00  0.10566000000E+00 0. -1.
     999900   -1    0    0    0    0 -0.00000000000E+00 -0.00000000000E+00 -0.74505805969E-08  0.93827000000E+00  0.93827000000E+00 0. -1.
     999902    2    1    2    0    0 -0.14830216015E-01 -0.10574223145E-01  0.14129991423E-01  0.10208777515E+01  0.10206174491E+01 0.  0.
     999903    2    3    3    0    0 -0.11649814465E+00 -0.68911841377E-01 -0.10059178841E+00  0.16992197583E+00  0.20835315833E-01 0.  0.
         14    1    1    2    0    0  0.14830216015E-01  0.10574223145E-01 -0.14129991423E-01  0.23052248475E-01  0.00000000000E+00 0.  1.
     999901    1    3    3    0    0  0.10166792864E+00  0.58337618233E-01  0.11472177984E+00  0.85095577569E+00  0.83500000000E+00 0.  1.
        -11    1    4    4    0    0 -0.59914733361E-01 -0.24952951437E-01 -0.41435968472E-01  0.77004062642E-01  0.51100000000E-03 0.  1.
         11    1    4    4    0    0 -0.56583411289E-01 -0.43958889940E-01 -0.59155819941E-01  0.92917913191E-01  0.51100000000E-03 0. -1.
</event>
<event>
 7    1  0.5616615E+005  0.1043930E+01  0.7957747E-01            NaN
         13   -1    0    0    0    0  0.00000000000E+00  0.00000000000E+00  0.74505805969E-08  0.10566000000E+00  0.10566000000E+00 0. -1.
     999900   -1    0    0    0    0 -0.00000000000E+00 -0.00000000000E+00 -0.74505805969E-08  0.93827000000E+00  0.93827000000E+00 0.  1.
     999902    2    1    2    0    0  0.22381923721E-01 -0.42586446672E-02  0.68601772562E-02  0.10201361227E+01  0.10198585982E+01 0.  0.
         14    1    1    2    0    0 -0.22381923721E-01  0.42586446672E-02 -0.68601772562E-02  0.23793877276E-01  0.00000000000E+00 0.  1.
     999901    1    3    3    0    0  0.77782676718E-02 -0.58508518400E-01  0.16092931623E+00  0.85241245474E+00  0.83500000000E+00 0. -1.
        -11    1    3    3    0    0  0.16935668476E-01  0.11376494315E-01 -0.75232873559E-01  0.77951830476E-01  0.51100000000E-03 0. -1.
         11    1    3    3    0    0 -0.23320124269E-02  0.42873379418E-01 -0.78836265411E-01  0.89771837508E-01  0.51100000000E-03 0.  1.
</event>
<event>
 8    1  0.5616615E+005  0.1043930E+01  0.7957747E-01            NaN
         13   -1    0    0    0    0  0.00000000000E+00  0.00000000000E+00  0.74505805969E-08  0.10566000000E+00  0.10566000000E+00 0. -1.
     999900   -1    0    0    0    0 -0.00000000000E+00 -0.00000000000E+00 -0.74505805969E-08  0.93827000000E+00  0.93827000000E+00 0.  1.
     999902    2    1    2    0    0  0.14378756873E-02  0.15564592328E-01  0.18143829860E-01  0.10199816685E+01  0.10197004861E+01 0.  0.
     999903    2    3    3    0    0  0.16814487440E-02 -0.15878327158E+00  0.45879244295E-01  0.16652312221E+00  0.20250693079E-01 0.  0.
         14    1    1    2    0    0 -0.14378756873E-02 -0.15564592328E-01 -0.18143829860E-01  0.23948331525E-01  0.00000000000E+00 0. -1.
     999901    1    3    3    0    0 -0.24357305674E-03  0.17434786391E+00 -0.27735414434E-01  0.85345854626E+00  0.83500000000E+00 0.  1.
        -11    1    4    4    0    0  0.10270227959E-01 -0.78199341555E-01  0.18864143894E-01  0.81097050796E-01  0.51100000000E-03 0.  1.
         11    1    4    4    0    0 -0.85887792147E-02 -0.80583930025E-01  0.27015100400E-01  0.85426071415E-01  0.51100000000E-03 0. -1.
</event>
<event>
 8    1  0.5616615E+005  0.1043930E+01  0.7957747E-01            NaN
         13   -1    0    0    0    0  0.00000000000E+00  0.00000000000E+00  0.74505805969E-08  0.10566000000E+00  0.10566000000E+00 0. -1.
     999900   -1    0    0    0    0 -0.00000000000E+00 -0.00000000000E+00 -0.74505805969E-08  0.93827000000E+00  0.93827000000E+00 0.  1.
     999902    2    1    2    0    0  0.10182091192E-01  0.19336583777E-01 -0.26798678667E-02  0.10219127308E+01  0.10216755205E+01 0.  0.
     999903    2    3    3    0    0 -0.80388312696E-01 -0.73434170467E-01 -0.12635272841E+00  0.16790489277E+00  0.19292040573E-01 0.  0.
         14    1    1    2    0    0 -0.10182091192E-01 -0.19336583777E-01  0.26798678667E-02  0.22017269245E-01  0.00000000000E+00 0. -1.
     999901    1    3    3    0    0  0.90570403887E-01  0.92770754244E-01  0.12367286054E+00  0.85400783798E+00  0.83500000000E+00 0. -1.
        -11    1    4    4    0    0 -0.79982051500E-02 -0.16705951815E-01 -0.18919194715E-01  0.26481260569E-01  0.51100000000E-03 0. -1.
         11    1    4    4    0    0 -0.72390107546E-01 -0.56728218652E-01 -0.10743353370E+00  0.14142363220E+00  0.51100000000E-03 0.  1.
</event>
<event>
 8    1  0.5616615E+005  0.1043930E+01  0.7957747E-01            NaN
         13   -1    0    0    0    0  0.00000000000E+00  0.00000000000E+00  0.74505805969E-08  0.10566000000E+00  0.10566000000E+00 0.  1.
     999900   -1    0    0    0    0 -0.00000000000E+00 -0.00000000000E+00 -0.74505805969E-08  0.93827000000E+00  0.93827000000E+00 0.  1.
     999902    2    1    2    0    0  0.34820464162E-02 -0.46341053739E-02 -0.22600474701E-01  0.10205980254E+01  0.10203312935E+01 0.  0.
     999903    2    3    3    0    0 -0.15380869515E+00 -0.53528382500E-01  0.33926707812E-01  0.16763181857E+00  0.20664042615E-01 0.  0.
         14    1    1    2    0    0 -0.34820464162E-02  0.46341053739E-02  0.22600474701E-01  0.23331974554E-01  0.00000000000E+00 0.  1.
     999901    1    3    3    0    0  0.15729074156E+00  0.48894277126E-01 -0.56527182513E-01  0.85296620688E+00  0.83500000000E+00 0. -1.
        -11    1    4    4    0    0 -0.67265776810E-01 -0.16783373085E-01  0.61985389593E-02  0.69606388703E-01  0.51100000000E-03 0.  1.
         11    1    4    4    0    0 -0.86542918336E-01 -0.36745009415E-01  0.27728168852E-01  0.98025429863E-01  0.51100000000E-03 0. -1.
</event>
<event>
 8    1  0.5616615E+005  0.1043930E+01  0.7957747E-01            NaN
         13   -1    0    0    0    0  0.00000000000E+00  0.00000000000E+00  0.74505805969E-08  0.10566000000E+00  0.10566000000E+00 0.  1.
     999900   -1    0    0    0    0 -0.00000000000E+00 -0.00000000000E+00 -0.74505805969E-08  0.93827000000E+00  0.93827000000E+00 0.  1.
     999902    2    1    2    0    0  0.21144133367E-02  0.90132951105E-02 -0.21571099817E-01  0.10204561299E+01  0.10201861058E+01 0.  0.
     999903    2    3    3    0    0  0.16855134833E-01 -0.14919511390E+00 -0.74312547676E-01  0.16883775882E+00  0.20989437328E-01 0.  0.
         14    1    1    2    0    0 -0.21144133367E-02 -0.90132951105E-02  0.21571099817E-01  0.23473870150E-01  0.00000000000E+00 0.  1.
     999901    1    3    3    0    0 -0.14740721497E-01  0.15820840901E+00  0.52741447859E-01  0.85161837103E+00  0.83500000000E+00 0. -1.
        -11    1    4    4    0    0  0.21460286859E-02 -0.94066475429E-01 -0.52524669906E-01  0.10775996153E+00  0.51100000000E-03 0.  1.
         11    1    4    4    0    0  0.14709106148E-01 -0.55128638472E-01 -0.21787877770E-01  0.61077797293E-01  0.51100000000E-03 0. -1.
</event>
<event>
 8    1  0.5616615E+005  0.1043930E+01  0.7957747E-01            NaN
         13   -1    0    0    0    0  0.00000000000E+00  0.00000000000E+00  0.74505805969E-08  0.10566000000E+00  0.10566000000E+00 0. -1.
     999900   -1    0    0    0    0 -0.00000000000E+00 -0.00000000000E+00 -0.74505805969E-08  0.93827000000E+00  0.93827000000E+00 0. -1.
     999902    2    1    2    0    0  0.16937355403E-01 -0.72825567921E-02  0.14630588457E-01  0.10203935653E+01  0.10201220830E+01 0.  0.
     999903    2    3    3    0    0  0.62263392831E-01  0.84849234432E-02  0.15833629119E+00  0.17175972662E+00  0.21961297025E-01 0.  0.
         14    1    1    2    0    0 -0.16937355403E-01  0.72825567921E-02 -0.14630588457E-01  0.23536434736E-01  0.00000000000E+00 0. -1.
     999901    1    3    3    0    0 -0.45326037428E-01 -0.15767480235E-01 -0.14370570273E+00  0.84863383865E+00  0.83500000000E+00 0. -1.
        -11    1    4    4    0    0  0.36314744751E-01  0.15452271952E-01  0.10101717936E+00  0.10845397661E+00  0.51100000000E-03 0. -1.
         11    1    4    4    0    0  0.25948648080E-01 -0.69673485092E-02  0.57319111824E-01  0.63305750006E-01  0.51100000000E-03 0.  1.
</event>
<event>
 8    1  0.5616615E+005  0.1043930E+01  0.7957747E-01            NaN
         13   -1    0    0    0    0  0.00000000000E+00  0.00000000000E+00  0.74505805969E-08  0.10566000000E+00  0.10566000000E+00 0. -1.
     999900   -1    0    0    0    0 -0.00000000000E+00 -0.00000000000E+00 -0.74505805969E-08  0.93827000000E+00  0.93827000000E+00 0. -1.
     999902    2    1    2    0    0 -0.23854460401E-01 -0.47045684219E-02  0.15391150800E-02  0.10195673827E+01  0.10192762681E+01 0.  0.
     999903    2    3    3    0    0  0.13610526727E+00 -0.87146750901E-01  0.28759662305E-01  0.16496233587E+00  0.16317294729E-01 0.  0.
         14    1    1    2    0    0  0.23854460401E-01  0.47045684219E-02 -0.15391150800E-02  0.24362617271E-01  0.00000000000E+00 0.  1.
     999901    1    3    3    0    0 -0.15995972767E+00  0.82442182479E-01 -0.27220547225E-01  0.85460504686E+00  0.83500000000E+00 0.  1.
        -11    1    4    4    0    0  0.54950107227E-01 -0.26933862931E-01  0.14653938433E-01  0.62928104129E-01  0.51100000000E-03 0. -1.
         11    1    4    4    0    0  0.81155160045E-01 -0.60212887970E-01  0.14105723872E-01  0.10203423174E+00  0.51100000000E-03 0.  1.
</event>
<event>
 8    1  0.5616615E+005  0.1043930E+01  0.7957747E-01            NaN
         13   -1    0    0    0    0  0.00000000000E+00  0.00000000000E+00  0.74505805969E-08  0.10566000000E+00  0.10566000000E+00 0.  1.
     999900   -1    0    0    0    0 -0.00000000000E+00 -0.00000000000E+00 -0.74505805969E-08  0.93827000000E+00  0.93827000000E+00 0. -1.
     999902    2    1    2    0    0 -0.22539524203E-01  0.61837701815E-02  0.30953970702E-02  0.10203535149E+01  0.10200810972E+01 0.  0.
     999903    2    3    3    0    0 -0.92459325821E-01 -0.73559620781E-01 -0.12013884364E+00  0.16967175003E+00  0.19885076455E-01 0.  0.
         14    1    1    2    0    0  0.22539524203E-01 -0.61837701815E-02 -0.30953970702E-02  0.23576485064E-01  0.00000000000E+00 0. -1.
     999901    1    3    3    0    0  0.69919801618E-01  0.79743390963E-01  0.12323424071E+00  0.85068176491E+00  0.83500000000E+00 0.  1.
        -11    1    4    4    0    0 -0.96936937511E-02 -0.16740700693E-01 -0.17351812422E-01  0.25991638532E-01  0.51100000000E-03 0.  1.
         11    1    4    4    0    0 -0.82765632070E-01 -0.56818920088E-01 -0.10278703122E+00  0.14368011150E+00  0.51100000000E-03 0. -1.
</event>
<event>
 8    1  0.5616615E+005  0.1043930E+01  0.7957747E-01            NaN
         13   -1    0    0    0    0  0.00000000000E+00  0.00000000000E+00  0.74505805969E-08  0.10566000000E+00  0.10566000000E+00 0. -1.
     999900   -1    0    0    0    0 -0.00000000000E+00 -0.00000000000E+00 -0.74505805969E-08  0.93827000000E+00  0.93827000000E+00 0. -1.
     999902    2    1    2    0    0  0.21824532514E-01 -0.84356973411E-02 -0.56675205435E-02  0.10198552830E+01  0.10195710894E+01 0.  0.
     999903    2    3    3    0    0  0.65440273940E-01  0.10984391166E+00 -0.10894907070E+00  0.16910004358E+00  0.19411603538E-01 0.  0.
         14    1    1    2    0    0 -0.21824532514E-01  0.84356973411E-02  0.56675205435E-02  0.24074716991E-01  0.00000000000E+00 0.  1.
     999901    1    3    3    0    0 -0.43615741426E-01 -0.11827960900E+00  0.10328155015E+00  0.85075523942E+00  0.83500000000E+00 0.  1.
        -11    1    4    4    0    0  0.39921322841E-01  0.53693962439E-01 -0.65662288370E-01  0.93747271185E-01  0.51100000000E-03 0.  1.
         11    1    4    4    0    0  0.25518951099E-01  0.56149949223E-01 -0.43286782328E-01  0.75352772399E-01  0.51100000000E-03 0. -1.
</event>
<event>
 8    1  0.5616615E+005  0.1043930E+01  0.7957747E-01            NaN
         13   -1    0    0    0    0  0.00000000000E+00  0.00000000000E+00  0.74505805969E-08  0.10566000000E+00  0.10566000000E+00 0.  1.
     999900   -1    0    0    0    0 -0.00000000000E+00 -0.00000000000E+00 -0.74505805969E-08  0.93827000000E+00  0.93827000000E+00 0. -1.
     999902    2    1    2    0    0 -0.10554922588E-01  0.66617589065E-02 -0.19969326711E-01  0.10203809144E+01  0.10201091368E+01 0.  0.
     999903    2    3    3    0    0 -0.13351157704E+00 -0.84095438838E-01 -0.61766225470E-01  0.17048257428E+00  0.18757864733E-01 0.  0.
         14    1    1    2    0    0  0.10554922588E-01 -0.66617589065E-02  0.19969326711E-01  0.23549085584E-01  0.00000000000E+00 0.  1.
     999901    1    3    3    0    0  0.12295665445E+00  0.90757197745E-01  0.41796898759E-01  0.84989834013E+00  0.83500000000E+00 0.  1.
        -11    1    4    4    0    0 -0.34056096068E-01 -0.30596721472E-01 -0.14142581737E-01  0.47919211006E-01  0.51100000000E-03 0. -1.
         11    1    4    4    0    0 -0.99455480967E-01 -0.53498717366E-01 -0.47623643733E-01  0.12256336328E+00  0.51100000000E-03 0.  1.
</event>
<event>
 8    1  0.5616615E+005  0.1043930E+01  0.7957747E-01            NaN
         13   -1    0    0    0    0  0.00000000000E+00  0.00000000000E+00  0.74505805969E-08  0.10566000000E+00  0.10566000000E+00 0.  1.
     999900   -1    0    0    0    0 -0.00000000000E+00 -0.00000000000E+00 -0.74505805969E-08  0.93827000000E+00  0.93827000000E+00 0.  1.
     999902    2    1    2    0    0  0.76309261077E-02 -0.16432132505E-01  0.16094525898E-01  0.10196961440E+01  0.10194081353E+01 0.  0.
     999903    2    3    3    0    0  0.85584174692E-01 -0.14201781324E+00 -0.33905227425E-01  0.17024134975E+00  0.18407674585E-01 0.  0.
         14    1    1    2    0    0 -0.76309261077E-02  0.16432132505E-01 -0.16094525898E-01  0.24233855983E-01  0.00000000000E+00 0. -1.
     999901    1    3    3    0    0 -0.77953248584E-01  0.12558568073E+00  0.49999753323E-01  0.84945479427E+00  0.83500000000E+00 0. -1.
        -11    1    4    4    0    0  0.63254556321E-01 -0.89257166606E-01 -0.25529310484E-01  0.11233871773E+00  0.51100000000E-03 0. -1.
         11    1    4    4    0    0  0.22329618371E-01 -0.52760646632E-01 -0.83759169414E-02  0.57902632023E-01  0.51100000000E-03 0.  1.
</event>
<event>
 8    1  0.5616615E+005  0.1043930E+01  0.7957747E-01            NaN
         13   -1    0    0    0    0  0.00000000000E+00  0.00000000000E+00  0.74505805969E-08  0.10566000000E+00  0.10566000000E+00 0.  1.
     999900   -1    0    0    0    0 -0.00000000000E+00 -0.00000000000E+00 -0.74505805969E-08  0.93827000000E+00  0.93827000000E+00 0.  1.
     999902    2    1    2    0    0 -0.52467956306E-02 -0.50014813373E-02  0.22085452094E-01  0.10206854119E+01  0.10204206972E+01 0.  0.
     999903    2    3    3    0    0  0.10722334275E+00  0.10886505648E+00  0.69619269168E-01  0.16915761778E+00  0.20469764538E-01 0.  0.
         14    1    1    2    0    0  0.52467956306E-02  0.50014813373E-02 -0.22085452094E-01  0.23244588061E-01  0.00000000000E+00 0. -1.
     999901    1    3    3    0    0 -0.11247013838E+00 -0.11386653782E+00 -0.47533817074E-01  0.85152779416E+00  0.83500000000E+00 0. -1.
        -11    1    4    4    0    0  0.76476787777E-02  0.17054303730E-01  0.74294589291E-02  0.20119499183E-01  0.51100000000E-03 0. -1.
         11    1    4    4    0    0  0.99575663970E-01  0.91810752752E-01  0.62189810239E-01  0.14903811860E+00  0.51100000000E-03 0.  1.
</event>
<event>
 8    1  0.5616615E+005  0.1043930E+01  0.7957747E-01            NaN
         13   -1    0    0    0    0  0.00000000000E+00  0.00000000000E+00  0.74505805969E-08  0.10566000000E+00  0.10566000000E+00 0. -1.
     999900   -1    0    0    0    0 -0.00000000000E+00 -0.00000000000E+00 -0.74505805969E-08  0.93827000000E+00  0.93827000000E+00 0. -1.
     999902    2    1    2    0    0 -0.22514221265E-01 -0.42339972102E-02  0.33235380663E-02  0.10207812895E+01  0.10205187790E+01 0.  0.
     999903    2    3    3    0    0  0.15879514609E+00  0.14248175719E-01  0.38996903453E-01  0.16537947376E+00  0.20265806941E-01 0.  0.
         14    1    1    2    0    0  0.22514221265E-01  0.42339972102E-02 -0.33235380663E-02  0.23148710478E-01  0.00000000000E+00 0.  1.
     999901    1    3    3    0    0 -0.18130936735E+00 -0.18482172930E-01 -0.35673365386E-01  0.85540181576E+00  0.83500000000E+00 0. -1.
        -11    1    4    4    0    0  0.78398324639E-01 -0.31142154982E-02  0.19480278550E-01  0.80843911445E-01  0.51100000000E-03 0.  1.
         11    1    4    4    0    0  0.80396821448E-01  0.17362391218E-01  0.19516624902E-01  0.84535562318E-01  0.51100000000E-03 0. -1.
</event>
<event>
 8    1  0.5616615E+005  0.1043930E+01  0.7957747E-01            NaN
         13   -1    0    0    0    0  0.00000000000E+00  0.00000000000E+00  0.74505805969E-08  0.10566000000E+00  0.10566000000E+00 0. -1.
     999900   -1    0    0    0    0 -0.00000000000E+00 -0.00000000000E+00 -0.74505805969E-08  0.93827000000E+00  0.93827000000E+00 0. -1.
     999902    2    1    2    0    0  0.13347798179E-01 -0.14558322869E-01 -0.11771939363E-01  0.10209368045E+01  0.10206778492E+01 0.  0.
     999903    2    3    3    0    0  0.15334918869E+00  0.67200565743E-01 -0.23235506923E-01  0.17026570559E+00  0.20460498763E-01 0.  0.
         14    1    1    2    0    0 -0.13347798179E-01  0.14558322869E-01  0.11771939363E-01  0.22993195458E-01  0.00000000000E+00 0. -1.
     999901    1    3    3    0    0 -0.14000139051E+00 -0.81758888612E-01  0.11463567561E-01  0.85067109895E+00  0.83500000000E+00 0.  1.
        -11    1    4    4    0    0  0.81522507243E-01  0.24603841851E-01 -0.10925884902E-01  0.85853970805E-01  0.51100000000E-03 0. -1.
         11    1    4    4    0    0  0.71826681447E-01  0.42596723891E-01 -0.12309622022E-01  0.84411734785E-01  0.51100000000E-03 0.  1.
</event>
<event>
 8    1  0.5616615E+005  0.1043930E+01  0.7957747E-01            NaN
         13   -1    0    0    0    0  0.00000000000E+00  0.00000000000E+00  0.74505805969E-08  0.10566000000E+00  0.10566000000E+00 0.  1.
     999900   -1    0    0    0    0 -0.00000000000E+00 -0.00000000000E+00 -0.74505805969E-08  0.93827000000E+00  0.93827000000E+00 0. -1.
     999902    2    1    2    0    0 -0.41809947307E-02 -0.14192988768E-01  0.18662737646E-01  0.10201136312E+01  0.10198355755E+01 0.  0.
     999903    2    3    3    0    0  0.14950633478E+00 -0.49310622353E-01 -0.52902182862E-01  0.16735365248E+00  0.20613646684E-01 0.  0.
         14    1    1    2    0    0  0.41809947307E-02  0.14192988768E-01 -0.18662737646E-01  0.23816368816E-01  0.00000000000E+00 0. -1.
     999901    1    3    3    0    0 -0.15368732951E+00  0.35117633585E-01  0.71564920508E-01  0.85275997871E+00  0.83500000000E+00 0.  1.
        -11    1    4    4    0    0  0.13062593620E+00 -0.35845769446E-01 -0.42832466957E-01  0.14206665950E+00  0.51100000000E-03 0.  1.
         11    1    4    4    0    0  0.18880398580E-01 -0.13464852906E-01 -0.10069715905E-01  0.25286992975E-01  0.51100000000E-03 0. -1.
</event>
<event>
 8    1  0.5616615E+005  0.1043930E+01  0.7957747E-01            NaN
         13   -1    0    0    0    0  0.00000000000E+00  0.00000000000E+00  0.74505805969E-08  0.10566000000E+00  0.10566000000E+00 0.  1.
     999900   -1    0    0    0    0 -0.00000000000E+00 -0.00000000000E+00 -0.74505805969E-08  0.93827000000E+00  0.93827000000E+00 0.  1.
     999902    2    1    2    0    0 -0.78248083632E-02 -0.20252528491E-01 -0.38346459467E-02  0.10218823914E+01  0.10216445198E+01 0.  0.
     999903    2    3    3    0    0 -0.15678035004E+00  0.51460862018E-01 -0.36025788034E-01  0.17006560744E+00  0.19903641727E-01 0.  0.
         14    1    1    2    0    0  0.78248083632E-02  0.20252528491E-01  0.38346459467E-02  0.22047608617E-01  0.00000000000E+00 0.  1.
     999901    1    3    3    0    0  0.14895554167E+00 -0.71713390509E-01  0.32191142087E-01  0.85181678394E+00  0.83500000000E+00 0. -1.
        -11    1    4    4    0    0 -0.10221495422E+00  0.42824401091E-01 -0.20808399180E-01  0.11276114931E+00  0.51100000000E-03 0. -1.
         11    1    4    4    0    0 -0.54565395814E-01  0.86364609271E-02 -0.15217388854E-01  0.57304458135E-01  0.51100000000E-03 0.  1.
</event>
<event>
 8    1  0.6067406E+005  0.1043930E+01  0.7957747E-01            NaN
         13   -1    0    0    0    0  0.00000000000E+00  0.00000000000E+00  0.74505805969E-08  0.10566000000E+00  0.10566000000E+00 0. -1.
     999900   -1    0    0    0    0 -0.00000000000E+00 -0.00000000000E+00 -0.74505805969E-08  0.93827000000E+00  0.93827000000E+00 0.  1.
     999902    2    1    2    0    0  0.15429716990E-01  0.16660547076E-01  0.84214621222E-02  0.10197107717E+01  0.10194231148E+01 0.  0.
     999903    2    3    3    0    0 -0.33133938700E-01  0.14427584091E+00 -0.78797581565E-01  0.16913669882E+00  0.22017898681E-01 0.  0.
         14    1    1    2    0    0 -0.15429716990E-01 -0.16660547076E-01 -0.84214621222E-02  0.24219228302E-01  0.00000000000E+00 0.  1.
     999901    1    3    3    0    0  0.48563655691E-01 -0.12761529383E+00  0.87219043687E-01  0.85057407288E+00  0.83500000000E+00 0. -1.
        -11    1    4    4    0    0 -0.30324890766E-01  0.84075214914E-01 -0.45949449608E-01  0.10049802885E+00  0.51100000000E-03 0.  1.
         11    1    4    4    0    0 -0.28090479338E-02  0.60200625996E-01 -0.32848131957E-01  0.68638669966E-01  0.51100000000E-03 0. -1.
</event>
<event>
 8    1  0.5775393E+005  0.1043930E+01  0.7957747E-01            NaN
         13   -1    0    0    0    0  0.00000000000E+00  0.00000000000E+00  0.74505805969E-08  0.10566000000E+00  0.10566000000E+00 0.  1.
     999900   -1    0    0    0    0 -0.00000000000E+00 -0.00000000000E+00 -0.74505805969E-08  0.93827000000E+00  0.93827000000E+00 0.  1.
     999902    2    1    2    0    0 -0.21702346954E-01 -0.52175193505E-02  0.86851770093E-02  0.10199790779E+01  0.10196978340E+01 0.  0.
     999903    2    3    3    0    0 -0.24212272667E-03  0.12422781762E+00 -0.10910136288E+00  0.16656516570E+00  0.20204894192E-01 0.  0.
         14    1    1    2    0    0  0.21702346954E-01  0.52175193505E-02 -0.86851770093E-02  0.23950922136E-01  0.00000000000E+00 0. -1.
     999901    1    3    3    0    0 -0.21460224227E-01 -0.12944533697E+00  0.11778653989E+00  0.85341391216E+00  0.83500000000E+00 0. -1.
        -11    1    4    4    0    0 -0.51262892211E-02  0.77114664478E-01 -0.56224256056E-01  0.95573942101E-01  0.51100000000E-03 0.  1.
         11    1    4    4    0    0  0.48841664944E-02  0.47113153142E-01 -0.52877106828E-01  0.70991223604E-01  0.51100000000E-03 0. -1.
</event>
<event>
 8    1  0.5616615E+005  0.1043930E+01  0.7957747E-01            NaN
         13   -1    0    0    0    0  0.00000000000E+00  0.00000000000E+00  0.74505805969E-08  0.10566000000E+00  0.10566000000E+00 0. -1.
     999900   -1    0    0    0    0 -0.00000000000E+00 -0.00000000000E+00 -0.74505805969E-08  0.93827000000E+00  0.93827000000E+00 0.  1.
     999902    2    1    2    0    0 -0.54350507305E-02 -0.23647956120E-01 -0.59641789508E-02  0.10189432628E+01  0.10186368518E+01 0.  0.
     999903    2    3    3    0    0 -0.13774985922E+00 -0.28902514890E-01  0.89695170217E-01  0.16811394384E+00  0.20166692117E-01 0.  0.
         14    1    1    2    0    0  0.54350507305E-02  0.23647956120E-01  0.59641789508E-02  0.24986737195E-01  0.00000000000E+00 0.  1.
     999901    1    3    3    0    0  0.13231480849E+00  0.52545587692E-02 -0.95659349167E-01  0.85082931897E+00  0.83500000000E+00 0.  1.
        -11    1    4    4    0    0 -0.55705253821E-01 -0.19511336028E-01  0.44922380962E-01  0.74175797732E-01  0.51100000000E-03 0.  1.
         11    1    4    4    0    0 -0.82044605396E-01 -0.93911788616E-02  0.44772789254E-01  0.93938146104E-01  0.51100000000E-03 0. -1.
</event>
<event>
 8    1  0.5616615E+005  0.1043930E+01  0.7957747E-01            NaN
         13   -1    0    0    0    0  0.00000000000E+00  0.00000000000E+00  0.74505805969E-08  0.10566000000E+00  0.10566000000E+00 0. -1.
     999900   -1    0    0    0    0 -0.00000000000E+00 -0.00000000000E+00 -0.74505805969E-08  0.93827000000E+00  0.93827000000E+00 0.  1.
     999902    2    1    2    0    0 -0.10448180356E-01 -0.10568041213E-01 -0.18801530711E-01  0.10199644930E+01  0.10196829024E+01 0.  0.
     999903    2    3    3    0    0 -0.68287730279E-01 -0.14914483340E+00 -0.44491322865E-01  0.17118071237E+00  0.20395172044E-01 0.  0.
         14    1    1    2    0    0  0.10448180356E-01  0.10568041213E-01  0.18801530711E-01  0.23965506982E-01  0.00000000000E+00 0. -1.
     999901    1    3    3    0    0  0.57839549923E-01  0.13857679218E+00  0.25689792154E-01  0.84878378065E+00  0.83500000000E+00 0. -1.
        -11    1    4    4    0    0 -0.33419402194E-01 -0.50693762753E-01 -0.13059025182E-01  0.62108882495E-01  0.51100000000E-03 0.  1.
         11    1    4    4    0    0 -0.34868328085E-01 -0.98451070643E-01 -0.31432297683E-01  0.10907182988E+00  0.51100000000E-03 0. -1.
</event>
<event>
 8    1  0.5616615E+005  0.1043930E+01  0.7957747E-01            NaN
         13   -1    0    0    0    0  0.00000000000E+00  0.00000000000E+00  0.74505805969E-08  0.10566000000E+00  0.10566000000E+00 0. -1.
     999900   -1    0    0    0    0 -0.00000000000E+00 -0.00000000000E+00 -0.74505805969E-08  0.93827000000E+00  0.93827000000E+00 0. -1.
     999902    2    1    2    0    0 -0.23793562940E-01  0.85520590493E-02 -0.48765808807E-02  0.10181801963E+01  0.10178545376E+01 0.  0.
     999903    2    3    3    0    0 -0.53440541296E-01 -0.30802617957E-02  0.15686953462E+00  0.16706266026E+00  0.20892632509E-01 0.  0.
         14    1    1    2    0    0  0.23793562940E-01 -0.85520590493E-02  0.48765808807E-02  0.25749803736E-01  0.00000000000E+00 0. -1.
     999901    1    3    3    0    0  0.29646978356E-01  0.11632320845E-01 -0.16174611550E+00  0.85111753600E+00  0.83500000000E+00 0. -1.
        -11    1    4    4    0    0 -0.20286942831E-01  0.87903332028E-02  0.55158917871E-01  0.59427244164E-01  0.51100000000E-03 0.  1.
         11    1    4    4    0    0 -0.33153598464E-01 -0.11870594998E-01  0.10171061675E+00  0.10763541610E+00  0.51100000000E-03 0. -1.
</event>
<event>
 8    1  0.5616615E+005  0.1043930E+01  0.7957747E-01            NaN
         13   -1    0    0    0    0  0.00000000000E+00  0.00000000000E+00  0.74505805969E-08  0.10566000000E+00  0.10566000000E+00 0.  1.
     999900   -1    0    0    0    0 -0.00000000000E+00 -0.00000000000E+00 -0.74505805969E-08  0.93827000000E+00  0.93827000000E+00 0. -1.
     999902    2    1    2    0    0 -0.10765174035E-01  0.45439120871E-02 -0.20930273358E-01  0.10199589247E+01  0.10196772017E+01 0.  0.
     999903    2    3    3    0    0  0.26907894956E-01 -0.11444026252E+00 -0.12083001567E+00  0.16979338054E+00  0.20230938970E-01 0.  0.
         14    1    1    2    0    0  0.10765174035E-01 -0.45439120871E-02  0.20930273358E-01  0.23971075318E-01  0.00000000000E+00 0.  1.
     999901    1    3    3    0    0 -0.37673068991E-01  0.11898417461E+00  0.99899742311E-01  0.85016554414E+00  0.83500000000E+00 0.  1.
        -11    1    4    4    0    0  0.26433703880E-02 -0.21331402636E-01 -0.12373713584E-01  0.24806975920E-01  0.51100000000E-03 0.  1.
         11    1    4    4    0    0  0.24264524568E-01 -0.93108859885E-01 -0.10845630208E+00  0.14498640462E+00  0.51100000000E-03 0. -1.
</event>
<event>
 8    1  0.5616615E+005  0.1043930E+01  0.7957747E-01            NaN
         13   -1    0    0    0    0  0.00000000000E+00  0.00000000000E+00  0.74505805969E-08  0.10566000000E+00  0.10566000000E+00 0. -1.
     999900   -1    0    0    0    0 -0.00000000000E+00 -0.00000000000E+00 -0.74505805969E-08  0.93827000000E+00  0.93827000000E+00 0. -1.
     999902    2    1    2    0    0  0.18357230608E-01  0.15418273275E-01  0.23048780202E-02  0.10198463224E+01  0.10195619146E+01 0.  0.
     999903    2    3    3    0    0  0.14111599703E+00  0.89235127653E-01 -0.34861127111E-01  0.17183396710E+00  0.20856208652E-01 0.  0.
         14    1    1    2    0    0 -0.18357230608E-01 -0.15418273275E-01 -0.23048780202E-02  0.24083677648E-01  0.00000000000E+00 0.  1.
     999901    1    3    3    0    0 -0.12275876643E+00 -0.73816854379E-01  0.37166005131E-01  0.84801235525E+00  0.83500000000E+00 0.  1.
        -11    1    4    4    0    0  0.77572910869E-01  0.59626860645E-01 -0.25468990167E-01  0.10110316312E+00  0.51100000000E-03 0. -1.
         11    1    4    4    0    0  0.63543086165E-01  0.29608267008E-01 -0.93921369439E-02  0.70730803982E-01  0.51100000000E-03 0.  1.
</event>
<event>
 8    1  0.5616615E+005  0.1043930E+01  0.7957747E-01            NaN
         13   -1    0    0    0    0  0.00000000000E+00  0.00000000000E+00  0.74505805969E-08  0.10566000000E+00  0.10566000000E+00 0. -1.
     999900   -1    0    0    0    0 -0.00000000000E+00 -0.00000000000E+00 -0.74505805969E-08  0.93827000000E+00  0.93827000000E+00 0. -1.
     999902    2    1    2    0    0  0.28132920461E-02  0.68174376799E-02 -0.22609077324E-01  0.10201484432E+01  0.10198712093E+01 0.  0.
     999903    2    3    3    0    0 -0.17575875126E-01 -0.97669858273E-01  0.12992711293E+00  0.16468038268E+00  0.19755028823E-01 0.  0.
         14    1    1    2    0    0 -0.28132920461E-02 -0.68174376799E-02  0.22609077324E-01  0.23781556847E-01  0.00000000000E+00 0. -1.
     999901    1    3    3    0    0  0.20389167172E-01  0.10448729595E+00 -0.15253619025E+00  0.85546806047E+00  0.83500000000E+00 0. -1.
        -11    1    4    4    0    0  0.25876237733E-02 -0.38668637386E-01  0.52882445735E-01  0.65565032616E-01  0.51100000000E-03 0.  1.
         11    1    4    4    0    0 -0.20163498899E-01 -0.59001220887E-01  0.77044667194E-01  0.99115350063E-01  0.51100000000E-03 0. -1.
</event>
<event>
 8    1  0.5616615E+005  0.1043930E+01  0.7957747E-01            NaN
         13   -1    0    0    0    0  0.00000000000E+00  0.00000000000E+00  0.74505805969E-08  0.10566000000E+00  0.10566000000E+00 0. -1.
     999900   -1    0    0    0    0 -0.00000000000E+00 -0.00000000000E+00 -0.74505805969E-08  0.93827000000E+00  0.93827000000E+00 0.  1.
     999902    2    1    2    0    0 -0.17597562248E-01 -0.90983001442E-02  0.14176653843E-01  0.10195695653E+01  0.10192785035E+01 0.  0.
     999903    2    3    3    0    0 -0.12149943612E+00  0.43860874239E-01  0.11019211211E+00  0.17101535860E+00  0.20446565512E-01 0.  0.
         14    1    1    2    0    0  0.17597562248E-01  0.90983001442E-02 -0.14176653843E-01  0.24360434659E-01  0.00000000000E+00 0.  1.
     999901    1    3    3    0    0  0.10390187387E+00 -0.52959174383E-01 -0.96015458270E-01  0.84855420674E+00  0.83500000000E+00 0.  1.
        -11    1    4    4    0    0 -0.56427966712E-01  0.30670758579E-01  0.49974450458E-01  0.81378852773E-01  0.51100000000E-03 0.  1.
         11    1    4    4    0    0 -0.65071469403E-01  0.13190115660E-01  0.60217661655E-01  0.89636505831E-01  0.51100000000E-03 0. -1.
</event>
<event>
 8    1  0.5616615E+005  0.1043930E+01  0.7957747E-01            NaN
         13   -1    0    0    0    0  0.00000000000E+00  0.00000000000E+00  0.74505805969E-08  0.10566000000E+00  0.10566000000E+00 0. -1.
     999900   -1    0    0    0    0 -0.00000000000E+00 -0.00000000000E+00 -0.74505805969E-08  0.93827000000E+00  0.93827000000E+00 0. -1.
     999902    2    1    2    0    0  0.12554383346E-01  0.18160815573E-01 -0.92610350297E-02  0.10199885186E+01  0.10197074990E+01 0.  0.
     999903    2    3    3    0    0 -0.87698128511E-01 -0.73065090241E-01 -0.12005354386E+00  0.16683395341E+00  0.19779925706E-01 0.  0.
         14    1    1    2    0    0 -0.12554383346E-01 -0.18160815573E-01  0.92610350297E-02  0.23941481435E-01  0.00000000000E+00 0.  1.
     999901    1    3    3    0    0  0.10025251186E+00  0.91225905813E-01  0.11079250883E+00  0.85315456515E+00  0.83500000000E+00 0. -1.
        -11    1    4    4    0    0 -0.49648130376E-01 -0.40282296085E-01 -0.52954327961E-01  0.83018204019E-01  0.51100000000E-03 0. -1.
         11    1    4    4    0    0 -0.38049998136E-01 -0.32782794155E-01 -0.67099215904E-01  0.83815749395E-01  0.51100000000E-03 0.  1.
</event>
<event>
 8    1  0.5616615E+005  0.1043930E+01  0.7957747E-01            NaN
         13   -1    0    0    0    0  0.00000000000E+00  0.00000000000E+00  0.74505805969E-08  0.10566000000E+00  0.10566000000E+00 0. -1.
     999900   -1    0    0    0    0 -0.00000000000E+00 -0.00000000000E+00 -0.74505805969E-08  0.93827000000E+00  0.93827000000E+00 0.  1.
     999902    2    1    2    0    0  0.19740644924E-01 -0.12166185372E-01  0.21485449913E-02  0.10206421196E+01  0.10203764065E+01 0.  0.
     999903    2    3    3    0    0 -0.10394920465E+00  0.12611346182E+00  0.13492997762E-01  0.16520414035E+00  0.20007613597E-01 0.  0.
         14    1    1    2    0    0 -0.19740644924E-01  0.12166185372E-01 -0.21485449913E-02  0.23287880413E-01  0.00000000000E+00 0.  1.
     999901    1    3    3    0    0  0.12368984957E+00 -0.13827964719E+00 -0.11344452770E-01  0.85543797924E+00  0.83500000000E+00 0.  1.
        -11    1    4    4    0    0 -0.44268290297E-01  0.50716946814E-01  0.15255781649E-01  0.69028184206E-01  0.51100000000E-03 0. -1.
         11    1    4    4    0    0 -0.59680914351E-01  0.75396515001E-01 -0.17627838874E-02  0.96175956144E-01  0.51100000000E-03 0.  1.
</event>
<event>
 8    1  0.5616615E+005  0.1043930E+01  0.7957747E-01            NaN
         13   -1    0    0    0    0  0.00000000000E+00  0.00000000000E+00  0.74505805969E-08  0.10566000000E+00  0.10566000000E+00 0. -1.
     999900   -1    0    0    0    0 -0.00000000000E+00 -0.00000000000E+00 -0.74505805969E-08  0.93827000000E+00  0.93827000000E+00 0. -1.
     999902    2    1    2    0    0 -0.11176979543E-01 -0.12988002089E-01 -0.16173114935E-01  0.10203676844E+01  0.10200955978E+01 0.  0.
     999903    2    3    3    0    0  0.11521614264E+00  0.11182525992E-01 -0.12142757851E+00  0.16897885556E+00  0.20233348463E-01 0.  0.
         14    1    1    2    0    0  0.11176979543E-01  0.12988002089E-01  0.16173114935E-01  0.23562315605E-01  0.00000000000E+00 0. -1.
     999901    1    3    3    0    0 -0.12639312219E+00 -0.24170528081E-01  0.10525446357E+00  0.85138882884E+00  0.83500000000E+00 0.  1.
        -11    1    4    4    0    0  0.45628633480E-01  0.88483318453E-02 -0.61657175737E-01  0.77214853562E-01  0.51100000000E-03 0. -1.
         11    1    4    4    0    0  0.69587509164E-01  0.23341941467E-02 -0.59770402772E-01  0.91764001997E-01  0.51100000000E-03 0.  1.
</event>
<event>
 8    1  0.5616615E+005  0.1043930E+01  0.7957747E-01            NaN
         13   -1    0    0    0    0  0.00000000000E+00  0.00000000000E+00  0.74505805969E-08  0.10566000000E+00  0.10566000000E+00 0.  1.
     999900   -1    0    0    0    0 -0.00000000000E+00 -0.00000000000E+00 -0.74505805969E-08  0.93827000000E+00  0.93827000000E+00 0.  1.
     999902    2    1    2    0    0  0.17839469480E-01  0.66127956702E-02  0.14647225649E-01  0.10199192325E+01  0.10196365646E+01 0.  0.
     999903    2    3    3    0    0 -0.63925674012E-01 -0.65741656364E-01 -0.13530429450E+00  0.16456482417E+00  0.19127782470E-01 0.  0.
         14    1    1    2    0    0 -0.17839469480E-01 -0.66127956702E-02 -0.14647225649E-01  0.24010767524E-01  0.00000000000E+00 0. -1.
     999901    1    3    3    0    0  0.81765143492E-01  0.72354452034E-01  0.14995152015E+00  0.85535440831E+00  0.83500000000E+00 0. -1.
        -11    1    4    4    0    0 -0.32518480594E-01 -0.27256709222E-01 -0.47595014020E-01  0.63764616037E-01  0.51100000000E-03 0. -1.
         11    1    4    4    0    0 -0.31407193419E-01 -0.38484947142E-01 -0.87709280483E-01  0.10080020813E+00  0.51100000000E-03 0.  1.
</event>
<event>
 8    1  0.5616615E+005  0.1043930E+01  0.7957747E-01            NaN
         13   -1    0    0    0    0  0.00000000000E+00  0.00000000000E+00  0.74505805969E-08  0.10566000000E+00  0.10566000000E+00 0. -1.
     999900   -1    0    0    0    0 -0.00000000000E+00 -0.00000000000E+00 -0.74505805969E-08  0.93827000000E+00  0.93827000000E+00 0.  1.
     999902    2    1    2    0    0 -0.21629439161E-01  0.76924520530E-02 -0.71768295643E-02  0.10198776958E+01  0.10195940373E+01 0.  0.
     999903    2    3    3    0    0  0.12087784642E+00  0.57369246730E-01 -0.97141929138E-01  0.16659296630E+00  0.20346444409E-01 0.  0.
         14    1    1    2    0    0  0.21629439161E-01 -0.76924520530E-02  0.71768295643E-02  0.24052304247E-01  0.00000000000E+00 0. -1.
     999901    1    3    3    0    0 -0.14250728558E+00 -0.49676794677E-01  0.89965099574E-01  0.85328472945E+00  0.83500000000E+00 0. -1.
        -11    1    4    4    0    0  0.48303756254E-01  0.22813307482E-01 -0.26750287324E-01  0.59745617910E-01  0.51100000000E-03 0.  1.
         11    1    4    4    0    0  0.72574090162E-01  0.34555939249E-01 -0.70391641814E-01  0.10684734839E+00  0.51100000000E-03 0. -1.
</event>
<event>
 8    1  0.5616615E+005  0.1043930E+01  0.7957747E-01            NaN
         13   -1    0    0    0    0  0.00000000000E+00  0.00000000000E+00  0.74505805969E-08  0.10566000000E+00  0.10566000000E+00 0. -1.
     999900   -1    0    0    0    0 -0.00000000000E+00 -0.00000000000E+00 -0.74505805969E-08  0.93827000000E+00  0.93827000000E+00 0. -1.
     999902    2    1    2    0    0  0.66129195570E-02  0.11573623666E-01 -0.18137931583E-01  0.10214208012E+01  0.10211727518E+01 0.  0.
     999903    2    3    3    0    0  0.41716473197E-01  0.16458400340E+00 -0.14694444402E-01  0.17178482418E+00  0.21585662171E-01 0.  0.
         14    1    1    2    0    0 -0.66129195570E-02 -0.11573623666E-01  0.18137931583E-01  0.22509198829E-01  0.00000000000E+00 0. -1.
     999901    1    3    3    0    0 -0.35103553640E-01 -0.15301037974E+00 -0.34434871814E-02  0.84963597699E+00  0.83500000000E+00 0.  1.
        -11    1    4    4    0    0  0.21806005865E-01  0.95203496557E-01  0.20245520393E-02  0.97691184763E-01  0.51100000000E-03 0.  1.
         11    1    4    4    0    0  0.19910467332E-01  0.69380506847E-01 -0.16718996441E-01  0.74093639421E-01  0.51100000000E-03 0. -1.
</event>
<event>
 8    1  0.5616615E+005  0.1043930E+01  0.7957747E-01            NaN
         13   -1    0    0    0    0  0.00000000000E+00  0.00000000000E+00  0.74505805969E-08  0.10566000000E+00  0.10566000000E+00 0.  1.
     999900   -1    0    0    0    0 -0.00000000000E+00 -0.00000000000E+00 -0.74505805969E-08  0.93827000000E+00  0.93827000000E+00 0.  1.
     999902    2    1    2    0    0 -0.80756213200E-02 -0.45252998863E-02 -0.21830630226E-01  0.10202177581E+01  0.10199421570E+01 0.  0.
     999903    2    3    3    0    0  0.10698559247E+00 -0.10711883756E+00 -0.72648115417E-01  0.16958744260E+00  0.23702102368E-01 0.  0.
         14    1    1    2    0    0  0.80756213200E-02  0.45252998863E-02  0.21830630226E-01  0.23712241877E-01  0.00000000000E+00 0.  1.
     999901    1    3    3    0    0 -0.11506121379E+00  0.10259353768E+00  0.50817485191E-01  0.85063031553E+00  0.83500000000E+00 0. -1.
        -11    1    4    4    0    0  0.40581850753E-01 -0.57058298448E-01 -0.35529423218E-01  0.78518386812E-01  0.51100000000E-03 0.  1.
         11    1    4    4    0    0  0.66403741713E-01 -0.50060539115E-01 -0.37118692198E-01  0.91069055785E-01  0.51100000000E-03 0. -1.
</event>
<event>
 8    1  0.5616615E+005  0.1043930E+01  0.7957747E-01            NaN
         13   -1    0    0    0    0  0.00000000000E+00  0.00000000000E+00  0.74505805969E-08  0.10566000000E+00  0.10566000000E+00 0. -1.
     999900   -1    0    0    0    0 -0.00000000000E+00 -0.00000000000E+00 -0.74505805969E-08  0.93827000000E+00  0.93827000000E+00 0. -1.
     999902    2    1    2    0    0  0.68111351525E-02 -0.56561895357E-02  0.21296824282E-01  0.10208662023E+01  0.10206056359E+01 0.  0.
     999903    2    3    3    0    0 -0.10188624506E+00 -0.92917244723E-01  0.98499605206E-01  0.17079862753E+00  0.21344264816E-01 0.  0.
         14    1    1    2    0    0 -0.68111351525E-02  0.56561895357E-02 -0.21296824282E-01  0.23063797750E-01  0.00000000000E+00 0.  1.
     999901    1    3    3    0    0  0.10869738021E+00  0.87261055187E-01 -0.77202780924E-01  0.85006757472E+00  0.83500000000E+00 0. -1.
        -11    1    4    4    0    0 -0.32615796550E-01 -0.25554960265E-01  0.41340785260E-01  0.58533476111E-01  0.51100000000E-03 0. -1.
         11    1    4    4    0    0 -0.69270448505E-01 -0.67362284458E-01  0.57158819946E-01  0.11226515141E+00  0.51100000000E-03 0.  1.
</event>
<event>
 8    1  0.5616615E+005  0.1043930E+01  0.7957747E-01            NaN
         13   -1    0    0    0    0  0.00000000000E+00  0.00000000000E+00  0.74505805969E-08  0.10566000000E+00  0.10566000000E+00 0.  1.
     999900   -1    0    0    0    0 -0.00000000000E+00 -0.00000000000E+00 -0.74505805969E-08  0.93827000000E+00  0.93827000000E+00 0. -1.
     999902    2    1    2    0    0  0.19935157687E-01 -0.78917122452E-02  0.82733920988E-02  0.10209487326E+01  0.10206900489E+01 0.  0.
     999903    2    3    3    0    0  0.70504078231E-02  0.10975305907E+00  0.12716674634E+00  0.16926396776E+00  0.19582318027E-01 0.  0.
         14    1    1    2    0    0 -0.19935157687E-01  0.78917122452E-02 -0.82733920988E-02  0.22981267393E-01  0.00000000000E+00 0. -1.
     999901    1    3    3    0    0  0.12884749864E-01 -0.11764477132E+00 -0.11889335424E+00  0.85168476485E+00  0.83500000000E+00 0. -1.
        -11    1    4    4    0    0  0.68597727269E-02  0.69462875953E-01  0.93955997637E-01  0.11704758960E+00  0.51100000000E-03 0.  1.
         11    1    4    4    0    0  0.19063509614E-03  0.40290183119E-01  0.33210748703E-01  0.52216378158E-01  0.51100000000E-03 0. -1.
</event>
<event>
 8    1  0.5616615E+005  0.1043930E+01  0.7957747E-01            NaN
         13   -1    0    0    0    0  0.00000000000E+00  0.00000000000E+00  0.74505805969E-08  0.10566000000E+00  0.10566000000E+00 0. -1.
     999900   -1    0    0    0    0 -0.00000000000E+00 -0.00000000000E+00 -0.74505805969E-08  0.93827000000E+00  0.93827000000E+00 0. -1.
     999902    2    1    2    0    0  0.12974568957E-02  0.95006520955E-02 -0.22554125025E-01  0.10194221576E+01  0.10191275195E+01 0.  0.
     999903    2    3    3    0    0  0.95576402721E-02  0.10864375504E-01 -0.16968401014E+00  0.17151750877E+00  0.20401210184E-01 0.  0.
         14    1    1    2    0    0 -0.12974568957E-02 -0.95006520955E-02  0.22554125025E-01  0.24507842424E-01  0.00000000000E+00 0. -1.
     999901    1    3    3    0    0 -0.82601833764E-02 -0.13637234083E-02  0.14712988511E+00  0.84790464880E+00  0.83500000000E+00 0.  1.
        -11    1    4    4    0    0  0.13341903664E-01  0.14418716599E-01 -0.14102469862E+00  0.14238726250E+00  0.51100000000E-03 0.  1.
         11    1    4    4    0    0 -0.37842633919E-02 -0.35543410952E-02 -0.28659311519E-01  0.29130246270E-01  0.51100000000E-03 0. -1.
</event>
<event>
 8    1  0.5616615E+005  0.1043930E+01  0.7957747E-01            NaN
         13   -1    0    0    0    0  0.00000000000E+00  0.00000000000E+00  0.74505805969E-08  0.10566000000E+00  0.10566000000E+00 0. -1.
     999900   -1    0    0    0    0 -0.00000000000E+00 -0.00000000000E+00 -0.74505805969E-08  0.93827000000E+00  0.93827000000E+00 0.  1.
     999902    2    1    2    0    0 -0.71346345506E-02  0.87732190293E-02 -0.22435501720E-01  0.10188058260E+01  0.10184959926E+01 0.  0.
     999903    2    3    3    0    0  0.81535830366E-01  0.11382416923E+00  0.86414359321E-01  0.16559339890E+00  0.18700244106E-01 0.  0.
         14    1    1    2    0    0  0.71346345506E-02 -0.87732190293E-02  0.22435501720E-01  0.25124174011E-01  0.00000000000E+00 0. -1.
     999901    1    3    3    0    0 -0.88670464916E-01 -0.10505095020E+00 -0.10884986104E+00  0.85321242709E+00  0.83500000000E+00 0.  1.
        -11    1    4    4    0    0  0.39031725308E-01  0.66453345009E-01  0.40088346372E-01  0.86872661287E-01  0.51100000000E-03 0.  1.
         11    1    4    4    0    0  0.42504105058E-01  0.47370824218E-01  0.46326012949E-01  0.78720737615E-01  0.51100000000E-03 0. -1.
</event>
<event>
 8    1  0.5616615E+005  0.1043930E+01  0.7957747E-01            NaN
         13   -1    0    0    0    0  0.00000000000E+00  0.00000000000E+00  0.74505805969E-08  0.10566000000E+00  0.10566000000E+00 0. -1.
     999900   -1    0    0    0    0 -0.00000000000E+00 -0.00000000000E+00 -0.74505805969E-08  0.93827000000E+00  0.93827000000E+00 0.  1.
     999902    2    1    2    0    0 -0.12729826087E-01 -0.89986523048E-02 -0.19141733708E-01  0.10192433602E+01  0.10189443543E+01 0.  0.
     999903    2    3    3    0    0 -0.67859263857E-03 -0.15828140192E+00 -0.58679421709E-01  0.16999734146E+00  0.20058885594E-01 0.  0.
         14    1    1    2    0    0  0.12729826087E-01  0.89986523048E-02  0.19141733708E-01  0.24686639805E-01  0.00000000000E+00 0. -1.
     999901    1    3    3    0    0 -0.12051233449E-01  0.14928274961E+00  0.39537688001E-01  0.84924601873E+00  0.83500000000E+00 0. -1.
        -11    1    4    4    0    0  0.30035911811E-02 -0.51919711353E-01 -0.28824548194E-01  0.59462540196E-01  0.51100000000E-03 0. -1.
         11    1    4    4    0    0 -0.36821838197E-02 -0.10636169057E+00 -0.29854873515E-01  0.11053480127E+00  0.51100000000E-03 0.  1.
</event>
<event>
 8    1  0.5616615E+005  0.1043930E+01  0.7957747E-01            NaN
         13   -1    0    0    0    0  0.00000000000E+00  0.00000000000E+00  0.74505805969E-08  0.10566000000E+00  0.10566000000E+00 0.  1.
     999900   -1    0    0    0    0 -0.00000000000E+00 -0.00000000000E+00 -0.74505805969E-08  0.93827000000E+00  0.93827000000E+00 0.  1.
     999902    2    1    2    0    0  0.21032793076E-01 -0.11309742333E-01  0.65594573166E-03  0.10200402758E+01  0.10197604843E+01 0.  0.
     999903    2    3    3    0    0 -0.66120461038E-01  0.14922151523E+00  0.16618384463E-01  0.16514509289E+00  0.18914413283E-01 0.  0.
         14    1    1    2    0    0 -0.21032793076E-01  0.11309742333E-01 -0.65594573166E-03  0.23889724172E-01  0.00000000000E+00 0.  1.
     999901    1    3    3    0    0  0.87153254114E-01 -0.16053125756E+00 -0.15962438731E-01  0.85489518294E+00  0.83500000000E+00 0. -1.
        -11    1    4    4    0    0 -0.16579406135E-01  0.57940243015E-01  0.98249219774E-02  0.61063398868E-01  0.51100000000E-03 0.  1.
         11    1    4    4    0    0 -0.49541054902E-01  0.91281272211E-01  0.67934624856E-02  0.10408169402E+00  0.51100000000E-03 0. -1.
</event>
<event>
 8    1  0.5616615E+005  0.1043930E+01  0.7957747E-01            NaN
         13   -1    0    0    0    0  0.00000000000E+00  0.00000000000E+00  0.74505805969E-08  0.10566000000E+00  0.10566000000E+00 0. -1.
     999900   -1    0    0    0    0 -0.00000000000E+00 -0.00000000000E+00 -0.74505805969E-08  0.93827000000E+00  0.93827000000E+00 0.  1.
     999902    2    1    2    0    0  0.21720848366E-01  0.48327744649E-02  0.60099171265E-02  0.10208807036E+01  0.10206204686E+01 0.  0.
     999903    2    3    3    0    0 -0.13979159355E+00 -0.85288348230E-01 -0.12737363459E-01  0.16543663982E+00  0.19780025160E-01 0.  0.
         14    1    1    2    0    0 -0.21720848366E-01 -0.48327744649E-02 -0.60099171265E-02  0.23049296446E-01  0.00000000000E+00 0.  1.
     999901    1    3    3    0    0  0.16151244192E+00  0.90121122695E-01  0.18747280585E-01  0.85544406373E+00  0.83500000000E+00 0. -1.
        -11    1    4    4    0    0 -0.68273799873E-01 -0.33003687799E-01 -0.12410353190E-01  0.76842912131E-01  0.51100000000E-03 0.  1.
         11    1    4    4    0    0 -0.71517793679E-01 -0.52284660431E-01 -0.32701026842E-03  0.88593727689E-01  0.51100000000E-03 0. -1.
</event>
<event>
 8    1  0.5616615E+005  0.1043930E+01  0.7957747E-01            NaN
         13   -1    0    0    0    0  0.00000000000E+00  0.00000000000E+00  0.74505805969E-08  0.10566000000E+00  0.10566000000E+00 0.  1.
     999900   -1    0    0    0    0 -0.00000000000E+00 -0.00000000000E+00 -0.74505805969E-08  0.93827000000E+00  0.93827000000E+00 0.  1.
     999902    2    1    2    0    0  0.13263515463E-01 -0.53386332881E-02  0.19960504180E-01  0.10193771270E+01  0.10190813919E+01 0.  0.
     999903    2    3    3    0    0 -0.55965515448E-01 -0.12123740690E+00 -0.96076244763E-01  0.16561210568E+00  0.19133138490E-01 0.  0.
         14    1    1    2    0    0 -0.13263515463E-01  0.53386332881E-02 -0.19960504180E-01  0.24552873049E-01  0.00000000000E+00 0. -1.
     999901    1    3    3    0    0  0.69229030910E-01  0.11589877361E+00  0.11603674894E+00  0.85376502127E+00  0.83500000000E+00 0. -1.
        -11    1    4    4    0    0 -0.24760185898E-01 -0.62851979504E-01 -0.37788975382E-01  0.77406110319E-01  0.51100000000E-03 0.  1.
         11    1    4    4    0    0 -0.31205329550E-01 -0.58385427394E-01 -0.58287269381E-01  0.88205995359E-01  0.51100000000E-03 0. -1.
</event>
<event>
 8    1  0.5616615E+005  0.1043930E+01  0.7957747E-01            NaN
         13   -1    0    0    0    0  0.00000000000E+00  0.00000000000E+00  0.74505805969E-08  0.10566000000E+00  0.10566000000E+00 0. -1.
     999900   -1    0    0    0    0 -0.00000000000E+00 -0.00000000000E+00 -0.74505805969E-08  0.93827000000E+00  0.93827000000E+00 0. -1.
     999902    2    1    2    0    0 -0.31805422328E-02 -0.22794051130E-01  0.61861655013E-02  0.10200982300E+01  0.10198198104E+01 0.  0.
     999903    2    3    3    0    0 -0.34260427544E-01 -0.12487218780E+00  0.11129508491E+00  0.17177117625E+00  0.18759021364E-01 0.  0.
         14    1    1    2    0    0  0.31805422328E-02  0.22794051130E-01 -0.61861655013E-02  0.23831769960E-01  0.00000000000E+00 0. -1.
     999901    1    3    3    0    0  0.31079885311E-01  0.10207813667E+00 -0.10510891941E+00  0.84832705379E+00  0.83500000000E+00 0. -1.
        -11    1    4    4    0    0 -0.16953993575E-01 -0.39474981406E-01  0.45548476106E-01  0.62614989034E-01  0.51100000000E-03 0.  1.
         11    1    4    4    0    0 -0.17306433969E-01 -0.85397206392E-01  0.65746608808E-01  0.10915618721E+00  0.51100000000E-03 0. -1.
</event>
<event>
 8    1  0.5616615E+005  0.1043930E+01  0.7957747E-01            NaN
         13   -1    0    0    0    0  0.00000000000E+00  0.00000000000E+00  0.74505805969E-08  0.10566000000E+00  0.10566000000E+00 0. -1.
     999900   -1    0    0    0    0 -0.00000000000E+00 -0.00000000000E+00 -0.74505805969E-08  0.93827000000E+00  0.93827000000E+00 0.  1.
     999902    2    1    2    0    0  0.14289265800E-01  0.17680933662E-01  0.13104530999E-02  0.10211590576E+01  0.10209051401E+01 0.  0.
     999903    2    3    3    0    0  0.51777818717E-01 -0.10973191958E+00 -0.11390067106E+00  0.16784901432E+00  0.21860742274E-01 0.  0.
         14    1    1    2    0    0 -0.14289265800E-01 -0.17680933662E-01 -0.13104530999E-02  0.22770942439E-01  0.00000000000E+00 0.  1.
     999901    1    3    3    0    0 -0.37488552917E-01  0.12741285324E+00  0.11521112416E+00  0.85331004324E+00  0.83500000000E+00 0. -1.
        -11    1    4    4    0    0  0.41594313550E-01 -0.64891883646E-01 -0.66401136973E-01  0.10173699226E+00  0.51100000000E-03 0. -1.
         11    1    4    4    0    0  0.10183505167E-01 -0.44840035936E-01 -0.47499534087E-01  0.66112022051E-01  0.51100000000E-03 0.  1.
</event>
<event>
 8    1  0.5616615E+005  0.1043930E+01  0.7957747E-01            NaN
         13   -1    0    0    0    0  0.00000000000E+00  0.00000000000E+00  0.74505805969E-08  0.10566000000E+00  0.10566000000E+00 0. -1.
     999900   -1    0    0    0    0 -0.00000000000E+00 -0.00000000000E+00 -0.74505805969E-08  0.93827000000E+00  0.93827000000E+00 0. -1.
     999902    2    1    2    0    0  0.19551405760E-01 -0.24039782796E-02  0.14151667252E-01  0.10196749744E+01  0.10193864563E+01 0.  0.
     999903    2    3    3    0    0  0.16577450456E+00 -0.35717714114E-01  0.14143673927E-01  0.17131420232E+00  0.19788151522E-01 0.  0.
         14    1    1    2    0    0 -0.19551405760E-01  0.24039782796E-02 -0.14151667252E-01  0.24255025557E-01  0.00000000000E+00 0.  1.
     999901    1    3    3    0    0 -0.14622309880E+00  0.33313735834E-01  0.79933258603E-05  0.84836077213E+00  0.83500000000E+00 0.  1.
        -11    1    4    4    0    0  0.72336036995E-01 -0.13225502482E-01 -0.34080229950E-02  0.73615840046E-01  0.51100000000E-03 0.  1.
         11    1    4    4    0    0  0.93438467563E-01 -0.22492211632E-01  0.17551696922E-01  0.97698362271E-01  0.51100000000E-03 0. -1.
</event>
<event>
 8    1  0.5616615E+005  0.1043930E+01  0.7957747E-01            NaN
         13   -1    0    0    0    0  0.00000000000E+00  0.00000000000E+00  0.74505805969E-08  0.10566000000E+00  0.10566000000E+00 0.  1.
     999900   -1    0    0    0    0 -0.00000000000E+00 -0.00000000000E+00 -0.74505805969E-08  0.93827000000E+00  0.93827000000E+00 0.  1.
     999902    2    1    2    0    0  0.12013676907E-01 -0.13946958361E-01 -0.14640795146E-01  0.10204098180E+01  0.10201387149E+01 0.  0.
     999903    2    3    3    0    0 -0.46924414494E-01 -0.15265528847E+00 -0.57225223068E-01  0.17084985366E+00  0.20233847062E-01 0.  0.
         14    1    1    2    0    0 -0.12013676907E-01  0.13946958361E-01  0.14640795146E-01  0.23520182033E-01  0.00000000000E+00 0. -1.
     999901    1    3    3    0    0  0.58938091401E-01  0.13870833011E+00  0.42584427922E-01  0.84955996431E+00  0.83500000000E+00 0.  1.
        -11    1    4    4    0    0 -0.11032180309E-01 -0.68840974421E-01 -0.22092779828E-01  0.73137820607E-01  0.51100000000E-03 0.  1.
         11    1    4    4    0    0 -0.35892234185E-01 -0.83814314046E-01 -0.35132443240E-01  0.97712033050E-01  0.51100000000E-03 0. -1.
</event>
<event>
 8    1  0.5616615E+005  0.1043930E+01  0.7957747E-01            NaN
         13   -1    0    0    0    0  0.00000000000E+00  0.00000000000E+00  0.74505805969E-08  0.10566000000E+00  0.10566000000E+00 0. -1.
     999900   -1    0    0    0    0 -0.00000000000E+00 -0.00000000000E+00 -0.74505805969E-08  0.93827000000E+00  0.93827000000E+00 0.  1.
     999902    2    1    2    0    0 -0.20816790691E-01  0.15327392513E-02  0.86533093808E-02  0.10213342520E+01  0.10210842700E+01 0.  0.
     999903    2    3    3    0    0  0.14569604167E+00 -0.30024563250E-01  0.72982556301E-01  0.16688376269E+00  0.19872739347E-01 0.  0.
         14    1    1    2    0    0  0.20816790691E-01 -0.15327392513E-02 -0.86533093808E-02  0.22595747996E-01  0.00000000000E+00 0.  1.
     999901    1    3    3    0    0 -0.16651283236E+00  0.31557302501E-01 -0.64329246920E-01  0.85445048931E+00  0.83500000000E+00 0.  1.
        -11    1    4    4    0    0  0.48637302394E-01 -0.17516689775E-01  0.18711733033E-01  0.54980102573E-01  0.51100000000E-03 0. -1.
         11    1    4    4    0    0  0.97058739273E-01 -0.12507873475E-01  0.54270823267E-01  0.11190366012E+00  0.51100000000E-03 0.  1.
</event>
<event>
 8    1  0.5616615E+005  0.1043930E+01  0.7957747E-01            NaN
         13   -1    0    0    0    0  0.00000000000E+00  0.00000000000E+00  0.74505805969E-08  0.10566000000E+00  0.10566000000E+00 0.  1.
     999900   -1    0    0    0    0 -0.00000000000E+00 -0.00000000000E+00 -0.74505805969E-08  0.93827000000E+00  0.93827000000E+00 0.  1.
     999902    2    1    2    0    0 -0.92686941854E-02 -0.19073711951E-01 -0.60328009753E-02  0.10218821006E+01  0.10216442227E+01 0.  0.
     999903    2    3    3    0    0  0.59423338671E-01 -0.12849323887E-01 -0.15786006369E+00  0.17039290158E+00  0.20437781070E-01 0.  0.
         14    1    1    2    0    0  0.92686941854E-02  0.19073711951E-01  0.60328009753E-02  0.22047899381E-01  0.00000000000E+00 0. -1.
     999901    1    3    3    0    0 -0.68692032857E-01 -0.62243880642E-02  0.15182726272E+00  0.85148919904E+00  0.83500000000E+00 0. -1.
        -11    1    4    4    0    0  0.28577235336E-01  0.38633271345E-02 -0.78157235715E-01  0.83309052879E-01  0.51100000000E-03 0.  1.
         11    1    4    4    0    0  0.30846103335E-01 -0.16712651021E-01 -0.79702827978E-01  0.87083848696E-01  0.51100000000E-03 0. -1.
</event>
<event>
 8    1  0.5616615E+005  0.1043930E+01  0.7957747E-01            NaN
         13   -1    0    0    0    0  0.00000000000E+00  0.00000000000E+00  0.74505805969E-08  0.10566000000E+00  0.10566000000E+00 0. -1.
     999900   -1    0    0    0    0 -0.00000000000E+00 -0.00000000000E+00 -0.74505805969E-08  0.93827000000E+00  0.93827000000E+00 0. -1.
     999902    2    1    2    0    0  0.98065824797E-02  0.82923191429E-02 -0.20199381086E-01  0.10199936968E+01  0.10197128002E+01 0.  0.
     999903    2    3    3    0    0 -0.15508649981E+00  0.30671279039E-01 -0.52929857975E-01  0.16794508866E+00  0.20283815198E-01 0.  0.
         14    1    1    2    0    0 -0.98065824797E-02 -0.82923191429E-02  0.20199381086E-01  0.23936303243E-01  0.00000000000E+00 0. -1.
     999901    1    3    3    0    0  0.16489308229E+00 -0.22378959896E-01  0.32730476890E-01  0.85204860809E+00  0.83500000000E+00 0.  1.
        -11    1    4    4    0    0 -0.13529641013E+00  0.29319862326E-01 -0.39423478728E-01  0.14394181017E+00  0.51100000000E-03 0.  1.
         11    1    4    4    0    0 -0.19790089686E-01  0.13514167130E-02 -0.13506379248E-01  0.24003278490E-01  0.51100000000E-03 0. -1.
</event>
<event>
 8    1  0.5616615E+005  0.1043930E+01  0.7957747E-01            NaN
         13   -1    0    0    0    0  0.00000000000E+00  0.00000000000E+00  0.74505805969E-08  0.10566000000E+00  0.10566000000E+00 0. -1.
     999900   -1    0    0    0    0 -0.00000000000E+00 -0.00000000000E+00 -0.74505805969E-08  0.93827000000E+00  0.93827000000E+00 0. -1.
     999902    2    1    2    0    0 -0.80272133084E-02  0.18306204669E-01  0.26971493240E-02  0.10237600249E+01  0.10235613126E+01 0.  0.
     999903    2    3    3    0    0  0.12893361536E+00 -0.47693861461E-01  0.97365629102E-01  0.16976857385E+00  0.21040944533E-01 0.  0.
         14    1    1    2    0    0  0.80272133084E-02 -0.18306204669E-01 -0.26971493240E-02  0.20169975145E-01  0.00000000000E+00 0.  1.
     999901    1    3    3    0    0 -0.13696082867E+00  0.66000066130E-01 -0.94668479778E-01  0.85399145100E+00  0.83500000000E+00 0. -1.
        -11    1    4    4    0    0  0.48403349185E-01 -0.99993032920E-02  0.26616135372E-01  0.56138668151E-01  0.51100000000E-03 0. -1.
         11    1    4    4    0    0  0.80530266176E-01 -0.37694558169E-01  0.70749493730E-01  0.11362990570E+00  0.51100000000E-03 0.  1.
</event>
<event>
 8    1  0.5616615E+005  0.1043930E+01  0.7957747E-01            NaN
         13   -1    0    0    0    0  0.00000000000E+00  0.00000000000E+00  0.74505805969E-08  0.10566000000E+00  0.10566000000E+00 0.  1.
     999900   -1    0    0    0    0 -0.00000000000E+00 -0.00000000000E+00 -0.74505805969E-08  0.93827000000E+00  0.93827000000E+00 0.  1.
     999902    2    1    2    0    0  0.23672740867E-01  0.37012571654E-02 -0.11844859225E-02  0.10199403987E+01  0.10196582348E+01 0.  0.
     999903    2    3    3    0    0  0.40755639327E-01  0.61927474370E-01  0.15066165892E+00  0.16907944089E+00  0.19821393609E-01 0.  0.
         14    1    1    2    0    0 -0.23672740867E-01 -0.37012571654E-02  0.11844859225E-02  0.23989601323E-01  0.00000000000E+00 0. -1.
     999901    1    3    3    0    0 -0.17082898460E-01 -0.58226217205E-01 -0.15184614484E+00  0.85086095779E+00  0.83500000000E+00 0.  1.
        -11    1    4    4    0    0  0.13291585772E-01  0.34757949851E-01  0.86770915631E-01  0.94415222558E-01  0.51100000000E-03 0. -1.
         11    1    4    4    0    0  0.27464053554E-01  0.27169524519E-01  0.63890743284E-01  0.74664218329E-01  0.51100000000E-03 0.  1.
</event>
<event>
 8    1  0.5616615E+005  0.1043930E+01  0.7957747E-01            NaN
         13   -1    0    0    0    0  0.00000000000E+00  0.00000000000E+00  0.74505805969E-08  0.10566000000E+00  0.10566000000E+00 0.  1.
     999900   -1    0    0    0    0 -0.00000000000E+00 -0.00000000000E+00 -0.74505805969E-08  0.93827000000E+00  0.93827000000E+00 0.  1.
     999902    2    1    2    0    0  0.10807931430E-01  0.45030899239E-02  0.20443812457E-01  0.10203707413E+01  0.10200987262E+01 0.  0.
     999903    2    3    3    0    0  0.15098901075E+00 -0.21471843753E-01 -0.68986454616E-01  0.16857956691E+00  0.20030427307E-01 0.  0.
         14    1    1    2    0    0 -0.10807931430E-01 -0.45030899239E-02 -0.20443812457E-01  0.23559258657E-01  0.00000000000E+00 0.  1.
     999901    1    3    3    0    0 -0.14018107932E+00  0.25974933677E-01  0.89430267074E-01  0.85179117444E+00  0.83500000000E+00 0. -1.
        -11    1    4    4    0    0  0.95780698396E-01 -0.12514754623E-01 -0.33032928334E-01  0.10208818122E+00  0.51100000000E-03 0.  1.
         11    1    4    4    0    0  0.55208312350E-01 -0.89570891300E-02 -0.35953526282E-01  0.66491385692E-01  0.51100000000E-03 0. -1.
</event>
<event>
 8    1  0.5616615E+005  0.1043930E+01  0.7957747E-01            NaN
         13   -1    0    0    0    0  0.00000000000E+00  0.00000000000E+00  0.74505805969E-08  0.10566000000E+00  0.10566000000E+00 0. -1.
     999900   -1    0    0    0    0 -0.00000000000E+00 -0.00000000000E+00 -0.74505805969E-08  0.93827000000E+00  0.93827000000E+00 0. -1.
     999902    2    1    2    0    0 -0.18761520168E-01 -0.12950167450E-01  0.59352227491E-02  0.10203730829E+01  0.10201011224E+01 0.  0.
     999903    2    3    3    0    0 -0.94765564195E-01  0.35399050756E-01  0.13583042211E+00  0.17054249714E+00  0.20030846410E-01 0.  0.
         14    1    1    2    0    0  0.18761520168E-01  0.12950167450E-01 -0.59352227491E-02  0.23556917139E-01  0.00000000000E+00 0.  1.
     999901    1    3    3    0    0  0.76004044027E-01 -0.48349218206E-01 -0.12989519936E+00  0.84983058572E+00  0.83500000000E+00 0. -1.
        -11    1    4    4    0    0 -0.59182875326E-01  0.13800165898E-01  0.90349615938E-01  0.10888696677E+00  0.51100000000E-03 0.  1.
         11    1    4    4    0    0 -0.35582688869E-01  0.21598884858E-01  0.45480806174E-01  0.61655530373E-01  0.51100000000E-03 0. -1.
</event>
<event>
 8    1  0.5616615E+005  0.1043930E+01  0.7957747E-01            NaN
         13   -1    0    0    0    0  0.00000000000E+00  0.00000000000E+00  0.74505805969E-08  0.10566000000E+00  0.10566000000E+00 0.  1.
     999900   -1    0    0    0    0 -0.00000000000E+00 -0.00000000000E+00 -0.74505805969E-08  0.93827000000E+00  0.93827000000E+00 0. -1.
     999902    2    1    2    0    0 -0.15887501687E-01 -0.76787788767E-02  0.11744246782E-01  0.10227332152E+01  0.10225135333E+01 0.  0.
     999903    2    3    3    0    0 -0.52503944608E-01 -0.15304835939E+00  0.58022123279E-01  0.17312170354E+00  0.20593516863E-01 0.  0.
         14    1    1    2    0    0  0.15887501687E-01  0.76787788767E-02 -0.11744246782E-01  0.21196784836E-01  0.00000000000E+00 0. -1.
     999901    1    3    3    0    0  0.36616442921E-01  0.14536958051E+00 -0.46277876497E-01  0.84961151162E+00  0.83500000000E+00 0. -1.
        -11    1    4    4    0    0 -0.30489209205E-01 -0.59990423379E-01  0.28042150186E-01  0.72904499746E-01  0.51100000000E-03 0. -1.
         11    1    4    4    0    0 -0.22014735403E-01 -0.93057936008E-01  0.29979973093E-01  0.10021720380E+00  0.51100000000E-03 0.  1.
</event>
<event>
 8    1  0.5616615E+005  0.1043930E+01  0.7957747E-01            NaN
         13   -1    0    0    0    0  0.00000000000E+00  0.00000000000E+00  0.74505805969E-08  0.10566000000E+00  0.10566000000E+00 0. -1.
     999900   -1    0    0    0    0 -0.00000000000E+00 -0.00000000000E+00 -0.74505805969E-08  0.93827000000E+00  0.93827000000E+00 0.  1.
     999902    2    1    2    0    0 -0.23250118486E-01 -0.65332213171E-03  0.11548251427E-01  0.10179616163E+01  0.10176303334E+01 0.  0.
     999903    2    3    3    0    0  0.11887308670E+00  0.11034295991E+00 -0.48739374218E-02  0.16355312599E+00  0.20481460166E-01 0.  0.
         14    1    1    2    0    0  0.23250118486E-01  0.65332213171E-03 -0.11548251427E-01  0.25968383670E-01  0.00000000000E+00 0.  1.
     999901    1    3    3    0    0 -0.14212320519E+00 -0.11099628204E+00  0.16422188848E-01  0.85440849034E+00  0.83500000000E+00 0.  1.
        -11    1    4    4    0    0  0.75745684493E-01  0.59356419751E-01  0.31876816598E-02  0.96286113850E-01  0.51100000000E-03 0.  1.
         11    1    4    4    0    0  0.43127402209E-01  0.50986540161E-01 -0.80616190816E-02  0.67267012139E-01  0.51100000000E-03 0. -1.
</event>
<event>
 8    1  0.5616615E+005  0.1043930E+01  0.7957747E-01            NaN
         13   -1    0    0    0    0  0.00000000000E+00  0.00000000000E+00  0.74505805969E-08  0.10566000000E+00  0.10566000000E+00 0.  1.
     999900   -1    0    0    0    0 -0.00000000000E+00 -0.00000000000E+00 -0.74505805969E-08  0.93827000000E+00  0.93827000000E+00 0. -1.
     999902    2    1    2    0    0 -0.40479356561E-02  0.22140255930E-01  0.67662907778E-02  0.10204276723E+01  0.10201569855E+01 0.  0.
     999903    2    3    3    0    0 -0.16280438914E+00  0.42352807995E-01  0.16739286900E-01  0.17017087614E+00  0.19465197018E-01 0.  0.
         14    1    1    2    0    0  0.40479356561E-02 -0.22140255930E-01 -0.67662907778E-02  0.23502327685E-01  0.00000000000E+00 0. -1.
     999901    1    3    3    0    0  0.15875645348E+00 -0.20212552065E-01 -0.99729961220E-02  0.85025679617E+00  0.83500000000E+00 0.  1.
        -11    1    4    4    0    0 -0.10993331316E+00  0.36127270660E-01  0.60984046609E-02  0.11587909513E+00  0.51100000000E-03 0.  1.
         11    1    4    4    0    0 -0.52871075976E-01  0.62255373356E-02  0.10640882239E-01  0.54291781015E-01  0.51100000000E-03 0. -1.
</event>
<event>
 8    1  0.5616615E+005  0.1043930E+01  0.7957747E-01            NaN
         13   -1    0    0    0    0  0.00000000000E+00  0.00000000000E+00  0.74505805969E-08  0.10566000000E+00  0.10566000000E+00 0. -1.
     999900   -1    0    0    0    0 -0.00000000000E+00 -0.00000000000E+00 -0.74505805969E-08  0.93827000000E+00  0.93827000000E+00 0. -1.
     999902    2    1    2    0    0  0.69326745545E-02 -0.23607466350E-01 -0.39160531407E-03  0.10193225256E+01  0.10190254576E+01 0.  0.
     999903    2    3    3    0    0  0.16115692975E-01 -0.89188154370E-01 -0.14207489718E+00  0.16980247890E+00  0.20817372341E-01 0.  0.
         14    1    1    2    0    0 -0.69326745545E-02  0.23607466350E-01  0.39160531407E-03  0.24607474447E-01  0.00000000000E+00 0. -1.
     999901    1    3    3    0    0 -0.91830184204E-02  0.65580688020E-01  0.14168329187E+00  0.84952004665E+00  0.83500000000E+00 0.  1.
        -11    1    4    4    0    0  0.11544871838E-02 -0.48950186393E-01 -0.88547766529E-01  0.10118508619E+00  0.51100000000E-03 0.  1.
         11    1    4    4    0    0  0.14961205791E-01 -0.40237967976E-01 -0.53527130655E-01  0.68617392713E-01  0.51100000000E-03 0. -1.
</event>
<event>
 8    1  0.5616615E+005  0.1043930E+01  0.7957747E-01            NaN
         13   -1    0    0    0    0  0.00000000000E+00  0.00000000000E+00  0.74505805969E-08  0.10566000000E+00  0.10566000000E+00 0. -1.
     999900   -1    0    0    0    0 -0.00000000000E+00 -0.00000000000E+00 -0.74505805969E-08  0.93827000000E+00  0.93827000000E+00 0. -1.
     999902    2    1    2    0    0 -0.17155932918E-01  0.10010129788E-01  0.13032161048E-01  0.10201736123E+01  0.10198969719E+01 0.  0.
     999903    2    3    3    0    0 -0.11234570292E-01  0.16789675592E+00 -0.13067710986E-01  0.16995631509E+00  0.19971172990E-01 0.  0.
         14    1    1    2    0    0  0.17155932918E-01 -0.10010129788E-01 -0.13032161048E-01  0.23756387651E-01  0.00000000000E+00 0. -1.
     999901    1    3    3    0    0 -0.59213626260E-02 -0.15788662613E+00  0.26099872034E-01  0.85021729726E+00  0.83500000000E+00 0.  1.
        -11    1    4    4    0    0  0.25278028139E-02  0.48990633630E-01  0.31610213814E-02  0.49160198817E-01  0.51100000000E-03 0. -1.
         11    1    4    4    0    0 -0.13762373106E-01  0.11890612228E+00 -0.16228732367E-01  0.12079611627E+00  0.51100000000E-03 0.  1.
</event>
<event>
 8    1  0.5616615E+005  0.1043930E+01  0.7957747E-01            NaN
         13   -1    0    0    0    0  0.00000000000E+00  0.00000000000E+00  0.74505805969E-08  0.10566000000E+00  0.10566000000E+00 0.  1.
     999900   -1    0    0    0    0 -0.00000000000E+00 -0.00000000000E+00 -0.74505805969E-08  0.93827000000E+00  0.93827000000E+00 0. -1.
     999902    2    1    2    0    0 -0.34923721995E-02  0.12246441925E-01 -0.18830887894E-01  0.10211973287E+01  0.10209442736E+01 0.  0.
     999903    2    3    3    0    0  0.14390067198E+00  0.86846983096E-01 -0.15768215265E-01  0.17000737922E+00  0.20101505132E-01 0.  0.
         14    1    1    2    0    0  0.34923721995E-02 -0.12246441925E-01  0.18830887894E-01  0.22732671253E-01  0.00000000000E+00 0.  1.
     999901    1    3    3    0    0 -0.14739304417E+00 -0.74600541171E-01 -0.30626726285E-02  0.85118994953E+00  0.83500000000E+00 0.  1.
        -11    1    4    4    0    0  0.10734270246E+00  0.67355122940E-01 -0.20247530832E-01  0.12833312894E+00  0.51100000000E-03 0. -1.
         11    1    4    4    0    0  0.36557969515E-01  0.19491860156E-01  0.44793155668E-02  0.41674250279E-01  0.51100000000E-03 0.  1.
</event>
<event>
 8    1  0.5616615E+005  0.1043930E+01  0.7957747E-01            NaN
         13   -1    0    0    0    0  0.00000000000E+00  0.00000000000E+00  0.74505805969E-08  0.10566000000E+00  0.10566000000E+00 0.  1.
     999900   -1    0    0    0    0 -0.00000000000E+00 -0.00000000000E+00 -0.74505805969E-08  0.93827000000E+00  0.93827000000E+00 0. -1.
     999902    2    1    2    0    0  0.16139584923E-01  0.51540447927E-03 -0.15536136401E-01  0.10215218904E+01  0.10212760886E+01 0.  0.
     999903    2    3    3    0    0  0.11898677679E+00  0.58661983981E-02  0.11938477683E+00  0.16944511642E+00  0.16329641884E-01 0.  0.
         14    1    1    2    0    0 -0.16139584923E-01 -0.51540447927E-03  0.15536136401E-01  0.22408109638E-01  0.00000000000E+00 0.  1.
     999901    1    3    3    0    0 -0.10284719187E+00 -0.53507939188E-02 -0.13492091323E+00  0.85207677395E+00  0.83500000000E+00 0. -1.
        -11    1    4    4    0    0  0.91137337244E-01  0.86146750098E-02  0.83247451856E-01  0.12373611529E+00  0.51100000000E-03 0. -1.
         11    1    4    4    0    0  0.27849439546E-01 -0.27484766117E-02  0.36137324975E-01  0.45709001127E-01  0.51100000000E-03 0.  1.
</event>
<event>
 8    1  0.5616615E+005  0.1043930E+01  0.7957747E-01            NaN
         13   -1    0    0    0    0  0.00000000000E+00  0.00000000000E+00  0.74505805969E-08  0.10566000000E+00  0.10566000000E+00 0.  1.
     999900   -1    0    0    0    0 -0.00000000000E+00 -0.00000000000E+00 -0.74505805969E-08  0.93827000000E+00  0.93827000000E+00 0. -1.
     999902    2    1    2    0    0 -0.11579623237E-01  0.15461439063E-01 -0.11961213143E-01  0.10212096481E+01  0.10209568702E+01 0.  0.
     999903    2    3    3    0    0  0.11316756591E+00  0.11218481145E+00  0.52465789528E-01  0.16898132734E+00  0.20241048048E-01 0.  0.
         14    1    1    2    0    0  0.11579623237E-01 -0.15461439063E-01  0.11961213143E-01  0.22720351935E-01  0.00000000000E+00 0.  1.
     999901    1    3    3    0    0 -0.12474718915E+00 -0.96723372388E-01 -0.64427002671E-01  0.85222832072E+00  0.83500000000E+00 0. -1.
        -11    1    4    4    0    0  0.77205720905E-01  0.62987135938E-01  0.30568964822E-01  0.10422487882E+00  0.51100000000E-03 0.  1.
         11    1    4    4    0    0  0.35961845003E-01  0.49197675513E-01  0.21896824706E-01  0.64756448522E-01  0.51100000000E-03 0. -1.
</event>
<event>
 8    1  0.5616615E+005  0.1043930E+01  0.7957747E-01            NaN
         13   -1    0    0    0    0  0.00000000000E+00  0.00000000000E+00  0.74505805969E-08  0.10566000000E+00  0.10566000000E+00 0. -1.
     999900   -1    0    0    0    0 -0.00000000000E+00 -0.00000000000E+00 -0.74505805969E-08  0.93827000000E+00  0.93827000000E+00 0. -1.
     999902    2    1    2    0    0 -0.78558944417E-02  0.95814176314E-02 -0.21465142983E-01  0.10191455088E+01  0.10188440985E+01 0.  0.
     999903    2    3    3    0    0 -0.85033818560E-01  0.13743139160E+00  0.43233837024E-01  0.16843227519E+00  0.19548119220E-01 0.  0.
         14    1    1    2    0    0  0.78558944417E-02 -0.95814176314E-02  0.21465142983E-01  0.24784491211E-01  0.00000000000E+00 0. -1.
     999901    1    3    3    0    0  0.77177924118E-01 -0.12784997397E+00 -0.64698980007E-01  0.85071323360E+00  0.83500000000E+00 0. -1.
        -11    1    4    4    0    0 -0.45800559908E-01  0.56359856308E-01  0.16414394811E-01  0.74456820836E-01  0.51100000000E-03 0. -1.
         11    1    4    4    0    0 -0.39233258652E-01  0.81071535289E-01  0.26819442213E-01  0.93975454350E-01  0.51100000000E-03 0.  1.
</event>
<event>
 8    1  0.5729092E+005  0.1043930E+01  0.7957747E-01            NaN
         13   -1    0    0    0    0  0.00000000000E+00  0.00000000000E+00  0.74505805969E-08  0.10566000000E+00  0.10566000000E+00 0. -1.
     999900   -1    0    0    0    0 -0.00000000000E+00 -0.00000000000E+00 -0.74505805969E-08  0.93827000000E+00  0.93827000000E+00 0.  1.
     999902    2    1    2    0    0 -0.82798415769E-02 -0.10182408844E-01  0.18621437274E-01  0.10211485349E+01  0.10208943800E+01 0.  0.
     999903    2    3    3    0    0  0.11519734605E+00 -0.11222246353E+00 -0.45906922318E-01  0.16847761489E+00  0.20321204274E-01 0.  0.
         14    1    1    2    0    0  0.82798415769E-02  0.10182408844E-01 -0.18621437274E-01  0.22781465110E-01  0.00000000000E+00 0.  1.
     999901    1    3    3    0    0 -0.12347718763E+00  0.10204005469E+00  0.64528359593E-01  0.85267092000E+00  0.83500000000E+00 0. -1.
        -11    1    4    4    0    0  0.19374822092E-01 -0.30176325361E-01 -0.12485963493E-01  0.37975712616E-01  0.51100000000E-03 0. -1.
         11    1    4    4    0    0  0.95822523957E-01 -0.82046138174E-01 -0.33420958826E-01  0.13050190227E+00  0.51100000000E-03 0.  1.
</event>
<event>
 8    1  0.5616615E+005  0.1043930E+01  0.7957747E-01            NaN
         13   -1    0    0    0    0  0.00000000000E+00  0.00000000000E+00  0.74505805969E-08  0.10566000000E+00  0.10566000000E+00 0. -1.
     999900   -1    0    0    0    0 -0.00000000000E+00 -0.00000000000E+00 -0.74505805969E-08  0.93827000000E+00  0.93827000000E+00 0. -1.
     999902    2    1    2    0    0  0.10215632567E-01 -0.19023308518E-01  0.61157295763E-02  0.10214879064E+01  0.10212413502E+01 0.  0.
     999903    2    3    3    0    0  0.12921181240E+00  0.99930376436E-01 -0.38002642911E-01  0.16856264547E+00  0.16952639395E-01 0.  0.
         14    1    1    2    0    0 -0.10215632567E-01  0.19023308518E-01 -0.61157295763E-02  0.22442093573E-01  0.00000000000E+00 0.  1.
     999901    1    3    3    0    0 -0.11899617983E+00 -0.11895368495E+00  0.44118372487E-01  0.85292526095E+00  0.83500000000E+00 0. -1.
        -11    1    4    4    0    0  0.12035707766E+00  0.90362029131E-01 -0.39009191611E-01  0.15547700989E+00  0.51100000000E-03 0.  1.
         11    1    4    4    0    0  0.88547347377E-02  0.95683473054E-02  0.10065487005E-02  0.13085635587E-01  0.51100000000E-03 0. -1.
</event>
<event>
 8    1  0.5616615E+005  0.1043930E+01  0.7957747E-01            NaN
         13   -1    0    0    0    0  0.00000000000E+00  0.00000000000E+00  0.74505805969E-08  0.10566000000E+00  0.10566000000E+00 0. -1.
     999900   -1    0    0    0    0 -0.00000000000E+00 -0.00000000000E+00 -0.74505805969E-08  0.93827000000E+00  0.93827000000E+00 0. -1.
     999902    2    1    2    0    0  0.21473773343E-01 -0.11314151319E-01  0.13826495859E-01  0.10159960610E+01  0.10156119785E+01 0.  0.
     999903    2    3    3    0    0 -0.68640796203E-01 -0.84614562372E-01 -0.11905461440E+00  0.16254660414E+00  0.19396242960E-01 0.  0.
         14    1    1    2    0    0 -0.21473773343E-01  0.11314151319E-01 -0.13826495859E-01  0.27933939024E-01  0.00000000000E+00 0.  1.
     999901    1    3    3    0    0  0.90114569546E-01  0.73300411053E-01  0.13288111025E+00  0.85344945683E+00  0.83500000000E+00 0.  1.
        -11    1    4    4    0    0 -0.42084819644E-01 -0.54698777691E-01 -0.61425631519E-01  0.92392952404E-01  0.51100000000E-03 0. -1.
         11    1    4    4    0    0 -0.26555976559E-01 -0.29915784681E-01 -0.57628982876E-01  0.70153651740E-01  0.51100000000E-03 0.  1.
</event>
<event>
 8    1  0.5616615E+005  0.1043930E+01  0.7957747E-01            NaN
         13   -1    0    0    0    0  0.00000000000E+00  0.00000000000E+00  0.74505805969E-08  0.10566000000E+00  0.10566000000E+00 0.  1.
     999900   -1    0    0    0    0 -0.00000000000E+00 -0.00000000000E+00 -0.74505805969E-08  0.93827000000E+00  0.93827000000E+00 0.  1.
     999902    2    1    2    0    0  0.70994295383E-02  0.64616142767E-02  0.22859960684E-01  0.10191362072E+01  0.10188345679E+01 0.  0.
     999903    2    3    3    0    0  0.30039310657E-01  0.11279220507E+00  0.12346933681E+00  0.17109158618E+00  0.20080139910E-01 0.  0.
         14    1    1    2    0    0 -0.70994295383E-02 -0.64616142767E-02 -0.22859960684E-01  0.24793792798E-01  0.00000000000E+00 0. -1.
     999901    1    3    3    0    0 -0.22939881119E-01 -0.10633059079E+00 -0.10060937613E+00  0.84804462102E+00  0.83500000000E+00 0.  1.
        -11    1    4    4    0    0  0.27777840423E-01  0.66277712166E-01  0.75257088076E-01  0.10405880057E+00  0.51100000000E-03 0.  1.
         11    1    4    4    0    0  0.22614702336E-02  0.46514492903E-01  0.48212248737E-01  0.67032785612E-01  0.51100000000E-03 0. -1.
</event>
<event>
 8    1  0.5616615E+005  0.1043930E+01  0.7957747E-01            NaN
         13   -1    0    0    0    0  0.00000000000E+00  0.00000000000E+00  0.74505805969E-08  0.10566000000E+00  0.10566000000E+00 0. -1.
     999900   -1    0    0    0    0 -0.00000000000E+00 -0.00000000000E+00 -0.74505805969E-08  0.93827000000E+00  0.93827000000E+00 0.  1.
     999902    2    1    2    0    0  0.12017800794E-02  0.22503650374E-01  0.74356193972E-02  0.10201992817E+01  0.10199232458E+01 0.  0.
     999903    2    3    3    0    0 -0.87086497336E-01  0.10998481819E+00 -0.93882581463E-01  0.16994158401E+00  0.19633762273E-01 0.  0.
         14    1    1    2    0    0 -0.12017800794E-02 -0.22503650374E-01 -0.74356193972E-02  0.23730718306E-01  0.00000000000E+00 0.  1.
     999901    1    3    3    0    0  0.88288277416E-01 -0.87481167818E-01  0.10131820086E+00  0.85025769769E+00  0.83500000000E+00 0. -1.
        -11    1    4    4    0    0 -0.29350536354E-01  0.52681315315E-01 -0.39929012601E-01  0.72328155900E-01  0.51100000000E-03 0.  1.
         11    1    4    4    0    0 -0.57735960982E-01  0.57303502877E-01 -0.53953568862E-01  0.97613428105E-01  0.51100000000E-03 0. -1.
</event>
<event>
 8    1  0.5616615E+005  0.1043930E+01  0.7957747E-01            NaN
         13   -1    0    0    0    0  0.00000000000E+00  0.00000000000E+00  0.74505805969E-08  0.10566000000E+00  0.10566000000E+00 0.  1.
     999900   -1    0    0    0    0 -0.00000000000E+00 -0.00000000000E+00 -0.74505805969E-08  0.93827000000E+00  0.93827000000E+00 0. -1.
     999902    2    1    2    0    0  0.19459466739E-01 -0.11019033402E-01  0.95291676730E-02  0.10196216685E+01  0.10193318655E+01 0.  0.
     999903    2    3    3    0    0  0.15472414271E-01 -0.14005991671E+00 -0.90876924477E-01  0.16875515167E+00  0.19065936677E-01 0.  0.
         14    1    1    2    0    0 -0.19459466739E-01  0.11019033402E-01 -0.95291676730E-02  0.24308331482E-01  0.00000000000E+00 0. -1.
     999901    1    3    3    0    0  0.39870524685E-02  0.12904088331E+00  0.10040609215E+00  0.85086651685E+00  0.83500000000E+00 0.  1.
        -11    1    4    4    0    0  0.89979503401E-02 -0.25529066077E-01 -0.22542355693E-01  0.35229465597E-01  0.51100000000E-03 0.  1.
         11    1    4    4    0    0  0.64744639309E-02 -0.11453085063E+00 -0.68334568784E-01  0.13352568607E+00  0.51100000000E-03 0. -1.
</event>
<event>
 8    1  0.5616615E+005  0.1043930E+01  0.7957747E-01            NaN
         13   -1    0    0    0    0  0.00000000000E+00  0.00000000000E+00  0.74505805969E-08  0.10566000000E+00  0.10566000000E+00 0. -1.
     999900   -1    0    0    0    0 -0.00000000000E+00 -0.00000000000E+00 -0.74505805969E-08  0.93827000000E+00  0.93827000000E+00 0.  1.
     999902    2    1    2    0    0  0.14168296447E-01  0.79344792070E-02  0.16771156271E-01  0.10205854446E+01  0.10203184216E+01 0.  0.
     999903    2    3    3    0    0  0.11593742136E-01  0.59192686221E-02  0.17017051718E+00  0.17160543698E+00  0.17915593302E-01 0.  0.
         14    1    1    2    0    0 -0.14168296447E-01 -0.79344792070E-02 -0.16771156271E-01  0.23344555408E-01  0.00000000000E+00 0.  1.
     999901    1    3    3    0    0  0.25745543111E-02  0.20152105849E-02 -0.15339936091E+00  0.84898000762E+00  0.83500000000E+00 0.  1.
        -11    1    4    4    0    0  0.14438546119E-01 -0.11728737635E-04  0.13871970237E+00  0.13947002796E+00  0.51100000000E-03 0.  1.
         11    1    4    4    0    0 -0.28448039830E-02  0.59309973597E-02  0.31450814810E-01  0.32135409015E-01  0.51100000000E-03 0. -1.
</event>
<event>
 8    1  0.5616615E+005  0.1043930E+01  0.7957747E-01            NaN
         13   -1    0    0    0    0  0.00000000000E+00  0.00000000000E+00  0.74505805969E-08  0.10566000000E+00  0.10566000000E+00 0.  1.
     999900   -1    0    0    0    0 -0.00000000000E+00 -0.00000000000E+00 -0.74505805969E-08  0.93827000000E+00  0.93827000000E+00 0.  1.
     999902    2    1    2    0    0  0.65329986201E-02  0.19397819438E-01 -0.55183051470E-02  0.10227307745E+01  0.10225110415E+01 0.  0.
     999903    2    3    3    0    0 -0.73139388893E-01 -0.51593773801E-01  0.14105561728E+00  0.16827398193E+00  0.20202923658E-01 0.  0.
         14    1    1    2    0    0 -0.65329986201E-02 -0.19397819438E-01  0.55183051470E-02  0.21199225495E-01  0.00000000000E+00 0. -1.
     999901    1    3    3    0    0  0.79672387513E-01  0.70991593239E-01 -0.14657392243E+00  0.85445679258E+00  0.83500000000E+00 0.  1.
        -11    1    4    4    0    0 -0.52381683908E-01 -0.31594745177E-01  0.11023612698E+00  0.12607273117E+00  0.51100000000E-03 0.  1.
         11    1    4    4    0    0 -0.20757704985E-01 -0.19999028624E-01  0.30819490303E-01  0.42201250760E-01  0.51100000000E-03 0. -1.
</event>
<event>
 8    1  0.5616615E+005  0.1043930E+01  0.7957747E-01            NaN
         13   -1    0    0    0    0  0.00000000000E+00  0.00000000000E+00  0.74505805969E-08  0.10566000000E+00  0.10566000000E+00 0.  1.
     999900   -1    0    0    0    0 -0.00000000000E+00 -0.00000000000E+00 -0.74505805969E-08  0.93827000000E+00  0.93827000000E+00 0. -1.
     999902    2    1    2    0    0  0.21394561025E-01 -0.71006743597E-02 -0.76843577846E-02  0.10201141193E+01  0.10198360752E+01 0.  0.
     999903    2    3    3    0    0  0.14122611402E+00 -0.53705000458E-01  0.77530718604E-01  0.17098622934E+00  0.19905676141E-01 0.  0.
         14    1    1    2    0    0 -0.21394561025E-01  0.71006743597E-02  0.76843577846E-02  0.23815880676E-01  0.00000000000E+00 0.  1.
     999901    1    3    3    0    0 -0.11983155299E+00  0.46604326098E-01 -0.85215076388E-01  0.84912788998E+00  0.83500000000E+00 0. -1.
        -11    1    4    4    0    0  0.98433636137E-01 -0.38920859297E-01  0.43934250092E-01  0.11460581776E+00  0.51100000000E-03 0. -1.
         11    1    4    4    0    0  0.42792477880E-01 -0.14784141161E-01  0.33596468512E-01  0.56380411584E-01  0.51100000000E-03 0.  1.
</event>
<event>
 8    1  0.5616615E+005  0.1043930E+01  0.7957747E-01            NaN
         13   -1    0    0    0    0  0.00000000000E+00  0.00000000000E+00  0.74505805969E-08  0.10566000000E+00  0.10566000000E+00 0. -1.
     999900   -1    0    0    0    0 -0.00000000000E+00 -0.00000000000E+00 -0.74505805969E-08  0.93827000000E+00  0.93827000000E+00 0.  1.
     999902    2    1    2    0    0 -0.15474589330E-01 -0.69636752454E-02  0.16454085949E-01  0.10202933202E+01  0.10200194932E+01 0.  0.
     999903    2    3    3    0    0  0.11289686864E+00 -0.41296793174E-01 -0.11128449503E+00  0.16519090570E+00  0.21276005661E-01 0.  0.
         14    1    1    2    0    0  0.15474589330E-01  0.69636752454E-02 -0.16454085949E-01  0.23636679807E-01  0.00000000000E+00 0.  1.
     999901    1    3    3    0    0 -0.12837145797E+00  0.34333117929E-01  0.12773858098E+00  0.85510241450E+00  0.83500000000E+00 0. -1.
        -11    1    4    4    0    0  0.97655885012E-01 -0.38611549282E-01 -0.10493379671E+00  0.14845499799E+00  0.51100000000E-03 0.  1.
         11    1    4    4    0    0  0.15240983626E-01 -0.26852438923E-02 -0.63506983171E-02  0.16735907707E-01  0.51100000000E-03 0. -1.
</event>
<event>
 8    1  0.5616615E+005  0.1043930E+01  0.7957747E-01            NaN
         13   -1    0    0    0    0  0.00000000000E+00  0.00000000000E+00  0.74505805969E-08  0.10566000000E+00  0.10566000000E+00 0. -1.
     999900   -1    0    0    0    0 -0.00000000000E+00 -0.00000000000E+00 -0.74505805969E-08  0.93827000000E+00  0.93827000000E+00 0.  1.
     999902    2    1    2    0    0  0.13084935594E-01  0.83026818006E-02  0.17377726320E-01  0.10206461980E+01  0.10203805790E+01 0.  0.
     999903    2    3    3    0    0 -0.16065207852E+00  0.28394628873E-01 -0.14372144824E-01  0.16693588954E+00  0.32337089995E-01 0.  0.
         14    1    1    2    0    0 -0.13084935594E-01 -0.83026818006E-02 -0.17377726320E-01  0.23283802023E-01  0.00000000000E+00 0.  1.
     999901    1    3    3    0    0  0.17373701411E+00 -0.20091947072E-01  0.31749871144E-01  0.85371030843E+00  0.83500000000E+00 0. -1.
        -11    1    4    4    0    0 -0.63156437990E-01  0.13892155800E-01 -0.21396925710E-01  0.68116203676E-01  0.51100000000E-03 0. -1.
         11    1    4    4    0    0 -0.97495640528E-01  0.14502473073E-01  0.70247808858E-02  0.98819685867E-01  0.51100000000E-03 0.  1.
</event>
<event>
 8    1  0.5616615E+005  0.1043930E+01  0.7957747E-01            NaN
         13   -1    0    0    0    0  0.00000000000E+00  0.00000000000E+00  0.74505805969E-08  0.10566000000E+00  0.10566000000E+00 0. -1.
     999900   -1    0    0    0    0 -0.00000000000E+00 -0.00000000000E+00 -0.74505805969E-08  0.93827000000E+00  0.93827000000E+00 0.  1.
     999902    2    1    2    0    0  0.21777933648E-01 -0.32717642413E-02 -0.47305905316E-02  0.10214053175E+01  0.10211569229E+01 0.  0.
     999903    2    3    3    0    0  0.30967154166E-01  0.78206576968E-01 -0.14697540265E+00  0.17041662871E+00  0.19100393702E-01 0.  0.
         14    1    1    2    0    0 -0.21777933648E-01  0.32717642413E-02  0.47305905316E-02  0.22524682506E-01  0.00000000000E+00 0. -1.
     999901    1    3    3    0    0 -0.91892205175E-02 -0.81478341209E-01  0.14224481212E+00  0.85098868878E+00  0.83500000000E+00 0. -1.
        -11    1    4    4    0    0  0.88628698559E-02  0.17485657455E-01 -0.20384097650E-01  0.28285530519E-01  0.51100000000E-03 0.  1.
         11    1    4    4    0    0  0.22104284310E-01  0.60720919513E-01 -0.12659130500E+00  0.14213109819E+00  0.51100000000E-03 0. -1.
</event>
<event>
 8    1  0.5616615E+005  0.1043930E+01  0.7957747E-01            NaN
         13   -1    0    0    0    0  0.00000000000E+00  0.00000000000E+00  0.74505805969E-08  0.10566000000E+00  0.10566000000E+00 0. -1.
     999900   -1    0    0    0    0 -0.00000000000E+00 -0.00000000000E+00 -0.74505805969E-08  0.93827000000E+00  0.93827000000E+00 0.  1.
     999902    2    1    2    0    0 -0.18808987115E-01  0.13031480428E-01 -0.48798195119E-02  0.10205332028E+01  0.10202649695E+01 0.  0.
     999903    2    3    3    0    0 -0.12229531660E+00  0.59187687183E-01  0.10214978532E+00  0.17110977951E+00  0.19612527232E-01 0.  0.
         14    1    1    2    0    0  0.18808987115E-01 -0.13031480428E-01  0.48798195119E-02  0.23396797151E-01  0.00000000000E+00 0. -1.
     999901    1    3    3    0    0  0.10348632949E+00 -0.46156206755E-01 -0.10702960483E+00  0.84942342334E+00  0.83500000000E+00 0.  1.
        -11    1    4    4    0    0 -0.72575223431E-01  0.33150061526E-01  0.47974085855E-01  0.93101362342E-01  0.51100000000E-03 0.  1.
         11    1    4    4    0    0 -0.49720093172E-01  0.26037625657E-01  0.54175699466E-01  0.78008417165E-01  0.51100000000E-03 0. -1.
</event>
<event>
 8    1  0.5616615E+005  0.1043930E+01  0.7957747E-01            NaN
         13   -1    0    0    0    0  0.00000000000E+00  0.00000000000E+00  0.74505805969E-08  0.10566000000E+00  0.10566000000E+00 0. -1.
     999900   -1    0    0    0    0 -0.00000000000E+00 -0.00000000000E+00 -0.74505805969E-08  0.93827000000E+00  0.93827000000E+00 0.  1.
     999902    2    1    2    0    0  0.98491145446E-02  0.79986280589E-02  0.20336285416E-01  0.10199602772E+01  0.10196785863E+01 0.  0.
     999903    2    3    3    0    0  0.15914643970E+00 -0.26209342223E-01 -0.44746264584E-01  0.16853757672E+00  0.19701971558E-01 0.  0.
         14    1    1    2    0    0 -0.98491145446E-02 -0.79986280589E-02 -0.20336285416E-01  0.23969722832E-01  0.00000000000E+00 0.  1.
     999901    1    3    3    0    0 -0.14929732515E+00  0.34207970282E-01  0.65082550000E-01  0.85142270045E+00  0.83500000000E+00 0.  1.
        -11    1    4    4    0    0  0.10486826754E+00 -0.26507025770E-01 -0.28026848680E-01  0.11173961392E+00  0.51100000000E-03 0.  1.
         11    1    4    4    0    0  0.54278172157E-01  0.29768354657E-03 -0.16719415903E-01  0.56797962793E-01  0.51100000000E-03 0. -1.
</event>
<event>
 8    1  0.5616615E+005  0.1043930E+01  0.7957747E-01            NaN
         13   -1    0    0    0    0  0.00000000000E+00  0.00000000000E+00  0.74505805969E-08  0.10566000000E+00  0.10566000000E+00 0. -1.
     999900   -1    0    0    0    0 -0.00000000000E+00 -0.00000000000E+00 -0.74505805969E-08  0.93827000000E+00  0.93827000000E+00 0.  1.
     999902    2    1    2    0    0  0.13498271031E-01  0.20358024078E-01 -0.28148539716E-02  0.10193418755E+01  0.10190452803E+01 0.  0.
     999903    2    3    3    0    0 -0.44796500736E-01 -0.78370153199E-01 -0.13762305259E+00  0.16579411241E+00  0.19974376459E-01 0.  0.
         14    1    1    2    0    0 -0.13498271031E-01 -0.20358024078E-01  0.28148539716E-02  0.24588124533E-01  0.00000000000E+00 0. -1.
     999901    1    3    3    0    0  0.58294771767E-01  0.98728177277E-01  0.13480819862E+00  0.85354776306E+00  0.83500000000E+00 0. -1.
        -11    1    4    4    0    0 -0.30343299892E-01 -0.36673457261E-01 -0.81676097466E-01  0.94535201561E-01  0.51100000000E-03 0.  1.
         11    1    4    4    0    0 -0.14453200844E-01 -0.41696695938E-01 -0.55946955124E-01  0.71258910849E-01  0.51100000000E-03 0. -1.
</event>
<event>
 8    1  0.5616615E+005  0.1043930E+01  0.7957747E-01            NaN
         13   -1    0    0    0    0  0.00000000000E+00  0.00000000000E+00  0.74505805969E-08  0.10566000000E+00  0.10566000000E+00 0.  1.
     999900   -1    0    0    0    0 -0.00000000000E+00 -0.00000000000E+00 -0.74505805969E-08  0.93827000000E+00  0.93827000000E+00 0.  1.
     999902    2    1    2    0    0  0.14037120015E-01  0.13832754062E-01  0.13552181975E-01  0.10200124863E+01  0.10197320358E+01 0.  0.
     999903    2    3    3    0    0  0.78393014396E-01  0.15087806744E+00 -0.27845892810E-02  0.17123984944E+00  0.20141404062E-01 0.  0.
         14    1    1    2    0    0 -0.14037120015E-01 -0.13832754062E-01 -0.13552181975E-01  0.23917513657E-01  0.00000000000E+00 0. -1.
     999901    1    3    3    0    0 -0.64355894380E-01 -0.13704531338E+00  0.16336771256E-01  0.84877263690E+00  0.83500000000E+00 0. -1.
        -11    1    4    4    0    0  0.58350894749E-01  0.91316994447E-01 -0.22682779143E-02  0.10839292688E+00  0.51100000000E-03 0.  1.
         11    1    4    4    0    0  0.20042119646E-01  0.59561072994E-01 -0.51631136666E-03  0.62846922555E-01  0.51100000000E-03 0. -1.
</event>
<event>
 8    1  0.6438069E+005  0.1043930E+01  0.7957747E-01            NaN
         13   -1    0    0    0    0  0.00000000000E+00  0.00000000000E+00  0.74505805969E-08  0.10566000000E+00  0.10566000000E+00 0.  1.
     999900   -1    0    0    0    0 -0.00000000000E+00 -0.00000000000E+00 -0.74505805969E-08  0.93827000000E+00  0.93827000000E+00 0. -1.
     999902    2    1    2    0    0  0.58770381614E-02 -0.74942147363E-02 -0.22451772766E-01  0.10195417870E+01  0.10192500530E+01 0.  0.
     999903    2    3    3    0    0 -0.48450160453E-02 -0.16782934647E+00 -0.37988818724E-02  0.16901533402E+00  0.19015465120E-01 0.  0.
         14    1    1    2    0    0 -0.58770381614E-02  0.74942147363E-02  0.22451772766E-01  0.24388212981E-01  0.00000000000E+00 0.  1.
     999901    1    3    3    0    0  0.10722054207E-01  0.16033513173E+00 -0.18652890894E-01  0.85052645300E+00  0.83500000000E+00 0. -1.
        -11    1    4    4    0    0 -0.52108819591E-02 -0.58418405475E-01  0.70099181995E-02  0.59069987838E-01  0.51100000000E-03 0. -1.
         11    1    4    4    0    0  0.36586591376E-03 -0.10941094099E+00 -0.10808800072E-01  0.10994534618E+00  0.51100000000E-03 0.  1.
</event>
<event>
 8    1  0.5616615E+005  0.1043930E+01  0.7957747E-01            NaN
         13   -1    0    0    0    0  0.00000000000E+00  0.00000000000E+00  0.74505805969E-08  0.10566000000E+00  0.10566000000E+00 0.  1.
     999900   -1    0    0    0    0 -0.00000000000E+00 -0.00000000000E+00 -0.74505805969E-08  0.93827000000E+00  0.93827000000E+00 0.  1.
     999902    2    1    2    0    0  0.11282757548E-01 -0.33124251890E-02  0.20414673612E-01  0.10203708897E+01  0.10200988780E+01 0.  0.
     999903    2    3    3    0    0  0.61221256723E-01  0.15111870509E+00 -0.35012632872E-01  0.16793906605E+00  0.19817672521E-01 0.  0.
         14    1    1    2    0    0 -0.11282757548E-01  0.33124251890E-02 -0.20414673612E-01  0.23559110281E-01  0.00000000000E+00 0. -1.
     999901    1    3    3    0    0 -0.49938499175E-01 -0.15443113027E+00  0.55427306484E-01  0.85243182367E+00  0.83500000000E+00 0. -1.
        -11    1    4    4    0    0  0.41427331967E-01  0.96071182574E-01 -0.31802927449E-01  0.10935073512E+00  0.51100000000E-03 0. -1.
         11    1    4    4    0    0  0.19793924757E-01  0.55047522511E-01 -0.32097054226E-02  0.58588330935E-01  0.51100000000E-03 0.  1.
</event>
<event>
 8    1  0.5616615E+005  0.1043930E+01  0.7957747E-01            NaN
         13   -1    0    0    0    0  0.00000000000E+00  0.00000000000E+00  0.74505805969E-08  0.10566000000E+00  0.10566000000E+00 0. -1.
     999900   -1    0    0    0    0 -0.00000000000E+00 -0.00000000000E+00 -0.74505805969E-08  0.93827000000E+00  0.93827000000E+00 0.  1.
     999902    2    1    2    0    0  0.20753817731E-02 -0.16389826467E-01 -0.17454569495E-01  0.10198967810E+01  0.10196135779E+01 0.  0.
     999903    2    3    3    0    0 -0.86293837989E-01  0.43860148915E-01  0.13204213710E+00  0.16490353899E+00  0.19690405357E-01 0.  0.
         14    1    1    2    0    0 -0.20753817731E-02  0.16389826467E-01  0.17454569495E-01  0.24033219039E-01  0.00000000000E+00 0.  1.
     999901    1    3    3    0    0  0.88369219762E-01 -0.60249975382E-01 -0.14949670660E+00  0.85499324197E+00  0.83500000000E+00 0.  1.
        -11    1    4    4    0    0 -0.55424815434E-01  0.38021961971E-01  0.85709642330E-01  0.10892191546E+00  0.51100000000E-03 0. -1.
         11    1    4    4    0    0 -0.30869022555E-01  0.58381869446E-02  0.46332494771E-01  0.55981623530E-01  0.51100000000E-03 0.  1.
</event>
<event>
 8    1  0.5616615E+005  0.1043930E+01  0.7957747E-01            NaN
         13   -1    0    0    0    0  0.00000000000E+00  0.00000000000E+00  0.74505805969E-08  0.10566000000E+00  0.10566000000E+00 0. -1.
     999900   -1    0    0    0    0 -0.00000000000E+00 -0.00000000000E+00 -0.74505805969E-08  0.93827000000E+00  0.93827000000E+00 0. -1.
     999902    2    1    2    0    0  0.21808450910E-01  0.66106709577E-02 -0.11984353539E-01  0.10181824908E+01  0.10178568909E+01 0.  0.
     999903    2    3    3    0    0  0.66530716873E-01 -0.13088421861E+00 -0.79310401178E-01  0.16808677709E+00  0.20149688085E-01 0.  0.
         14    1    1    2    0    0 -0.21808450910E-01 -0.66106709577E-02  0.11984353539E-01  0.25747509226E-01  0.00000000000E+00 0. -1.
     999901    1    3    3    0    0 -0.44722265964E-01  0.13749488957E+00  0.67326047638E-01  0.85009571368E+00  0.83500000000E+00 0.  1.
        -11    1    4    4    0    0  0.48099261342E-01 -0.74558500389E-01 -0.43210317748E-01  0.98690939821E-01  0.51100000000E-03 0.  1.
         11    1    4    4    0    0  0.18431455531E-01 -0.56325718219E-01 -0.36100083430E-01  0.69395837271E-01  0.51100000000E-03 0. -1.
</event>
<event>
 8    1  0.6196659E+005  0.1043930E+01  0.7957747E-01            NaN
         13   -1    0    0    0    0  0.00000000000E+00  0.00000000000E+00  0.74505805969E-08  0.10566000000E+00  0.10566000000E+00 0.  1.
     999900   -1    0    0    0    0 -0.00000000000E+00 -0.00000000000E+00 -0.74505805969E-08  0.93827000000E+00  0.93827000000E+00 0. -1.
     999902    2    1    2    0    0  0.19087688860E-01 -0.20973778598E-02 -0.13687403151E-01  0.10203485695E+01  0.10200760361E+01 0.  0.
     999903    2    3    3    0    0  0.35465374429E-01  0.16374251662E+00  0.14346491764E-02  0.16874726861E+00  0.20104176513E-01 0.  0.
         14    1    1    2    0    0 -0.19087688860E-01  0.20973778598E-02  0.13687403151E-01  0.23581430511E-01  0.00000000000E+00 0.  1.
     999901    1    3    3    0    0 -0.16377685569E-01 -0.16583989448E+00 -0.15122052328E-01  0.85160130088E+00  0.83500000000E+00 0.  1.
        -11    1    4    4    0    0  0.14605106457E-02  0.48610445900E-01  0.23861905704E-02  0.48693568039E-01  0.51100000000E-03 0. -1.
         11    1    4    4    0    0  0.34004863783E-01  0.11513207072E+00 -0.95154139401E-03  0.12005370057E+00  0.51100000000E-03 0.  1.
</event>
<event>
 8    1  0.5616615E+005  0.1043930E+01  0.7957747E-01            NaN
         13   -1    0    0    0    0  0.00000000000E+00  0.00000000000E+00  0.74505805969E-08  0.10566000000E+00  0.10566000000E+00 0.  1.
     999900   -1    0    0    0    0 -0.00000000000E+00 -0.00000000000E+00 -0.74505805969E-08  0.93827000000E+00  0.93827000000E+00 0.  1.
     999902    2    1    2    0    0  0.14579062714E-01  0.37199204886E-02  0.17728691339E-01  0.10206771857E+01  0.10204122814E+01 0.  0.
     999903    2    3    3    0    0  0.13120955483E+00  0.74146746857E-01 -0.74699166016E-01  0.16960109131E+00  0.21699710177E-01 0.  0.
         14    1    1    2    0    0 -0.14579062714E-01 -0.37199204886E-02 -0.17728691339E-01  0.23252814338E-01  0.00000000000E+00 0. -1.
     999901    1    3    3    0    0 -0.11663049212E+00 -0.70426826368E-01  0.92427857355E-01  0.85107609435E+00  0.83500000000E+00 0. -1.
        -11    1    4    4    0    0  0.61472158857E-01  0.27806888639E-01 -0.23445216113E-01  0.71428206263E-01  0.51100000000E-03 0. -1.
         11    1    4    4    0    0  0.69737395972E-01  0.46339858218E-01 -0.51253949903E-01  0.98172885046E-01  0.51100000000E-03 0.  1.
</event>
<event>
 8    1  0.5616615E+005  0.1043930E+01  0.7957747E-01            NaN
         13   -1    0    0    0    0  0.00000000000E+00  0.00000000000E+00  0.74505805969E-08  0.10566000000E+00  0.10566000000E+00 0. -1.
     999900   -1    0    0    0    0 -0.00000000000E+00 -0.00000000000E+00 -0.74505805969E-08  0.93827000000E+00  0.93827000000E+00 0. -1.
     999902    2    1    2    0    0 -0.22342243613E-01 -0.49352844767E-02  0.59022153851E-02  0.10203001665E+01  0.10200265001E+01 0.  0.
     999903    2    3    3    0    0  0.20173230015E-01 -0.15776471635E+00  0.53754952177E-01  0.16901919932E+00  0.19525110032E-01 0.  0.
         14    1    1    2    0    0  0.22342243613E-01  0.49352844767E-02 -0.59022153851E-02  0.23629833452E-01  0.00000000000E+00 0.  1.
     999901    1    3    3    0    0 -0.42515473628E-01  0.15282943187E+00 -0.47852736792E-01  0.85128096723E+00  0.83500000000E+00 0.  1.
        -11    1    4    4    0    0  0.21884668615E-02 -0.64965690556E-01  0.29766918067E-01  0.71495880083E-01  0.51100000000E-03 0.  1.
         11    1    4    4    0    0  0.17984763154E-01 -0.92799025792E-01  0.23988034110E-01  0.97523319238E-01  0.51100000000E-03 0. -1.
</event>
<event>
 8    1  0.5616615E+005  0.1043930E+01  0.7957747E-01            NaN
         13   -1    0    0    0    0  0.00000000000E+00  0.00000000000E+00  0.74505805969E-08  0.10566000000E+00  0.10566000000E+00 0.  1.
     999900   -1    0    0    0    0 -0.00000000000E+00 -0.00000000000E+00 -0.74505805969E-08  0.93827000000E+00  0.93827000000E+00 0.  1.
     999902    2    1    2    0    0  0.13755885624E-01  0.10033455566E-01 -0.15948113200E-01  0.10206011137E+01  0.10203344532E+01 0.  0.
     999903    2    3    3    0    0 -0.93674845881E-01  0.10032570115E+00  0.92413710555E-01  0.16698449221E+00  0.22434430642E-01 0.  0.
         14    1    1    2    0    0 -0.13755885624E-01 -0.10033455566E-01  0.15948113200E-01  0.23328886268E-01  0.00000000000E+00 0.  1.
     999901    1    3    3    0    0  0.10743073151E+00 -0.90292245588E-01 -0.10836182376E+00  0.85361662152E+00  0.83500000000E+00 0.  1.
        -11    1    4    4    0    0 -0.85737569726E-01  0.97549334018E-01  0.90640918918E-01  0.15837563175E+00  0.51100000000E-03 0.  1.
         11    1    4    4    0    0 -0.79372761548E-02  0.27763671352E-02  0.17727916378E-02  0.86088604599E-02  0.51100000000E-03 0. -1.
</event>
<event>
 8    1  0.5616615E+005  0.1043930E+01  0.7957747E-01            NaN
         13   -1    0    0    0    0  0.00000000000E+00  0.00000000000E+00  0.74505805969E-08  0.10566000000E+00  0.10566000000E+00 0. -1.
     999900   -1    0    0    0    0 -0.00000000000E+00 -0.00000000000E+00 -0.74505805969E-08  0.93827000000E+00  0.93827000000E+00 0. -1.
     999902    2    1    2    0    0  0.23528289137E-01  0.97650696407E-02 -0.33234223030E-02  0.10182398830E+01  0.10179157516E+01 0.  0.
     999903    2    3    3    0    0  0.28622494693E-01 -0.52718130629E-01 -0.15495834391E+00  0.16727087612E+00  0.19209610959E-01 0.  0.
         14    1    1    2    0    0 -0.23528289137E-01 -0.97650696407E-02  0.33234223030E-02  0.25690116983E-01  0.00000000000E+00 0.  1.
     999901    1    3    3    0    0 -0.50942055562E-02  0.62483200269E-01  0.15163492160E+00  0.85096900689E+00  0.83500000000E+00 0.  1.
        -11    1    4    4    0    0  0.17500101330E-01 -0.19132363718E-01 -0.47245463162E-01  0.53895229830E-01  0.51100000000E-03 0.  1.
         11    1    4    4    0    0  0.11122393363E-01 -0.33585766910E-01 -0.10771288074E+00  0.11337564629E+00  0.51100000000E-03 0. -1.
</event>
<event>
 8    1  0.5616615E+005  0.1043930E+01  0.7957747E-01            NaN
         13   -1    0    0    0    0  0.00000000000E+00  0.00000000000E+00  0.74505805969E-08  0.10566000000E+00  0.10566000000E+00 0. -1.
     999900   -1    0    0    0    0 -0.00000000000E+00 -0.00000000000E+00 -0.74505805969E-08  0.93827000000E+00  0.93827000000E+00 0.  1.
     999902    2    1    2    0    0  0.13956135291E-01  0.15129418295E-01  0.14230092534E-01  0.10189066400E+01  0.10185993190E+01 0.  0.
     999903    2    3    3    0    0 -0.56716831714E-01 -0.10426907226E+00 -0.11054397162E+00  0.16331080385E+00  0.19016060704E-01 0.  0.
         14    1    1    2    0    0 -0.13956135291E-01 -0.15129418295E-01 -0.14230092534E-01  0.25023359961E-01  0.00000000000E+00 0.  1.
     999901    1    3    3    0    0  0.70672967005E-01  0.11939849055E+00  0.12477406415E+00  0.85559583619E+00  0.83500000000E+00 0.  1.
        -11    1    4    4    0    0 -0.46507382122E-01 -0.94547864681E-01 -0.91108748364E-01  0.13929573022E+00  0.51100000000E-03 0.  1.
         11    1    4    4    0    0 -0.10209449592E-01 -0.97212075774E-02 -0.19435223256E-01  0.24015073636E-01  0.51100000000E-03 0. -1.
</event>
<event>
 8    1  0.5616615E+005  0.1043930E+01  0.7957747E-01            NaN
         13   -1    0    0    0    0  0.00000000000E+00  0.00000000000E+00  0.74505805969E-08  0.10566000000E+00  0.10566000000E+00 0.  1.
     999900   -1    0    0    0    0 -0.00000000000E+00 -0.00000000000E+00 -0.74505805969E-08  0.93827000000E+00  0.93827000000E+00 0. -1.
     999902    2    1    2    0    0 -0.20238388510E-01 -0.99809124794E-02 -0.84493308702E-02  0.10198343121E+01  0.10195496172E+01 0.  0.
     999903    2    3    3    0    0 -0.16468820026E+00  0.40984551577E-01 -0.18642131040E-02  0.17087519034E+00  0.19822174739E-01 0.  0.
         14    1    1    2    0    0  0.20238388510E-01  0.99809124794E-02  0.84493308702E-02  0.24095687903E-01  0.00000000000E+00 0.  1.
     999901    1    3    3    0    0  0.14444981175E+00 -0.50965464056E-01 -0.65851177662E-02  0.84895912176E+00  0.83500000000E+00 0.  1.
        -11    1    4    4    0    0 -0.95977298666E-01  0.14772220273E-01 -0.52890628945E-02  0.97252741135E-01  0.51100000000E-03 0.  1.
         11    1    4    4    0    0 -0.68710901590E-01  0.26212331303E-01  0.34248497904E-02  0.73622449203E-01  0.51100000000E-03 0. -1.
</event>
<event>
 8    1  0.5616615E+005  0.1043930E+01  0.7957747E-01            NaN
         13   -1    0    0    0    0  0.00000000000E+00  0.00000000000E+00  0.74505805969E-08  0.10566000000E+00  0.10566000000E+00 0.  1.
     999900   -1    0    0    0    0 -0.00000000000E+00 -0.00000000000E+00 -0.74505805969E-08  0.93827000000E+00  0.93827000000E+00 0. -1.
     999902    2    1    2    0    0  0.27910004216E-02  0.19145111577E-01  0.14017138102E-01  0.10200384714E+01  0.10197586371E+01 0.  0.
     999903    2    3    3    0    0  0.47026982601E-01 -0.13949031123E+00  0.75892770294E-01  0.16670640624E+00  0.19032321968E-01 0.  0.
         14    1    1    2    0    0 -0.27910004216E-02 -0.19145111577E-01 -0.14017138102E-01  0.23891528650E-01  0.00000000000E+00 0. -1.
     999901    1    3    3    0    0 -0.44235982180E-01  0.15863542280E+00 -0.61875632193E-01  0.85333206511E+00  0.83500000000E+00 0. -1.
        -11    1    4    4    0    0  0.46200662569E-01 -0.12825087551E+00  0.74473153610E-01  0.15533608731E+00  0.51100000000E-03 0.  1.
         11    1    4    4    0    0  0.82632003230E-03 -0.11239435720E-01  0.14196166844E-02  0.11370318933E-01  0.51100000000E-03 0. -1.
</event>
<event>
 8    1  0.5616615E+005  0.1043930E+01  0.7957747E-01            NaN
         13   -1    0    0    0    0  0.00000000000E+00  0.00000000000E+00  0.74505805969E-08  0.10566000000E+00  0.10566000000E+00 0.  1.
     999900   -1    0    0    0    0 -0.00000000000E+00 -0.00000000000E+00 -0.74505805969E-08  0.93827000000E+00  0.93827000000E+00 0. -1.
     999902    2    1    2    0    0 -0.13227210516E-01  0.87994300013E-02 -0.16031448158E-01  0.10213601884E+01  0.10211107864E+01 0.  0.
     999903    2    3    3    0    0  0.93971129269E-02 -0.15339891187E+00  0.61891378076E-01  0.16689127206E+00  0.20065445815E-01 0.  0.
         14    1    1    2    0    0  0.13227210516E-01 -0.87994300013E-02  0.16031448158E-01  0.22569811617E-01  0.00000000000E+00 0. -1.
     999901    1    3    3    0    0 -0.22624323443E-01  0.16219834187E+00 -0.77922826234E-01  0.85446891632E+00  0.83500000000E+00 0. -1.
        -11    1    4    4    0    0  0.14270826686E-01 -0.13686333748E+00  0.52736629222E-01  0.14736567722E+00  0.51100000000E-03 0. -1.
         11    1    4    4    0    0 -0.48737137594E-02 -0.16535574385E-01  0.91547488536E-02  0.19525594834E-01  0.51100000000E-03 0.  1.
</event>
<event>
 7    1  0.5616615E+005  0.1043930E+01  0.7957747E-01            NaN
         13   -1    0    0    0    0  0.00000000000E+00  0.00000000000E+00  0.74505805969E-08  0.10566000000E+00  0.10566000000E+00 0. -1.
     999900   -1    0    0    0    0 -0.00000000000E+00 -0.00000000000E+00 -0.74505805969E-08  0.93827000000E+00  0.93827000000E+00 0.  1.
     999902    2    1    2    0    0  0.33625135551E-03  0.96672525989E-02 -0.22190387572E-01  0.10197229321E+01  0.10194355674E+01 0.  0.
         14    1    1    2    0    0 -0.33625135551E-03 -0.96672525989E-02  0.22190387572E-01  0.24207067943E-01  0.00000000000E+00 0. -1.
     999901    1    3    3    0    0 -0.13787353957E+00 -0.31776548284E-01  0.46339063369E-01  0.84816930546E+00  0.83500000000E+00 0.  1.
        -11    1    3    3    0    0  0.29217594885E-01 -0.15094364463E-01 -0.48750382588E-02  0.33249583583E-01  0.51100000000E-03 0. -1.
         11    1    3    3    0    0  0.10899219604E+00  0.56538165346E-01 -0.63654412683E-01  0.13830404301E+00  0.51100000000E-03 0.  1.
</event>
<event>
 8    1  0.5616615E+005  0.1043930E+01  0.7957747E-01            NaN
         13   -1    0    0    0    0  0.00000000000E+00  0.00000000000E+00  0.74505805969E-08  0.10566000000E+00  0.10566000000E+00 0. -1.
     999900   -1    0    0    0    0 -0.00000000000E+00 -0.00000000000E+00 -0.74505805969E-08  0.93827000000E+00  0.93827000000E+00 0. -1.
     999902    2    1    2    0    0  0.16681923351E-01 -0.81397382400E-02 -0.15409639772E-01  0.10198053466E+01  0.10195199586E+01 0.  0.
     999903    2    3    3    0    0  0.69968964015E-01 -0.44551602602E-01 -0.14893169762E+00  0.17173785368E+00  0.20802370278E-01 0.  0.
         14    1    1    2    0    0 -0.16681923351E-01  0.81397382400E-02  0.15409639772E-01  0.24124653431E-01  0.00000000000E+00 0.  1.
     999901    1    3    3    0    0 -0.53287040664E-01  0.36411864362E-01  0.13352205785E+00  0.84806749289E+00  0.83500000000E+00 0.  1.
        -11    1    4    4    0    0  0.36935769979E-01 -0.34360678995E-01 -0.79149024355E-01  0.93860196795E-01  0.51100000000E-03 0.  1.
         11    1    4    4    0    0  0.33033194036E-01 -0.10190923606E-01 -0.69782673266E-01  0.77877656881E-01  0.51100000000E-03 0. -1.
</event>
<event>
 8    1  0.5616615E+005  0.1043930E+01  0.7957747E-01            NaN
         13   -1    0    0    0    0  0.00000000000E+00  0.00000000000E+00  0.74505805969E-08  0.10566000000E+00  0.10566000000E+00 0.  1.
     999900   -1    0    0    0    0 -0.00000000000E+00 -0.00000000000E+00 -0.74505805969E-08  0.93827000000E+00  0.93827000000E+00 0.  1.
     999902    2    1    2    0    0  0.16562692596E-01 -0.94512217521E-02  0.11966344667E-01  0.10214168531E+01  0.10211687157E+01 0.  0.
     999903    2    3    3    0    0 -0.14835438770E+00 -0.12088870802E-01 -0.71164910158E-01  0.16623242498E+00  0.20337392415E-01 0.  0.
         14    1    1    2    0    0 -0.16562692596E-01  0.94512217521E-02 -0.11966344667E-01  0.22513146900E-01  0.00000000000E+00 0. -1.
     999901    1    3    3    0    0  0.16491708030E+00  0.26376490497E-02  0.83131254825E-01  0.85518442812E+00  0.83500000000E+00 0. -1.
        -11    1    4    4    0    0 -0.36145506328E-01 -0.89440088210E-02 -0.25020524177E-01  0.44864024257E-01  0.51100000000E-03 0. -1.
         11    1    4    4    0    0 -0.11220888137E+00 -0.31448619808E-02 -0.46144385981E-01  0.12136840072E+00  0.51100000000E-03 0.  1.
</event>
<event>
 8    1  0.5616615E+005  0.1043930E+01  0.7957747E-01            NaN
         13   -1    0    0    0    0  0.00000000000E+00  0.00000000000E+00  0.74505805969E-08  0.10566000000E+00  0.10566000000E+00 0.  1.
     999900   -1    0    0    0    0 -0.00000000000E+00 -0.00000000000E+00 -0.74505805969E-08  0.93827000000E+00  0.93827000000E+00 0. -1.
     999902    2    1    2    0    0  0.21722173026E-01 -0.76797787126E-02 -0.75470402601E-02  0.10196856271E+01  0.10193973653E+01 0.  0.
     999903    2    3    3    0    0  0.11580125441E+00 -0.70284842151E-01  0.10161678692E+00  0.17003157471E+00  0.15325646997E-01 0.  0.
         14    1    1    2    0    0 -0.21722173026E-01  0.76797787126E-02  0.75470402601E-02  0.24244372930E-01  0.00000000000E+00 0.  1.
     999901    1    3    3    0    0 -0.94079081385E-01  0.62605063438E-01 -0.10916382718E+00  0.84965405236E+00  0.83500000000E+00 0. -1.
        -11    1    4    4    0    0  0.81785186904E-01 -0.57345760775E-01  0.76297886650E-01  0.12569400027E+00  0.51100000000E-03 0. -1.
         11    1    4    4    0    0  0.34016067507E-01 -0.12939081376E-01  0.25318900271E-01  0.44337574442E-01  0.51100000000E-03 0.  1.
</event>
<event>
 8    1  0.5616615E+005  0.1043930E+01  0.7957747E-01            NaN
         13   -1    0    0    0    0  0.00000000000E+00  0.00000000000E+00  0.74505805969E-08  0.10566000000E+00  0.10566000000E+00 0. -1.
     999900   -1    0    0    0    0 -0.00000000000E+00 -0.00000000000E+00 -0.74505805969E-08  0.93827000000E+00  0.93827000000E+00 0.  1.
     999902    2    1    2    0    0 -0.85132651304E-02  0.14392542643E-01 -0.17316817729E-01  0.10198573362E+01  0.10195731916E+01 0.  0.
     999903    2    3    3    0    0  0.31398666503E-01  0.15579479342E+00 -0.59827273361E-01  0.17096411696E+00  0.19787186131E-01 0.  0.
         14    1    1    2    0    0  0.85132651304E-02 -0.14392542643E-01  0.17316817729E-01  0.24072663816E-01  0.00000000000E+00 0. -1.
     999901    1    3    3    0    0 -0.39911931634E-01 -0.14140225077E+00  0.42510455632E-01  0.84889321923E+00  0.83500000000E+00 0. -1.
        -11    1    4    4    0    0  0.34115803529E-01  0.14799893165E+00 -0.56557396077E-01  0.16206965167E+00  0.51100000000E-03 0.  1.
         11    1    4    4    0    0 -0.27171370261E-02  0.77958617657E-02 -0.32698772839E-02  0.88944652869E-02  0.51100000000E-03 0. -1.
</event>
<event>
 8    1  0.5616615E+005  0.1043930E+01  0.7957747E-01            NaN
         13   -1    0    0    0    0  0.00000000000E+00  0.00000000000E+00  0.74505805969E-08  0.10566000000E+00  0.10566000000E+00 0.  1.
     999900   -1    0    0    0    0 -0.00000000000E+00 -0.00000000000E+00 -0.74505805969E-08  0.93827000000E+00  0.93827000000E+00 0.  1.
     999902    2    1    2    0    0  0.91918675919E-02 -0.21580891388E-01  0.23123821481E-02  0.10203594163E+01  0.10200871365E+01 0.  0.
     999903    2    3    3    0    0  0.60756110073E-01  0.14805776951E+00  0.39026810697E-01  0.16595371900E+00  0.20128012186E-01 0.  0.
         14    1    1    2    0    0 -0.91918675919E-02  0.21580891388E-01 -0.23123821481E-02  0.23570583661E-01  0.00000000000E+00 0. -1.
     999901    1    3    3    0    0 -0.51564242481E-01 -0.16963866090E+00 -0.36714428549E-01  0.85440569733E+00  0.83500000000E+00 0. -1.
        -11    1    4    4    0    0  0.41362902305E-01  0.86647586167E-01  0.14816916405E-01  0.97151922309E-01  0.51100000000E-03 0. -1.
         11    1    4    4    0    0  0.19393207768E-01  0.61410183343E-01  0.24209894293E-01  0.68801796695E-01  0.51100000000E-03 0.  1.
</event>
<event>
 8    1  0.5616615E+005  0.1043930E+01  0.7957747E-01            NaN
         13   -1    0    0    0    0  0.00000000000E+00  0.00000000000E+00  0.74505805969E-08  0.10566000000E+00  0.10566000000E+00 0. -1.
     999900   -1    0    0    0    0 -0.00000000000E+00 -0.00000000000E+00 -0.74505805969E-08  0.93827000000E+00  0.93827000000E+00 0. -1.
     999902    2    1    2    0    0  0.19286357896E-03 -0.28055824495E-01 -0.68536202369E-02  0.10150485424E+01  0.10146375731E+01 0.  0.
     999903    2    3    3    0    0 -0.17125140596E-01 -0.16456562083E+00  0.22819397461E-01  0.16826620567E+00  0.20437149307E-01 0.  0.
         14    1    1    2    0    0 -0.19286357896E-03  0.28055824495E-01  0.68536202369E-02  0.28881457629E-01  0.00000000000E+00 0. -1.
     999901    1    3    3    0    0  0.17318004175E-01  0.13650979633E+00 -0.29673017697E-01  0.84678233670E+00  0.83500000000E+00 0. -1.
        -11    1    4    4    0    0 -0.54176787264E-02 -0.13157950604E+00  0.17142364924E-01  0.13280300993E+00  0.51100000000E-03 0.  1.
         11    1    4    4    0    0 -0.11707461870E-01 -0.32986114794E-01  0.56770325362E-02  0.35463195739E-01  0.51100000000E-03 0. -1.
</event>
<event>
 8    1  0.5616615E+005  0.1043930E+01  0.7957747E-01            NaN
         13   -1    0    0    0    0  0.00000000000E+00  0.00000000000E+00  0.74505805969E-08  0.10566000000E+00  0.10566000000E+00 0.  1.
     999900   -1    0    0    0    0 -0.00000000000E+00 -0.00000000000E+00 -0.74505805969E-08  0.93827000000E+00  0.93827000000E+00 0. -1.
     999902    2    1    2    0    0  0.16940118894E-01 -0.13957397311E-01  0.68894687934E-02  0.10209247539E+01  0.10206655239E+01 0.  0.
     999903    2    3    3    0    0  0.66299476220E-01  0.38909849652E-01  0.15087155162E+00  0.17052065458E+00  0.20136325475E-01 0.  0.
         14    1    1    2    0    0 -0.16940118894E-01  0.13957397311E-01 -0.68894687934E-02  0.23005246100E-01  0.00000000000E+00 0. -1.
     999901    1    3    3    0    0 -0.49359357325E-01 -0.52867246962E-01 -0.14398208283E+00  0.85040409932E+00  0.83500000000E+00 0. -1.
        -11    1    4    4    0    0  0.87867497615E-02  0.16549555801E-02  0.77659882389E-02  0.11854009603E-01  0.51100000000E-03 0. -1.
         11    1    4    4    0    0  0.57512726458E-01  0.37254894072E-01  0.14310556339E+00  0.15866664498E+00  0.51100000000E-03 0.  1.
</event>
<event>
 7    1  0.5616615E+005  0.1043930E+01  0.7957747E-01            NaN
         13   -1    0    0    0    0  0.00000000000E+00  0.00000000000E+00  0.74505805969E-08  0.10566000000E+00  0.10566000000E+00 0. -1.
     999900   -1    0    0    0    0 -0.00000000000E+00 -0.00000000000E+00 -0.74505805969E-08  0.93827000000E+00  0.93827000000E+00 0. -1.
     999903    2    1    2    0    0  0.71044276500E-01 -0.12071313739E+00 -0.31309422913E-01  0.14474282040E+00  0.18741753709E-01 0.  0.
         14    1    1    2    0    0  0.76785459704E-02  0.56867969097E-01  0.57247420946E-02  0.57668870714E-01  0.00000000000E+00 0.  1.
     999901    1    1    2    0    0 -0.78722822470E-01  0.63845168298E-01  0.25584680819E-01  0.84151830888E+00  0.83500000000E+00 0.  1.
        -11    1    3    3    0    0  0.62479588695E-01 -0.11102535325E+00 -0.23267406980E-01  0.12950660761E+00  0.51100000000E-03 0. -1.
         11    1    3    3    0    0  0.85646878050E-02 -0.96877841483E-02 -0.80420159339E-02  0.15236212790E-01  0.51100000000E-03 0.  1.
</event>
<event>
 8    1  0.5616615E+005  0.1043930E+01  0.7957747E-01            NaN
         13   -1    0    0    0    0  0.00000000000E+00  0.00000000000E+00  0.74505805969E-08  0.10566000000E+00  0.10566000000E+00 0.  1.
     999900   -1    0    0    0    0 -0.00000000000E+00 -0.00000000000E+00 -0.74505805969E-08  0.93827000000E+00  0.93827000000E+00 0. -1.
     999902    2    1    2    0    0  0.16946685916E-01  0.97642208333E-02  0.99388890089E-02  0.10219911831E+01  0.10217556786E+01 0.  0.
     999903    2    3    3    0    0 -0.66625919755E-01 -0.13909818983E-01 -0.15128321686E+00  0.16714475947E+00  0.20451471046E-01 0.  0.
         14    1    1    2    0    0 -0.16946685916E-01 -0.97642208333E-02 -0.99388890089E-02  0.21938816895E-01  0.00000000000E+00 0. -1.
     999901    1    3    3    0    0  0.83572605671E-01  0.23674039816E-01  0.16122210587E+00  0.85484642363E+00  0.83500000000E+00 0.  1.
        -11    1    4    4    0    0 -0.42308287267E-01 -0.14119056591E-01 -0.77070631233E-01  0.89047640340E-01  0.51100000000E-03 0.  1.
         11    1    4    4    0    0 -0.24317632488E-01  0.20923760742E-03 -0.74212585626E-01  0.78097119131E-01  0.51100000000E-03 0. -1.
</event>
<event>
 8    1  0.5616615E+005  0.1043930E+01  0.7957747E-01            NaN
         13   -1    0    0    0    0  0.00000000000E+00  0.00000000000E+00  0.74505805969E-08  0.10566000000E+00  0.10566000000E+00 0. -1.
     999900   -1    0    0    0    0 -0.00000000000E+00 -0.00000000000E+00 -0.74505805969E-08  0.93827000000E+00  0.93827000000E+00 0.  1.
     999902    2    1    2    0    0  0.12963869875E-01 -0.74564855988E-03  0.15467123799E-01  0.10237347077E+01  0.10235354912E+01 0.  0.
     999903    2    3    3    0    0 -0.15460955153E+00 -0.43780614143E-01 -0.46584911327E-01  0.16874446510E+00  0.21992838337E-01 0.  0.
         14    1    1    2    0    0 -0.12963869875E-01  0.74564855988E-03 -0.15467123799E-01  0.20195292335E-01  0.00000000000E+00 0.  1.
     999901    1    3    3    0    0  0.16757342140E+00  0.43034965583E-01  0.62052035126E-01  0.85499024257E+00  0.83500000000E+00 0. -1.
        -11    1    4    4    0    0 -0.13557724281E+00 -0.40048882755E-01 -0.33324054472E-01  0.14524412382E+00  0.51100000000E-03 0.  1.
         11    1    4    4    0    0 -0.19032308719E-01 -0.37317313884E-02 -0.13260856856E-01  0.23500341272E-01  0.51100000000E-03 0. -1.
</event>
<event>
 8    1  0.5616615E+005  0.1043930E+01  0.7957747E-01            NaN
         13   -1    0    0    0    0  0.00000000000E+00  0.00000000000E+00  0.74505805969E-08  0.10566000000E+00  0.10566000000E+00 0. -1.
     999900   -1    0    0    0    0 -0.00000000000E+00 -0.00000000000E+00 -0.74505805969E-08  0.93827000000E+00  0.93827000000E+00 0. -1.
     999902    2    1    2    0    0  0.16943847972E-02  0.13735372948E-01  0.16804349776E-01  0.10221603518E+01  0.10219285040E+01 0.  0.
     999903    2    3    3    0    0  0.89345454180E-01  0.79789804025E-01 -0.11804607764E+00  0.16925031226E+00  0.19020219422E-01 0.  0.
         14    1    1    2    0    0 -0.16943847972E-02 -0.13735372948E-01 -0.16804349776E-01  0.21769648166E-01  0.00000000000E+00 0.  1.
     999901    1    3    3    0    0 -0.87651069383E-01 -0.66054431077E-01  0.13485042741E+00  0.85291003957E+00  0.83500000000E+00 0.  1.
        -11    1    4    4    0    0  0.34780395429E-01  0.19146288311E-01 -0.39204576892E-01  0.55798890962E-01  0.51100000000E-03 0. -1.
         11    1    4    4    0    0  0.54565058751E-01  0.60643515714E-01 -0.78841500744E-01  0.11345142130E+00  0.51100000000E-03 0.  1.
</event>
<event>
 8    1  0.5616615E+005  0.1043930E+01  0.7957747E-01            NaN
         13   -1    0    0    0    0  0.00000000000E+00  0.00000000000E+00  0.74505805969E-08  0.10566000000E+00  0.10566000000E+00 0. -1.
     999900   -1    0    0    0    0 -0.00000000000E+00 -0.00000000000E+00 -0.74505805969E-08  0.93827000000E+00  0.93827000000E+00 0. -1.
     999902    2    1    2    0    0 -0.84030078866E-02 -0.20081210082E-01 -0.87857169675E-02  0.10204554529E+01  0.10201854130E+01 0.  0.
     999903    2    3    3    0    0  0.15059934761E+00 -0.70653425535E-02 -0.71323443948E-01  0.16805464976E+00  0.20621568384E-01 0.  0.
         14    1    1    2    0    0  0.84030078866E-02  0.20081210082E-01  0.87857169675E-02  0.23474547121E-01  0.00000000000E+00 0. -1.
     999901    1    3    3    0    0 -0.15900235550E+00 -0.13015867528E-01  0.62537726981E-01  0.85240080312E+00  0.83500000000E+00 0. -1.
        -11    1    4    4    0    0  0.11532653169E+00  0.20077300174E-02 -0.59307941127E-01  0.12969939434E+00  0.51100000000E-03 0.  1.
         11    1    4    4    0    0  0.35272815924E-01 -0.90730725710E-02 -0.12015502821E-01  0.38355255417E-01  0.51100000000E-03 0. -1.
</event>
<event>
 8    1  0.5616615E+005  0.1043930E+01  0.7957747E-01            NaN
         13   -1    0    0    0    0  0.00000000000E+00  0.00000000000E+00  0.74505805969E-08  0.10566000000E+00  0.10566000000E+00 0.  1.
     999900   -1    0    0    0    0 -0.00000000000E+00 -0.00000000000E+00 -0.74505805969E-08  0.93827000000E+00  0.93827000000E+00 0.  1.
     999902    2    1    2    0    0  0.81360574664E-02  0.22163201512E-01  0.97511195742E-03  0.10203004893E+01  0.10200268304E+01 0.  0.
     999903    2    3    3    0    0  0.10409603309E+00 -0.17236753109E-01  0.13043664783E+00  0.16898035997E+00  0.20187946790E-01 0.  0.
         14    1    1    2    0    0 -0.81360574664E-02 -0.22163201512E-01 -0.97511195742E-03  0.23629510695E-01  0.00000000000E+00 0. -1.
     999901    1    3    3    0    0 -0.95959975624E-01  0.39399954621E-01 -0.12946153587E+00  0.85132012934E+00  0.83500000000E+00 0.  1.
        -11    1    4    4    0    0  0.41093282283E-01  0.27152036016E-02  0.54504371508E-01  0.68315575192E-01  0.51100000000E-03 0.  1.
         11    1    4    4    0    0  0.63002750807E-01 -0.19951956711E-01  0.75932276319E-01  0.10066478478E+00  0.51100000000E-03 0. -1.
</event>
<event>
 8    1  0.5616615E+005  0.1043930E+01  0.7957747E-01            NaN
         13   -1    0    0    0    0  0.00000000000E+00  0.00000000000E+00  0.74505805969E-08  0.10566000000E+00  0.10566000000E+00 0.  1.
     999900   -1    0    0    0    0 -0.00000000000E+00 -0.00000000000E+00 -0.74505805969E-08  0.93827000000E+00  0.93827000000E+00 0.  1.
     999902    2    1    2    0    0 -0.33868971437E-02  0.18066709450E-01 -0.78197213900E-02  0.10239543872E+01  0.10237595235E+01 0.  0.
     999903    2    3    3    0    0  0.92711943426E-01  0.60593363115E-01  0.12898459617E+00  0.17132086413E+00  0.21136516456E-01 0.  0.
         14    1    1    2    0    0  0.33868971437E-02 -0.18066709450E-01  0.78197213900E-02  0.19975612762E-01  0.00000000000E+00 0.  1.
     999901    1    3    3    0    0 -0.96098840570E-01 -0.42526653665E-01 -0.13680431756E+00  0.85263352311E+00  0.83500000000E+00 0.  1.
        -11    1    4    4    0    0  0.27582793079E-01  0.11806243787E-01  0.23614106877E-01  0.38184879612E-01  0.51100000000E-03 0. -1.
         11    1    4    4    0    0  0.65129150347E-01  0.48787119328E-01  0.10537048929E+00  0.13313598451E+00  0.51100000000E-03 0.  1.
</event>
<event>
 8    1  0.5616615E+005  0.1043930E+01  0.7957747E-01            NaN
         13   -1    0    0    0    0  0.00000000000E+00  0.00000000000E+00  0.74505805969E-08  0.10566000000E+00  0.10566000000E+00 0.  1.
     999900   -1    0    0    0    0 -0.00000000000E+00 -0.00000000000E+00 -0.74505805969E-08  0.93827000000E+00  0.93827000000E+00 0.  1.
     999902    2    1    2    0    0  0.25626388350E-02 -0.19397984609E-01 -0.13568657518E-01  0.10201191329E+01  0.10198412072E+01 0.  0.
     999903    2    3    3    0    0 -0.44027312311E-01 -0.11052361396E+00  0.11789089919E+00  0.16866090204E+00  0.19858557132E-01 0.  0.
         14    1    1    2    0    0 -0.25626388350E-02  0.19397984609E-01  0.13568657518E-01  0.23810867089E-01  0.00000000000E+00 0.  1.
     999901    1    3    3    0    0  0.46589951146E-01  0.91125629355E-01 -0.13145955671E+00  0.85145823087E+00  0.83500000000E+00 0.  1.
        -11    1    4    4    0    0 -0.13682291112E-01 -0.50194974891E-01  0.62471126089E-01  0.81299712854E-01  0.51100000000E-03 0.  1.
         11    1    4    4    0    0 -0.30345021199E-01 -0.60328639073E-01  0.55419773101E-01  0.87361189183E-01  0.51100000000E-03 0. -1.
</event>
<event>
 8    1  0.5616615E+005  0.1043930E+01  0.7957747E-01            NaN
         13   -1    0    0    0    0  0.00000000000E+00  0.00000000000E+00  0.74505805969E-08  0.10566000000E+00  0.10566000000E+00 0. -1.
     999900   -1    0    0    0    0 -0.00000000000E+00 -0.00000000000E+00 -0.74505805969E-08  0.93827000000E+00  0.93827000000E+00 0. -1.
     999902    2    1    2    0    0 -0.10702408446E-01 -0.18946322879E-02  0.21673758754E-01  0.10196837014E+01  0.10193953933E+01 0.  0.
     999903    2    3    3    0    0  0.93360614477E-01 -0.28722622613E-01 -0.13047962363E+00  0.16415783645E+00  0.19536368669E-01 0.  0.
         14    1    1    2    0    0  0.10702408446E-01  0.18946322879E-02 -0.21673758754E-01  0.24246298616E-01  0.00000000000E+00 0.  1.
     999901    1    3    3    0    0 -0.10406302292E+00  0.26827990325E-01  0.15215338238E+00  0.85552586494E+00  0.83500000000E+00 0.  1.
        -11    1    4    4    0    0  0.70763685312E-01 -0.21899783400E-01 -0.83801349972E-01  0.11184823222E+00  0.51100000000E-03 0. -1.
         11    1    4    4    0    0  0.22596929165E-01 -0.68228392125E-02 -0.46678273654E-01  0.52309604232E-01  0.51100000000E-03 0.  1.
</event>
<event>
 8    1  0.5616615E+005  0.1043930E+01  0.7957747E-01            NaN
         13   -1    0    0    0    0  0.00000000000E+00  0.00000000000E+00  0.74505805969E-08  0.10566000000E+00  0.10566000000E+00 0.  1.
     999900   -1    0    0    0    0 -0.00000000000E+00 -0.00000000000E+00 -0.74505805969E-08  0.93827000000E+00  0.93827000000E+00 0. -1.
     999902    2    1    2    0    0  0.16787922341E-01 -0.15841661292E-01 -0.46852433100E-02  0.10203769944E+01  0.10201051253E+01 0.  0.
     999903    2    3    3    0    0 -0.46140554981E-01 -0.96187638219E-01  0.12890007923E+00  0.16862262388E+00  0.20912826112E-01 0.  0.
         14    1    1    2    0    0 -0.16787922341E-01  0.15841661292E-01  0.46852433100E-02  0.23553005624E-01  0.00000000000E+00 0.  1.
     999901    1    3    3    0    0  0.62928477322E-01  0.80345976927E-01 -0.13358532254E+00  0.85175437050E+00  0.83500000000E+00 0. -1.
        -11    1    4    4    0    0 -0.35772300597E-01 -0.57224370146E-01  0.69923899253E-01  0.97179724410E-01  0.51100000000E-03 0.  1.
         11    1    4    4    0    0 -0.10368254384E-01 -0.38963268074E-01  0.58976179982E-01  0.71442899466E-01  0.51100000000E-03 0. -1.
</event>
<event>
 8    1  0.5616615E+005  0.1043930E+01  0.7957747E-01            NaN
         13   -1    0    0    0    0  0.00000000000E+00  0.00000000000E+00  0.74505805969E-08  0.10566000000E+00  0.10566000000E+00 0.  1.
     999900   -1    0    0    0    0 -0.00000000000E+00 -0.00000000000E+00 -0.74505805969E-08  0.93827000000E+00  0.93827000000E+00 0.  1.
     999902    2    1    2    0    0 -0.10058100570E-01 -0.12715682772E-01  0.20242871034E-01  0.10179949310E+01  0.10176645085E+01 0.  0.
     999903    2    3    3    0    0 -0.97579735889E-01 -0.13686556536E+00  0.29454975750E-02  0.16911482810E+00  0.18361952247E-01 0.  0.
         14    1    1    2    0    0  0.10058100570E-01  0.12715682772E-01 -0.20242871034E-01  0.25935068983E-01  0.00000000000E+00 0. -1.
     999901    1    3    3    0    0  0.87521635319E-01  0.12414988259E+00  0.17297373459E-01  0.84888010291E+00  0.83500000000E+00 0.  1.
        -11    1    4    4    0    0 -0.67042753955E-01 -0.84210424557E-01  0.85897218421E-02  0.10798227125E+00  0.51100000000E-03 0.  1.
         11    1    4    4    0    0 -0.30536981934E-01 -0.52655140805E-01 -0.56442242671E-02  0.61132556853E-01  0.51100000000E-03 0. -1.
</event>
<event>
 8    1  0.5616615E+005  0.1043930E+01  0.7957747E-01            NaN
         13   -1    0    0    0    0  0.00000000000E+00  0.00000000000E+00  0.74505805969E-08  0.10566000000E+00  0.10566000000E+00 0. -1.
     999900   -1    0    0    0    0 -0.00000000000E+00 -0.00000000000E+00 -0.74505805969E-08  0.93827000000E+00  0.93827000000E+00 0.  1.
     999902    2    1    2    0    0 -0.20430213114E-01 -0.66690546030E-02  0.97973618659E-02  0.10203109781E+01  0.10200375649E+01 0.  0.
     999903    2    3    3    0    0 -0.12420957315E+00 -0.11448190000E+00  0.25368874258E-01  0.17186461135E+00  0.18966849115E-01 0.  0.
         14    1    1    2    0    0  0.20430213114E-01  0.66690546030E-02 -0.97973618659E-02  0.23619021926E-01  0.00000000000E+00 0.  1.
     999901    1    3    3    0    0  0.10377936003E+00  0.10781284540E+00 -0.15571512392E-01  0.84844636672E+00  0.83500000000E+00 0. -1.
        -11    1    4    4    0    0 -0.40108517012E-01 -0.28795130491E-01  0.13652119464E-01  0.51229817136E-01  0.51100000000E-03 0. -1.
         11    1    4    4    0    0 -0.84101056135E-01 -0.85686769511E-01  0.11716754795E-01  0.12063479422E+00  0.51100000000E-03 0.  1.
</event>
<event>
 8    1  0.5616615E+005  0.1043930E+01  0.7957747E-01            NaN
         13   -1    0    0    0    0  0.00000000000E+00  0.00000000000E+00  0.74505805969E-08  0.10566000000E+00  0.10566000000E+00 0. -1.
     999900   -1    0    0    0    0 -0.00000000000E+00 -0.00000000000E+00 -0.74505805969E-08  0.93827000000E+00  0.93827000000E+00 0. -1.
     999902    2    1    2    0    0 -0.57502869790E-02 -0.20503162371E-01 -0.10225629392E-01  0.10203077866E+01  0.10200342987E+01 0.  0.
     999903    2    3    3    0    0 -0.83072208682E-02  0.80986637764E-01  0.14270591314E+00  0.16536932444E+00  0.18819947027E-01 0.  0.
         14    1    1    2    0    0  0.57502869790E-02  0.20503162371E-01  0.10225629392E-01  0.23622213359E-01  0.00000000000E+00 0. -1.
     999901    1    3    3    0    0  0.25569338892E-02 -0.10148980013E+00 -0.15293154253E+00  0.85493846220E+00  0.83500000000E+00 0. -1.
        -11    1    4    4    0    0 -0.13450513119E-01  0.40551437160E-01  0.69708791121E-01  0.81761311386E-01  0.51100000000E-03 0.  1.
         11    1    4    4    0    0  0.51432922506E-02  0.40435200604E-01  0.72997122021E-01  0.83608013058E-01  0.51100000000E-03 0. -1.
</event>
<event>
 8    1  0.5616615E+005  0.1043930E+01  0.7957747E-01            NaN
         13   -1    0    0    0    0  0.00000000000E+00  0.00000000000E+00  0.74505805969E-08  0.10566000000E+00  0.10566000000E+00 0.  1.
     999900   -1    0    0    0    0 -0.00000000000E+00 -0.00000000000E+00 -0.74505805969E-08  0.93827000000E+00  0.93827000000E+00 0. -1.
     999902    2    1    2    0    0 -0.21023938467E-01 -0.92701915678E-02 -0.50606512347E-02  0.10204023008E+01  0.10201310224E+01 0.  0.
     999903    2    3    3    0    0  0.74464737012E-01  0.11846163293E+00 -0.87701989937E-01  0.16630154734E+00  0.19657316078E-01 0.  0.
         14    1    1    2    0    0  0.21023938467E-01  0.92701915678E-02  0.50606512347E-02  0.23527699235E-01  0.00000000000E+00 0.  1.
     999901    1    3    3    0    0 -0.95488675480E-01 -0.12773182450E+00  0.82641338703E-01  0.85410075342E+00  0.83500000000E+00 0.  1.
        -11    1    4    4    0    0  0.40136852262E-01  0.52155013809E-01 -0.32216432650E-01  0.73275316640E-01  0.51100000000E-03 0.  1.
         11    1    4    4    0    0  0.34327884750E-01  0.66306619118E-01 -0.55485557287E-01  0.93026230703E-01  0.51100000000E-03 0. -1.
</event>
<event>
 8    1  0.6063304E+005  0.1043930E+01  0.7957747E-01            NaN
         13   -1    0    0    0    0  0.00000000000E+00  0.00000000000E+00  0.74505805969E-08  0.10566000000E+00  0.10566000000E+00 0. -1.
     999900   -1    0    0    0    0 -0.00000000000E+00 -0.00000000000E+00 -0.74505805969E-08  0.93827000000E+00  0.93827000000E+00 0. -1.
     999902    2    1    2    0    0 -0.65278612582E-02 -0.16739837948E-01  0.16242667683E-01  0.10197089472E+01  0.10194212464E+01 0.  0.
     999903    2    3    3    0    0  0.14197400646E+00 -0.45271799854E-01  0.77070031747E-01  0.16894937726E+00  0.19948631738E-01 0.  0.
         14    1    1    2    0    0  0.65278612582E-02  0.16739837948E-01 -0.16242667683E-01  0.24221052838E-01  0.00000000000E+00 0.  1.
     999901    1    3    3    0    0 -0.14850186772E+00  0.28531961906E-01 -0.60827364064E-01  0.85075956991E+00  0.83500000000E+00 0. -1.
        -11    1    4    4    0    0  0.96118746616E-01 -0.21391114172E-01  0.54341984074E-01  0.11247090989E+00  0.51100000000E-03 0.  1.
         11    1    4    4    0    0  0.45855259848E-01 -0.23880685683E-01  0.22728047673E-01  0.56478467369E-01  0.51100000000E-03 0. -1.
</event>
<event>
 8    1  0.5616615E+005  0.1043930E+01  0.7957747E-01            NaN
         13   -1    0    0    0    0  0.00000000000E+00  0.00000000000E+00  0.74505805969E-08  0.10566000000E+00  0.10566000000E+00 0. -1.
     999900   -1    0    0    0    0 -0.00000000000E+00 -0.00000000000E+00 -0.74505805969E-08  0.93827000000E+00  0.93827000000E+00 0.  1.
     999902    2    1    2    0    0 -0.12247671622E-01 -0.67743579071E-02 -0.16030847548E-01  0.10226488943E+01  0.10224274427E+01 0.  0.
     999903    2    3    3    0    0 -0.89428364614E-01 -0.91644560298E-01  0.11072734072E+00  0.17032709541E+00  0.18831293600E-01 0.  0.
         14    1    1    2    0    0  0.12247671622E-01  0.67743579071E-02  0.16030847548E-01  0.21281105665E-01  0.00000000000E+00 0. -1.
     999901    1    3    3    0    0  0.77180692991E-01  0.84870202391E-01 -0.12675818827E+00  0.85232179892E+00  0.83500000000E+00 0.  1.
        -11    1    4    4    0    0 -0.59305235012E-01 -0.64049753035E-01  0.63885140863E-01  0.10817141077E+00  0.51100000000E-03 0. -1.
         11    1    4    4    0    0 -0.30123129602E-01 -0.27594807263E-01  0.46842199859E-01  0.62155684643E-01  0.51100000000E-03 0.  1.
</event>
<event>
 8    1  0.5616615E+005  0.1043930E+01  0.7957747E-01            NaN
         13   -1    0    0    0    0  0.00000000000E+00  0.00000000000E+00  0.74505805969E-08  0.10566000000E+00  0.10566000000E+00 0.  1.
     999900   -1    0    0    0    0 -0.00000000000E+00 -0.00000000000E+00 -0.74505805969E-08  0.93827000000E+00  0.93827000000E+00 0.  1.
     999902    2    1    2    0    0  0.64196485605E-02  0.19270016210E-01  0.15211893413E-01  0.10185538869E+01  0.10182377294E+01 0.  0.
     999903    2    3    3    0    0  0.67909831922E-01 -0.14298003116E+00 -0.38138346783E-01  0.16404972157E+00  0.20068459528E-01 0.  0.
         14    1    1    2    0    0 -0.64196485605E-02 -0.19270016210E-01 -0.15211893413E-01  0.25376113051E-01  0.00000000000E+00 0. -1.
     999901    1    3    3    0    0 -0.61490183362E-01  0.16225004737E+00  0.53350240196E-01  0.85450416538E+00  0.83500000000E+00 0. -1.
        -11    1    4    4    0    0  0.62153871112E-01 -0.12613609356E+00 -0.39859837277E-01  0.14615911036E+00  0.51100000000E-03 0.  1.
         11    1    4    4    0    0  0.57559608103E-02 -0.16843937601E-01  0.17214904932E-02  0.17890611205E-01  0.51100000000E-03 0. -1.
</event>
<event>
 8    1  0.5616615E+005  0.1043930E+01  0.7957747E-01            NaN
         13   -1    0    0    0    0  0.00000000000E+00  0.00000000000E+00  0.74505805969E-08  0.10566000000E+00  0.10566000000E+00 0. -1.
     999900   -1    0    0    0    0 -0.00000000000E+00 -0.00000000000E+00 -0.74505805969E-08  0.93827000000E+00  0.93827000000E+00 0. -1.
     999902    2    1    2    0    0  0.22861893705E-02  0.89029818825E-02 -0.22437057086E-01  0.10196831182E+01  0.10193947960E+01 0.  0.
     999903    2    3    3    0    0  0.89854875219E-01 -0.13214967995E+00 -0.47795916780E-01  0.16796004115E+00  0.19715203491E-01 0.  0.
         14    1    1    2    0    0 -0.22861893705E-02 -0.89029818825E-02  0.22437057086E-01  0.24246881839E-01  0.00000000000E+00 0. -1.
     999901    1    3    3    0    0 -0.87568685848E-01  0.14105266184E+00  0.25358859694E-01  0.85172307701E+00  0.83500000000E+00 0.  1.
        -11    1    4    4    0    0  0.57022192420E-01 -0.73958208263E-01 -0.19526922806E-01  0.95409165352E-01  0.51100000000E-03 0.  1.
         11    1    4    4    0    0  0.32832682799E-01 -0.58191471691E-01 -0.28268993974E-01  0.72550875795E-01  0.51100000000E-03 0. -1.
</event>
<event>
 8    1  0.5616615E+005  0.1043930E+01  0.7957747E-01            NaN
         13   -1    0    0    0    0  0.00000000000E+00  0.00000000000E+00  0.74505805969E-08  0.10566000000E+00  0.10566000000E+00 0.  1.
     999900   -1    0    0    0    0 -0.00000000000E+00 -0.00000000000E+00 -0.74505805969E-08  0.93827000000E+00  0.93827000000E+00 0.  1.
     999902    2    1    2    0    0  0.30564755864E-02  0.13276750779E-01 -0.70066994707E-02  0.10286098175E+01  0.10284957213E+01 0.  0.
     999903    2    3    3    0    0  0.12033929411E+00 -0.26428004729E-01 -0.12442110825E+00  0.17635230330E+00  0.20965151046E-01 0.  0.
         14    1    1    2    0    0 -0.30564755864E-02 -0.13276750779E-01  0.70066994707E-02  0.15320182497E-01  0.00000000000E+00 0. -1.
     999901    1    3    3    0    0 -0.11728281852E+00  0.39704755508E-01  0.11741440878E+00  0.85225751421E+00  0.83500000000E+00 0. -1.
        -11    1    4    4    0    0  0.97137593272E-02  0.28643964963E-02 -0.14336955311E-01  0.17560503870E-01  0.51100000000E-03 0. -1.
         11    1    4    4    0    0  0.11062553478E+00 -0.29292401225E-01 -0.11008415294E+00  0.15879179943E+00  0.51100000000E-03 0.  1.
</event>
<event>
 8    1  0.5616615E+005  0.1043930E+01  0.7957747E-01            NaN
         13   -1    0    0    0    0  0.00000000000E+00  0.00000000000E+00  0.74505805969E-08  0.10566000000E+00  0.10566000000E+00 0.  1.
     999900   -1    0    0    0    0 -0.00000000000E+00 -0.00000000000E+00 -0.74505805969E-08  0.93827000000E+00  0.93827000000E+00 0. -1.
     999902    2    1    2    0    0  0.15152500438E-01  0.48910294031E-02 -0.16799874925E-01  0.10207835913E+01  0.10205211336E+01 0.  0.
     999903    2    3    3    0    0 -0.54797544287E-01  0.14717534897E+00 -0.60852271607E-01  0.16972339954E+00  0.20968528449E-01 0.  0.
         14    1    1    2    0    0 -0.15152500438E-01 -0.48910294031E-02  0.16799874925E-01  0.23146408698E-01  0.00000000000E+00 0.  1.
     999901    1    3    3    0    0  0.69950044724E-01 -0.14228431957E+00  0.44052396683E-01  0.85106019176E+00  0.83500000000E+00 0. -1.
        -11    1    4    4    0    0 -0.26806743123E-01  0.45167246876E-01 -0.23491645742E-01  0.57539553421E-01  0.51100000000E-03 0.  1.
         11    1    4    4    0    0 -0.27990801163E-01  0.10200810210E+00 -0.37360625865E-01  0.11218384612E+00  0.51100000000E-03 0. -1.
</event>
<event>
 8    1  0.5616615E+005  0.1043930E+01  0.7957747E-01            NaN
         13   -1    0    0    0    0  0.00000000000E+00  0.00000000000E+00  0.74505805969E-08  0.10566000000E+00  0.10566000000E+00 0. -1.
     999900   -1    0    0    0    0 -0.00000000000E+00 -0.00000000000E+00 -0.74505805969E-08  0.93827000000E+00  0.93827000000E+00 0. -1.
     999902    2    1    2    0    0  0.13681561671E-01  0.90298028903E-02 -0.16900527815E-01  0.10203853550E+01  0.10201136811E+01 0.  0.
     999903    2    3    3    0    0  0.65675573139E-02 -0.86901858616E-01  0.13926845747E+00  0.16547761449E+00  0.19800803318E-01 0.  0.
         14    1    1    2    0    0 -0.13681561671E-01 -0.90298028903E-02  0.16900527815E-01  0.23544645048E-01  0.00000000000E+00 0. -1.
     999901    1    3    3    0    0  0.71140043574E-02  0.95931661506E-01 -0.15616898528E+00  0.85490774046E+00  0.83500000000E+00 0. -1.
        -11    1    4    4    0    0  0.12556241771E-01 -0.52012949061E-01  0.75473770588E-01  0.92517875275E-01  0.51100000000E-03 0.  1.
         11    1    4    4    0    0 -0.59886844573E-02 -0.34888909554E-01  0.63794686879E-01  0.72959739215E-01  0.51100000000E-03 0. -1.
</event>
<event>
 8    1  0.5616615E+005  0.1043930E+01  0.7957747E-01            NaN
         13   -1    0    0    0    0  0.00000000000E+00  0.00000000000E+00  0.74505805969E-08  0.10566000000E+00  0.10566000000E+00 0. -1.
     999900   -1    0    0    0    0 -0.00000000000E+00 -0.00000000000E+00 -0.74505805969E-08  0.93827000000E+00  0.93827000000E+00 0. -1.
     999902    2    1    2    0    0  0.92096312149E-02  0.18816879939E-01  0.10169160839E-01  0.10206425761E+01  0.10203768736E+01 0.  0.
     999903    2    3    3    0    0  0.26192947445E-01  0.12639504377E+00 -0.10897048996E+00  0.17018343500E+00  0.20641130763E-01 0.  0.
         14    1    1    2    0    0 -0.92096312149E-02 -0.18816879939E-01 -0.10169160839E-01  0.23287423857E-01  0.00000000000E+00 0.  1.
     999901    1    3    3    0    0 -0.16983316230E-01 -0.10757816383E+00  0.11913965080E+00  0.85045914114E+00  0.83500000000E+00 0.  1.
        -11    1    4    4    0    0  0.20122433192E-02  0.36825117198E-01 -0.41147876708E-01  0.55258911122E-01  0.51100000000E-03 0.  1.
         11    1    4    4    0    0  0.24180704125E-01  0.89569926575E-01 -0.67822613253E-01  0.11492452388E+00  0.51100000000E-03 0. -1.
</event>
<event>
 8    1  0.5616615E+005  0.1043930E+01  0.7957747E-01            NaN
         13   -1    0    0    0    0  0.00000000000E+00  0.00000000000E+00  0.74505805969E-08  0.10566000000E+00  0.10566000000E+00 0. -1.
     999900   -1    0    0    0    0 -0.00000000000E+00 -0.00000000000E+00 -0.74505805969E-08  0.93827000000E+00  0.93827000000E+00 0.  1.
     999902    2    1    2    0    0  0.39756870555E-02 -0.44055404523E-02  0.21446980981E-01  0.10216771829E+01  0.10214348135E+01 0.  0.
     999903    2    3    3    0    0  0.65611553360E-01  0.14937065341E+00 -0.36584941984E-01  0.16842528467E+00  0.20301490086E-01 0.  0.
         14    1    1    2    0    0 -0.39756870555E-02  0.44055404523E-02 -0.21446980981E-01  0.22252817067E-01  0.00000000000E+00 0.  1.
     999901    1    3    3    0    0 -0.61635866305E-01 -0.15377619386E+00  0.58031922965E-01  0.85325189827E+00  0.83500000000E+00 0.  1.
        -11    1    4    4    0    0  0.21555284404E-01  0.28385836736E-01 -0.79465798854E-02  0.36521161890E-01  0.51100000000E-03 0. -1.
         11    1    4    4    0    0  0.44056268956E-01  0.12098481668E+00 -0.28638362099E-01  0.13190412277E+00  0.51100000000E-03 0.  1.
</event>
<event>
 7    1  0.5616615E+005  0.1043930E+01  0.7957747E-01            NaN
         13   -1    0    0    0    0  0.00000000000E+00  0.00000000000E+00  0.74505805969E-08  0.10566000000E+00  0.10566000000E+00 0. -1.
     999900   -1    0    0    0    0 -0.00000000000E+00 -0.00000000000E+00 -0.74505805969E-08  0.93827000000E+00  0.93827000000E+00 0. -1.
     999903    2    1    2    0    0 -0.28739263984E-01  0.20614918216E-01 -0.53281045624E-01  0.68081171112E-01  0.23350714973E-01 0.  0.
         14    1    1    2    0    0  0.46660654645E-01  0.10775867840E+00  0.57698328386E-01  0.13083671718E+00  0.00000000000E+00 0.  1.
     999901    1    1    2    0    0 -0.17921390661E-01 -0.12837359662E+00 -0.44172827621E-02  0.84501211171E+00  0.83500000000E+00 0. -1.
        -11    1    3    3    0    0 -0.70136353346E-02  0.11600602120E-01 -0.37165647755E-01  0.39564018302E-01  0.51100000000E-03 0.  1.
         11    1    3    3    0    0 -0.21725628650E-01  0.90143160962E-02 -0.16115397869E-01  0.28517152810E-01  0.51100000000E-03 0. -1.
</event>
<event>
 8    1  0.8336163E+005  0.1043930E+01  0.7957747E-01            NaN
         13   -1    0    0    0    0  0.00000000000E+00  0.00000000000E+00  0.74505805969E-08  0.10566000000E+00  0.10566000000E+00 0.  1.
     999900   -1    0    0    0    0 -0.00000000000E+00 -0.00000000000E+00 -0.74505805969E-08  0.93827000000E+00  0.93827000000E+00 0.  1.
     999902    2    1    2    0    0  0.15793075021E-01  0.10503691424E-01  0.16147181252E-01  0.10190205597E+01  0.10187160649E+01 0.  0.
     999903    2    3    3    0    0  0.16214541844E+00 -0.81899289421E-02 -0.42676890062E-01  0.16904777709E+00  0.19940469768E-01 0.  0.
         14    1    1    2    0    0 -0.15793075021E-01 -0.10503691424E-01 -0.16147181252E-01  0.24909440269E-01  0.00000000000E+00 0. -1.
     999901    1    3    3    0    0 -0.14635234342E+00  0.18693620366E-01  0.58824071313E-01  0.84997278264E+00  0.83500000000E+00 0. -1.
        -11    1    4    4    0    0  0.37825858857E-01  0.17472514262E-02 -0.22271806561E-02  0.37935075333E-01  0.51100000000E-03 0. -1.
         11    1    4    4    0    0  0.12431955959E+00 -0.99371803683E-02 -0.40449709406E-01  0.13111270176E+00  0.51100000000E-03 0.  1.
</event>
<event>
 8    1  0.5616615E+005  0.1043930E+01  0.7957747E-01            NaN
         13   -1    0    0    0    0  0.00000000000E+00  0.00000000000E+00  0.74505805969E-08  0.10566000000E+00  0.10566000000E+00 0. -1.
     999900   -1    0    0    0    0 -0.00000000000E+00 -0.00000000000E+00 -0.74505805969E-08  0.93827000000E+00  0.93827000000E+00 0.  1.
     999902    2    1    2    0    0 -0.27765811193E-02 -0.11073821501E-01 -0.23866051064E-01  0.10174738605E+01  0.10171298489E+01 0.  0.
     999903    2    3    3    0    0  0.14876656913E+00 -0.72198791032E-01 -0.49020239112E-02  0.16642378990E+00  0.18129823227E-01 0.  0.
         14    1    1    2    0    0  0.27765811193E-02  0.11073821501E-01  0.23866051064E-01  0.26456139528E-01  0.00000000000E+00 0. -1.
     999901    1    3    3    0    0 -0.15154315025E+00  0.61124969531E-01 -0.18964027153E-01  0.85105007057E+00  0.83500000000E+00 0. -1.
        -11    1    4    4    0    0  0.76498551368E-01 -0.39515294178E-01 -0.11337993869E-01  0.86846404999E-01  0.51100000000E-03 0.  1.
         11    1    4    4    0    0  0.72268017762E-01 -0.32683496854E-01  0.64359699578E-02  0.79577384904E-01  0.51100000000E-03 0. -1.
</event>
<event>
 8    1  0.5616615E+005  0.1043930E+01  0.7957747E-01            NaN
         13   -1    0    0    0    0  0.00000000000E+00  0.00000000000E+00  0.74505805969E-08  0.10566000000E+00  0.10566000000E+00 0.  1.
     999900   -1    0    0    0    0 -0.00000000000E+00 -0.00000000000E+00 -0.74505805969E-08  0.93827000000E+00  0.93827000000E+00 0.  1.
     999902    2    1    2    0    0  0.13787374485E-01 -0.60145526025E-02 -0.19287415391E-01  0.10194704225E+01  0.10191769579E+01 0.  0.
     999903    2    3    3    0    0 -0.10221627965E+00 -0.93072479170E-01 -0.93570631102E-01  0.16871844545E+00  0.24490745702E-01 0.  0.
         14    1    1    2    0    0 -0.13787374485E-01  0.60145526025E-02  0.19287415391E-01  0.24459577483E-01  0.00000000000E+00 0. -1.
     999901    1    3    3    0    0  0.11600365413E+00  0.87057926567E-01  0.74283215711E-01  0.85075197707E+00  0.83500000000E+00 0.  1.
        -11    1    4    4    0    0 -0.30041582451E-01 -0.31495012018E-01 -0.16741017133E-01  0.46636415320E-01  0.51100000000E-03 0.  1.
         11    1    4    4    0    0 -0.72174697198E-01 -0.61577467152E-01 -0.76829613969E-01  0.12208203013E+00  0.51100000000E-03 0. -1.
</event>
<event>
 8    1  0.5616615E+005  0.1043930E+01  0.7957747E-01            NaN
         13   -1    0    0    0    0  0.00000000000E+00  0.00000000000E+00  0.74505805969E-08  0.10566000000E+00  0.10566000000E+00 0.  1.
     999900   -1    0    0    0    0 -0.00000000000E+00 -0.00000000000E+00 -0.74505805969E-08  0.93827000000E+00  0.93827000000E+00 0.  1.
     999902    2    1    2    0    0  0.88918179663E-02  0.56144066779E-02  0.20997980587E-01  0.10204459378E+01  0.10201756764E+01 0.  0.
     999903    2    3    3    0    0 -0.10265799740E-02 -0.12498802220E+00  0.11375335283E+00  0.17016132184E+00  0.19798752728E-01 0.  0.
         14    1    1    2    0    0 -0.88918179663E-02 -0.56144066779E-02 -0.20997980587E-01  0.23484062209E-01  0.00000000000E+00 0. -1.
     999901    1    3    3    0    0  0.99183979403E-02  0.13060242888E+00 -0.92755372244E-01  0.85028461595E+00  0.83500000000E+00 0. -1.
        -11    1    4    4    0    0 -0.61563696835E-02 -0.27600573776E-01  0.18232671507E-01  0.33650913683E-01  0.51100000000E-03 0.  1.
         11    1    4    4    0    0  0.51297897096E-02 -0.97387448423E-01  0.95520681324E-01  0.13651040815E+00  0.51100000000E-03 0. -1.
</event>
<event>
 8    1  0.5616615E+005  0.1043930E+01  0.7957747E-01            NaN
         13   -1    0    0    0    0  0.00000000000E+00  0.00000000000E+00  0.74505805969E-08  0.10566000000E+00  0.10566000000E+00 0. -1.
     999900   -1    0    0    0    0 -0.00000000000E+00 -0.00000000000E+00 -0.74505805969E-08  0.93827000000E+00  0.93827000000E+00 0.  1.
     999902    2    1    2    0    0 -0.13892498555E-01 -0.10692191508E-02 -0.18925573495E-01  0.10204284665E+01  0.10201577981E+01 0.  0.
     999903    2    3    3    0    0  0.13528123861E+00  0.90138348276E-01 -0.33339541828E-01  0.16719673553E+00  0.20427627699E-01 0.  0.
         14    1    1    2    0    0  0.13892498555E-01  0.10692191508E-02  0.18925573495E-01  0.23501533520E-01  0.00000000000E+00 0. -1.
     999901    1    3    3    0    0 -0.14917373716E+00 -0.91207567427E-01  0.14413968333E-01  0.85323173095E+00  0.83500000000E+00 0.  1.
        -11    1    4    4    0    0  0.14595701442E-01  0.18186576966E-01 -0.52814204351E-02  0.23915279742E-01  0.51100000000E-03 0.  1.
         11    1    4    4    0    0  0.12068553717E+00  0.71951771310E-01 -0.28058121393E-01  0.14328145579E+00  0.51100000000E-03 0. -1.
</event>
<event>
 8    1  0.5616615E+005  0.1043930E+01  0.7957747E-01            NaN
         13   -1    0    0    0    0  0.00000000000E+00  0.00000000000E+00  0.74505805969E-08  0.10566000000E+00  0.10566000000E+00 0.  1.
     999900   -1    0    0    0    0 -0.00000000000E+00 -0.00000000000E+00 -0.74505805969E-08  0.93827000000E+00  0.93827000000E+00 0. -1.
     999902    2    1    2    0    0 -0.13138545273E-01  0.10686094197E-01 -0.21859497289E-01  0.10162776655E+01  0.10159013937E+01 0.  0.
     999903    2    3    3    0    0  0.12708431291E+00  0.22491912381E-01  0.94903767268E-01  0.16149085744E+00  0.20402531305E-01 0.  0.
         14    1    1    2    0    0  0.13138545273E-01 -0.10686094197E-01  0.21859497289E-01  0.27652334491E-01  0.00000000000E+00 0.  1.
     999901    1    3    3    0    0 -0.14022285819E+00 -0.11805818184E-01 -0.11676326456E+00  0.85478680807E+00  0.83500000000E+00 0. -1.
        -11    1    4    4    0    0  0.17875676832E-01 -0.29051079368E-02  0.89256840145E-02  0.20196743065E-01  0.51100000000E-03 0. -1.
         11    1    4    4    0    0  0.10920863608E+00  0.25397020318E-01  0.85978083253E-01  0.14129411437E+00  0.51100000000E-03 0.  1.
</event>
<event>
 8    1  0.5616615E+005  0.1043930E+01  0.7957747E-01            NaN
         13   -1    0    0    0    0  0.00000000000E+00  0.00000000000E+00  0.74505805969E-08  0.10566000000E+00  0.10566000000E+00 0. -1.
     999900   -1    0    0    0    0 -0.00000000000E+00 -0.00000000000E+00 -0.74505805969E-08  0.93827000000E+00  0.93827000000E+00 0. -1.
     999902    2    1    2    0    0 -0.13276118819E-01  0.15782121512E-01 -0.11710656669E-01  0.10202135464E+01  0.10199378462E+01 0.  0.
     999903    2    3    3    0    0 -0.15547402035E+00  0.36880229416E-01 -0.59146396327E-01  0.17160260922E+00  0.20416585576E-01 0.  0.
         14    1    1    2    0    0  0.13276118819E-01 -0.15782121512E-01  0.11710656669E-01  0.23716453570E-01  0.00000000000E+00 0. -1.
     999901    1    3    3    0    0  0.14219790153E+00 -0.21098107904E-01  0.47435739657E-01  0.84861093721E+00  0.83500000000E+00 0.  1.
        -11    1    4    4    0    0 -0.86341339166E-01  0.19116653940E-01 -0.43386028149E-01  0.98503207391E-01  0.51100000000E-03 0. -1.
         11    1    4    4    0    0 -0.69132681185E-01  0.17763575476E-01 -0.15760368178E-01  0.73099401828E-01  0.51100000000E-03 0.  1.
</event>
<event>
 8    1  0.5616615E+005  0.1043930E+01  0.7957747E-01            NaN
         13   -1    0    0    0    0  0.00000000000E+00  0.00000000000E+00  0.74505805969E-08  0.10566000000E+00  0.10566000000E+00 0. -1.
     999900   -1    0    0    0    0 -0.00000000000E+00 -0.00000000000E+00 -0.74505805969E-08  0.93827000000E+00  0.93827000000E+00 0. -1.
     999902    2    1    2    0    0  0.81448683127E-02  0.13664517564E-01  0.18553452947E-01  0.10194905128E+01  0.10191975358E+01 0.  0.
     999903    2    3    3    0    0 -0.12567069039E+00 -0.56746259537E-01  0.93113435847E-01  0.16764048351E+00  0.20492910552E-01 0.  0.
         14    1    1    2    0    0 -0.81448683127E-02 -0.13664517564E-01 -0.18553452947E-01  0.24439487236E-01  0.00000000000E+00 0.  1.
     999901    1    3    3    0    0  0.13381555870E+00  0.70410777101E-01 -0.74559982899E-01  0.85185002925E+00  0.83500000000E+00 0. -1.
        -11    1    4    4    0    0 -0.82508918501E-01 -0.30910311265E-01  0.49510616985E-01  0.10106795382E+00  0.51100000000E-03 0. -1.
         11    1    4    4    0    0 -0.43161771890E-01 -0.25835948272E-01  0.43602818862E-01  0.66572529692E-01  0.51100000000E-03 0.  1.
</event>
<event>
 8    1  0.5616615E+005  0.1043930E+01  0.7957747E-01            NaN
         13   -1    0    0    0    0  0.00000000000E+00  0.00000000000E+00  0.74505805969E-08  0.10566000000E+00  0.10566000000E+00 0.  1.
     999900   -1    0    0    0    0 -0.00000000000E+00 -0.00000000000E+00 -0.74505805969E-08  0.93827000000E+00  0.93827000000E+00 0. -1.
     999902    2    1    2    0    0  0.21144126933E-01 -0.99020269259E-02 -0.65019376752E-02  0.10196936753E+01  0.10194056072E+01 0.  0.
     999903    2    3    3    0    0  0.62374174700E-01  0.59467440050E-01 -0.14463714884E+00  0.16950641573E+00  0.19636854480E-01 0.  0.
         14    1    1    2    0    0 -0.21144126933E-01  0.99020269259E-02  0.65019376752E-02  0.24236324691E-01  0.00000000000E+00 0. -1.
     999901    1    3    3    0    0 -0.41230047768E-01 -0.69369466976E-01  0.13813521116E+00  0.85018725958E+00  0.83500000000E+00 0.  1.
        -11    1    4    4    0    0  0.11398073385E-01  0.21300865902E-01 -0.31804364205E-01  0.39942729858E-01  0.51100000000E-03 0. -1.
         11    1    4    4    0    0  0.50976101315E-01  0.38166574148E-01 -0.11283278463E+00  0.12956368587E+00  0.51100000000E-03 0.  1.
</event>
<event>
 8    1  0.5616615E+005  0.1043930E+01  0.7957747E-01            NaN
         13   -1    0    0    0    0  0.00000000000E+00  0.00000000000E+00  0.74505805969E-08  0.10566000000E+00  0.10566000000E+00 0.  1.
     999900   -1    0    0    0    0 -0.00000000000E+00 -0.00000000000E+00 -0.74505805969E-08  0.93827000000E+00  0.93827000000E+00 0.  1.
     999902    2    1    2    0    0 -0.21171549872E-01 -0.13175297124E-01 -0.31068361688E-03  0.10189916861E+01  0.10186864762E+01 0.  0.
     999903    2    3    3    0    0 -0.50414915838E-01 -0.47075896084E-01  0.15287240016E+00  0.16887729244E+00  0.19793065521E-01 0.  0.
         14    1    1    2    0    0  0.21171549872E-01  0.13175297124E-01  0.31068361688E-03  0.24938313949E-01  0.00000000000E+00 0.  1.
     999901    1    3    3    0    0  0.29243365966E-01  0.33900598960E-01 -0.15318308377E+00  0.85011439361E+00  0.83500000000E+00 0.  1.
        -11    1    4    4    0    0 -0.26013355610E-01 -0.26320535310E-01  0.58592537850E-01  0.69302322196E-01  0.51100000000E-03 0. -1.
         11    1    4    4    0    0 -0.24401560229E-01 -0.20755360774E-01  0.94279862306E-01  0.99574970248E-01  0.51100000000E-03 0.  1.
</event>
<event>
 8    1  0.5616615E+005  0.1043930E+01  0.7957747E-01            NaN
         13   -1    0    0    0    0  0.00000000000E+00  0.00000000000E+00  0.74505805969E-08  0.10566000000E+00  0.10566000000E+00 0.  1.
     999900   -1    0    0    0    0 -0.00000000000E+00 -0.00000000000E+00 -0.74505805969E-08  0.93827000000E+00  0.93827000000E+00 0. -1.
     999902    2    1    2    0    0 -0.15170167085E-01  0.85761303041E-02 -0.15913148774E-01  0.10203310109E+01  0.10200580668E+01 0.  0.
     999903    2    3    3    0    0 -0.50133955082E-01 -0.11767685779E+00  0.10398250206E+00  0.16665528178E+00  0.24502365190E-01 0.  0.
         14    1    1    2    0    0  0.15170167085E-01 -0.85761303041E-02  0.15913148774E-01  0.23598989052E-01  0.00000000000E+00 0.  1.
     999901    1    3    3    0    0  0.34963787997E-01  0.12625298809E+00 -0.11989565084E+00  0.85367572916E+00  0.83500000000E+00 0. -1.
        -11    1    4    4    0    0 -0.42042087896E-01 -0.99767767247E-01  0.75278461878E-01  0.13186452320E+00  0.51100000000E-03 0. -1.
         11    1    4    4    0    0 -0.80918671865E-02 -0.17909090541E-01  0.28704040186E-01  0.34790758580E-01  0.51100000000E-03 0.  1.
</event>
<event>
 8    1  0.5616615E+005  0.1043930E+01  0.7957747E-01            NaN
         13   -1    0    0    0    0  0.00000000000E+00  0.00000000000E+00  0.74505805969E-08  0.10566000000E+00  0.10566000000E+00 0. -1.
     999900   -1    0    0    0    0 -0.00000000000E+00 -0.00000000000E+00 -0.74505805969E-08  0.93827000000E+00  0.93827000000E+00 0. -1.
     999902    2    1    2    0    0  0.82353116544E-02  0.90180994241E-02 -0.22539464187E-01  0.10182945963E+01  0.10179718616E+01 0.  0.
     999903    2    3    3    0    0 -0.14391822869E+00  0.65313706633E-01  0.43638134047E-01  0.16510975719E+00  0.19457860999E-01 0.  0.
         14    1    1    2    0    0 -0.82353116544E-02 -0.90180994241E-02  0.22539464187E-01  0.25635403665E-01  0.00000000000E+00 0. -1.
     999901    1    3    3    0    0  0.15215354034E+00 -0.56295607209E-01 -0.66177598234E-01  0.85318483914E+00  0.83500000000E+00 0.  1.
        -11    1    4    4    0    0 -0.51807624349E-01  0.30625155723E-01  0.23702924900E-01  0.64684000136E-01  0.51100000000E-03 0.  1.
         11    1    4    4    0    0 -0.92110604340E-01  0.34688550910E-01  0.19935209147E-01  0.10042575706E+00  0.51100000000E-03 0. -1.
</event>
<event>
 8    1  0.5616615E+005  0.1043930E+01  0.7957747E-01            NaN
         13   -1    0    0    0    0  0.00000000000E+00  0.00000000000E+00  0.74505805969E-08  0.10566000000E+00  0.10566000000E+00 0.  1.
     999900   -1    0    0    0    0 -0.00000000000E+00 -0.00000000000E+00 -0.74505805969E-08  0.93827000000E+00  0.93827000000E+00 0.  1.
     999902    2    1    2    0    0 -0.63303678206E-03  0.16362719374E-01 -0.17179059848E-01  0.10201969130E+01  0.10199208214E+01 0.  0.
     999903    2    3    3    0    0  0.22239367731E-01  0.97607672994E-01  0.13294879341E+00  0.16762007676E+00  0.19981520474E-01 0.  0.
         14    1    1    2    0    0  0.63303678206E-03 -0.16362719374E-01  0.17179059848E-01  0.23733086992E-01  0.00000000000E+00 0.  1.
     999901    1    3    3    0    0 -0.22872404513E-01 -0.81244953620E-01 -0.15012785326E+00  0.85257683624E+00  0.83500000000E+00 0.  1.
        -11    1    4    4    0    0  0.16464368474E-01  0.29973860062E-01  0.44656718859E-01  0.56249367788E-01  0.51100000000E-03 0.  1.
         11    1    4    4    0    0  0.57749992569E-02  0.67633812931E-01  0.88292074552E-01  0.11137070898E+00  0.51100000000E-03 0. -1.
</event>
<event>
 8    1  0.5616615E+005  0.1043930E+01  0.7957747E-01            NaN
         13   -1    0    0    0    0  0.00000000000E+00  0.00000000000E+00  0.74505805969E-08  0.10566000000E+00  0.10566000000E+00 0. -1.
     999900   -1    0    0    0    0 -0.00000000000E+00 -0.00000000000E+00 -0.74505805969E-08  0.93827000000E+00  0.93827000000E+00 0. -1.
     999902    2    1    2    0    0 -0.23307078036E-02 -0.22093439450E-01 -0.79625842593E-02  0.10203301056E+01  0.10200571403E+01 0.  0.
     999903    2    3    3    0    0  0.15385137099E+00  0.59844858026E-01  0.11806807045E-01  0.16667762649E+00  0.19758013370E-01 0.  0.
         14    1    1    2    0    0  0.23307078036E-02  0.22093439450E-01  0.79625842593E-02  0.23599894357E-01  0.00000000000E+00 0.  1.
     999901    1    3    3    0    0 -0.15618207879E+00 -0.81938297476E-01 -0.19769391305E-01  0.85365247915E+00  0.83500000000E+00 0. -1.
        -11    1    4    4    0    0  0.11081065938E+00  0.39328525527E-01  0.16617441119E-01  0.11875241312E+00  0.51100000000E-03 0.  1.
         11    1    4    4    0    0  0.43040711614E-01  0.20516332499E-01 -0.48106340736E-02  0.47925213371E-01  0.51100000000E-03 0. -1.
</event>
<event>
 8    1  0.5616615E+005  0.1043930E+01  0.7957747E-01            NaN
         13   -1    0    0    0    0  0.00000000000E+00  0.00000000000E+00  0.74505805969E-08  0.10566000000E+00  0.10566000000E+00 0.  1.
     999900   -1    0    0    0    0 -0.00000000000E+00 -0.00000000000E+00 -0.74505805969E-08  0.93827000000E+00  0.93827000000E+00 0. -1.
     999902    2    1    2    0    0 -0.17661614296E-01 -0.10801309459E-01 -0.14226628346E-01  0.10188103292E+01  0.10185006083E+01 0.  0.
     999903    2    3    3    0    0  0.62788365451E-01 -0.15005650931E+00 -0.37603730812E-01  0.16814253341E+00  0.19963370157E-01 0.  0.
         14    1    1    2    0    0  0.17661614296E-01  0.10801309459E-01  0.14226628346E-01  0.25119670771E-01  0.00000000000E+00 0.  1.
     999901    1    3    3    0    0 -0.80449979747E-01  0.13925519985E+00  0.23377102466E-01  0.85066779582E+00  0.83500000000E+00 0. -1.
        -11    1    4    4    0    0  0.53210757647E-01 -0.11922033198E+00 -0.37547964527E-01  0.13584911869E+00  0.51100000000E-03 0.  1.
         11    1    4    4    0    0  0.95776078038E-02 -0.30836177330E-01 -0.55766284937E-04  0.32293414723E-01  0.51100000000E-03 0. -1.
</event>
<event>
 8    1  0.5616615E+005  0.1043930E+01  0.7957747E-01            NaN
         13   -1    0    0    0    0  0.00000000000E+00  0.00000000000E+00  0.74505805969E-08  0.10566000000E+00  0.10566000000E+00 0. -1.
     999900   -1    0    0    0    0 -0.00000000000E+00 -0.00000000000E+00 -0.74505805969E-08  0.93827000000E+00  0.93827000000E+00 0. -1.
     999902    2    1    2    0    0  0.77464686811E-02 -0.12677433960E-01  0.18279595142E-01  0.10203743487E+01  0.10201024178E+01 0.  0.
     999903    2    3    3    0    0  0.12982129167E+00 -0.10567217704E+00 -0.24716408289E-01  0.17030144540E+00  0.19274457048E-01 0.  0.
         14    1    1    2    0    0 -0.77464686811E-02  0.12677433960E-01 -0.18279595142E-01  0.23555651284E-01  0.00000000000E+00 0.  1.
     999901    1    3    3    0    0 -0.12207482299E+00  0.92994743076E-01  0.42996003431E-01  0.85007290332E+00  0.83500000000E+00 0. -1.
        -11    1    4    4    0    0  0.37073417148E-01 -0.25601017195E-01  0.11442385037E-02  0.45071285129E-01  0.51100000000E-03 0.  1.
         11    1    4    4    0    0  0.92747874524E-01 -0.80071159841E-01 -0.25860646793E-01  0.12523016027E+00  0.51100000000E-03 0. -1.
</event>
<event>
 8    1  0.5616615E+005  0.1043930E+01  0.7957747E-01            NaN
         13   -1    0    0    0    0  0.00000000000E+00  0.00000000000E+00  0.74505805969E-08  0.10566000000E+00  0.10566000000E+00 0.  1.
     999900   -1    0    0    0    0 -0.00000000000E+00 -0.00000000000E+00 -0.74505805969E-08  0.93827000000E+00  0.93827000000E+00 0.  1.
     999902    2    1    2    0    0  0.20304565135E-01  0.90260755700E-02 -0.83192191458E-02  0.10202033312E+01  0.10199273906E+01 0.  0.
     999903    2    3    3    0    0  0.79514783750E-01  0.12852547222E+00 -0.78898651928E-01  0.17167966498E+00  0.20186932580E-01 0.  0.
         14    1    1    2    0    0 -0.20304565135E-01 -0.90260755700E-02  0.83192191458E-02  0.23726668808E-01  0.00000000000E+00 0. -1.
     999901    1    3    3    0    0 -0.59210218614E-01 -0.11949939665E+00  0.70579432782E-01  0.84852366621E+00  0.83500000000E+00 0. -1.
        -11    1    4    4    0    0  0.16474334317E-01  0.41613686594E-01 -0.17999788847E-01  0.48242679472E-01  0.51100000000E-03 0. -1.
         11    1    4    4    0    0  0.63040449433E-01  0.86911785629E-01 -0.60898863081E-01  0.12343698551E+00  0.51100000000E-03 0.  1.
</event>
<event>
 8    1  0.5616615E+005  0.1043930E+01  0.7957747E-01            NaN
         13   -1    0    0    0    0  0.00000000000E+00  0.00000000000E+00  0.74505805969E-08  0.10566000000E+00  0.10566000000E+00 0. -1.
     999900   -1    0    0    0    0 -0.00000000000E+00 -0.00000000000E+00 -0.74505805969E-08  0.93827000000E+00  0.93827000000E+00 0. -1.
     999902    2    1    2    0    0 -0.91341531913E-02 -0.34891597099E-01  0.17063910130E-02  0.10078222713E+01  0.10071752392E+01 0.  0.
     999903    2    3    3    0    0  0.17041513197E-01  0.75071427960E-01  0.13330410177E+00  0.15499169616E+00  0.18064048890E-01 0.  0.
         14    1    1    2    0    0  0.91341531913E-02  0.34891597099E-01 -0.17063910130E-02  0.36107728715E-01  0.00000000000E+00 0.  1.
     999901    1    3    3    0    0 -0.26175666389E-01 -0.10996302506E+00 -0.13159771076E+00  0.85283057512E+00  0.83500000000E+00 0. -1.
        -11    1    4    4    0    0  0.69203675724E-02  0.37491533881E-01  0.83411112497E-01  0.91712493201E-01  0.51100000000E-03 0. -1.
         11    1    4    4    0    0  0.10121145625E-01  0.37579894079E-01  0.49892989272E-01  0.63279202960E-01  0.51100000000E-03 0.  1.
</event>
<event>
 8    1  0.5616615E+005  0.1043930E+01  0.7957747E-01            NaN
         13   -1    0    0    0    0  0.00000000000E+00  0.00000000000E+00  0.74505805969E-08  0.10566000000E+00  0.10566000000E+00 0.  1.
     999900   -1    0    0    0    0 -0.00000000000E+00 -0.00000000000E+00 -0.74505805969E-08  0.93827000000E+00  0.93827000000E+00 0.  1.
     999902    2    1    2    0    0 -0.10860865911E-01  0.16969920259E-01 -0.11658987877E-01  0.10206519288E+01  0.10203864420E+01 0.  0.
     999903    2    3    3    0    0  0.11341917571E+00  0.93772277313E-01 -0.82533269234E-01  0.17000964523E+00  0.20842013543E-01 0.  0.
         14    1    1    2    0    0  0.10860865911E-01 -0.16969920259E-01  0.11658987877E-01  0.23278071231E-01  0.00000000000E+00 0.  1.
     999901    1    3    3    0    0 -0.12428004162E+00 -0.76802357054E-01  0.70874281357E-01  0.85064228354E+00  0.83500000000E+00 0.  1.
        -11    1    4    4    0    0  0.18386016904E-01  0.68842776642E-02 -0.78367477432E-02  0.21145085309E-01  0.51100000000E-03 0.  1.
         11    1    4    4    0    0  0.95033158805E-01  0.86887999648E-01 -0.74696521491E-01  0.14886455992E+00  0.51100000000E-03 0. -1.
</event>
<event>
 8    1  0.5616615E+005  0.1043930E+01  0.7957747E-01            NaN
         13   -1    0    0    0    0  0.00000000000E+00  0.00000000000E+00  0.74505805969E-08  0.10566000000E+00  0.10566000000E+00 0.  1.
     999900   -1    0    0    0    0 -0.00000000000E+00 -0.00000000000E+00 -0.74505805969E-08  0.93827000000E+00  0.93827000000E+00 0. -1.
     999902    2    1    2    0    0 -0.22628869736E-01 -0.30073996619E-02  0.70176679664E-02  0.10200478338E+01  0.10197682214E+01 0.  0.
     999903    2    3    3    0    0 -0.15479863510E+00  0.70826765665E-01 -0.22679666732E-02  0.17138326294E+00  0.19698501917E-01 0.  0.
         14    1    1    2    0    0  0.22628869736E-01  0.30073996619E-02 -0.70176679664E-02  0.23882166191E-01  0.00000000000E+00 0.  1.
     999901    1    3    3    0    0  0.13216976536E+00 -0.73834165327E-01  0.92856346397E-02  0.84866457087E+00  0.83500000000E+00 0.  1.
        -11    1    4    4    0    0 -0.55193803266E-01  0.15645306381E-01 -0.38816971494E-02  0.57501828010E-01  0.51100000000E-03 0. -1.
         11    1    4    4    0    0 -0.99604831835E-01  0.55181459284E-01  0.16137304762E-02  0.11388143493E+00  0.51100000000E-03 0.  1.
</event>
<event>
 8    1  0.5616615E+005  0.1043930E+01  0.7957747E-01            NaN
         13   -1    0    0    0    0  0.00000000000E+00  0.00000000000E+00  0.74505805969E-08  0.10566000000E+00  0.10566000000E+00 0.  1.
     999900   -1    0    0    0    0 -0.00000000000E+00 -0.00000000000E+00 -0.74505805969E-08  0.93827000000E+00  0.93827000000E+00 0. -1.
     999902    2    1    2    0    0  0.13060679177E-01 -0.18870385823E-01 -0.66704039357E-02  0.10200308977E+01  0.10197508839E+01 0.  0.
     999903    2    3    3    0    0 -0.68492534925E-01 -0.13892429622E+00 -0.67686311062E-01  0.17031811738E+00  0.20871918517E-01 0.  0.
         14    1    1    2    0    0 -0.13060679177E-01  0.18870385823E-01  0.66704039357E-02  0.23899102292E-01  0.00000000000E+00 0. -1.
     999901    1    3    3    0    0  0.81553214101E-01  0.12005391039E+00  0.61015907127E-01  0.84971278033E+00  0.83500000000E+00 0.  1.
        -11    1    4    4    0    0 -0.37486602902E-01 -0.66274326144E-01 -0.43568356117E-01  0.87726817329E-01  0.51100000000E-03 0.  1.
         11    1    4    4    0    0 -0.31005932022E-01 -0.72649970074E-01 -0.24117954946E-01  0.82591300051E-01  0.51100000000E-03 0. -1.
</event>
<event>
 8    1  0.5616615E+005  0.1043930E+01  0.7957747E-01            NaN
         13   -1    0    0    0    0  0.00000000000E+00  0.00000000000E+00  0.74505805969E-08  0.10566000000E+00  0.10566000000E+00 0.  1.
     999900   -1    0    0    0    0 -0.00000000000E+00 -0.00000000000E+00 -0.74505805969E-08  0.93827000000E+00  0.93827000000E+00 0.  1.
     999902    2    1    2    0    0 -0.64329180408E-03  0.16650278800E-01 -0.11758013374E-01  0.10235364597E+01  0.10233332731E+01 0.  0.
     999903    2    3    3    0    0  0.13413450855E+00  0.10130743114E+00 -0.36390554327E-01  0.17314616635E+00  0.20001512170E-01 0.  0.
         14    1    1    2    0    0  0.64329180408E-03 -0.16650278800E-01  0.11758013374E-01  0.20393540325E-01  0.00000000000E+00 0.  1.
     999901    1    3    3    0    0 -0.13477780035E+00 -0.84657152340E-01  0.24632540953E-01  0.85039029333E+00  0.83500000000E+00 0. -1.
        -11    1    4    4    0    0  0.63688905844E-01  0.60486908350E-01 -0.20309334894E-01  0.90153607882E-01  0.51100000000E-03 0.  1.
         11    1    4    4    0    0  0.70445602705E-01  0.40820522791E-01 -0.16081219433E-01  0.82992558467E-01  0.51100000000E-03 0. -1.
</event>
<event>
 8    1  0.5616615E+005  0.1043930E+01  0.7957747E-01            NaN
         13   -1    0    0    0    0  0.00000000000E+00  0.00000000000E+00  0.74505805969E-08  0.10566000000E+00  0.10566000000E+00 0. -1.
     999900   -1    0    0    0    0 -0.00000000000E+00 -0.00000000000E+00 -0.74505805969E-08  0.93827000000E+00  0.93827000000E+00 0. -1.
     999902    2    1    2    0    0 -0.87566790284E-02 -0.18806705562E-03 -0.21174815081E-01  0.10210152102E+01  0.10207580379E+01 0.  0.
     999903    2    3    3    0    0  0.13046171059E+00  0.11486111223E-01 -0.10698262506E+00  0.17007101305E+00  0.18074256148E-01 0.  0.
         14    1    1    2    0    0  0.87566790284E-02  0.18806705562E-03  0.21174815081E-01  0.22914789777E-01  0.00000000000E+00 0.  1.
     999901    1    3    3    0    0 -0.13921838961E+00 -0.11674178279E-01  0.85807809981E-01  0.85094419717E+00  0.83500000000E+00 0.  1.
        -11    1    4    4    0    0  0.93437989243E-01  0.65058503093E-02 -0.65806247152E-01  0.11447142529E+00  0.51100000000E-03 0. -1.
         11    1    4    4    0    0  0.37023721344E-01  0.49802609142E-02 -0.41176377909E-01  0.55599587765E-01  0.51100000000E-03 0.  1.
</event>
<event>
 7    1  0.5616615E+005  0.1043930E+01  0.7957747E-01            NaN
         13   -1    0    0    0    0  0.00000000000E+00  0.00000000000E+00  0.74505805969E-08  0.10566000000E+00  0.10566000000E+00 0. -1.
     999900   -1    0    0    0    0 -0.00000000000E+00 -0.00000000000E+00 -0.74505805969E-08  0.93827000000E+00  0.93827000000E+00 0.  1.
     999902    2    1    2    0    0  0.14570497983E-01 -0.89882802848E-02  0.15263066028E-01  0.10209942249E+01  0.10207365760E+01 0.  0.
         14    1    1    2    0    0 -0.14570497983E-01  0.89882802848E-02 -0.15263066028E-01  0.22935775080E-01  0.00000000000E+00 0.  1.
     999901    1    3    3    0    0 -0.84790138710E-01 -0.62077596351E-01  0.10577117366E+00  0.84820724871E+00  0.83500000000E+00 0. -1.
        -11    1    3    3    0    0  0.39459206943E-01 -0.18797892824E-01 -0.60261695411E-01  0.74445435333E-01  0.51100000000E-03 0.  1.
         11    1    3    3    0    0  0.59901429750E-01  0.71887208891E-01 -0.30246412222E-01  0.98341540874E-01  0.51100000000E-03 0. -1.
</event>
<event>
 8    1  0.5616615E+005  0.1043930E+01  0.7957747E-01            NaN
         13   -1    0    0    0    0  0.00000000000E+00  0.00000000000E+00  0.74505805969E-08  0.10566000000E+00  0.10566000000E+00 0.  1.
     999900   -1    0    0    0    0 -0.00000000000E+00 -0.00000000000E+00 -0.74505805969E-08  0.93827000000E+00  0.93827000000E+00 0.  1.
     999902    2    1    2    0    0 -0.65116619900E-02  0.15559792244E-01  0.17332712527E-01  0.10197446367E+01  0.10194577932E+01 0.  0.
     999903    2    3    3    0    0 -0.14439825060E+00 -0.81672421933E-01  0.16402282251E-01  0.16786865948E+00  0.19738609104E-01 0.  0.
         14    1    1    2    0    0  0.65116619900E-02 -0.15559792244E-01 -0.17332712527E-01  0.24185363345E-01  0.00000000000E+00 0. -1.
     999901    1    3    3    0    0  0.13788658861E+00  0.97232214177E-01  0.93043027594E-03  0.85187597718E+00  0.83500000000E+00 0. -1.
        -11    1    4    4    0    0 -0.21305042173E-01 -0.20273142692E-01  0.74745950618E-03  0.29423204335E-01  0.51100000000E-03 0.  1.
         11    1    4    4    0    0 -0.12309320843E+00 -0.61399279241E-01  0.15654822745E-01  0.13844545514E+00  0.51100000000E-03 0. -1.
</event>
<event>
 8    1  0.5616615E+005  0.1043930E+01  0.7957747E-01            NaN
         13   -1    0    0    0    0  0.00000000000E+00  0.00000000000E+00  0.74505805969E-08  0.10566000000E+00  0.10566000000E+00 0.  1.
     999900   -1    0    0    0    0 -0.00000000000E+00 -0.00000000000E+00 -0.74505805969E-08  0.93827000000E+00  0.93827000000E+00 0.  1.
     999902    2    1    2    0    0 -0.11803662363E-01 -0.33822382681E-02  0.20912105156E-01  0.10196795954E+01  0.10193911885E+01 0.  0.
     999903    2    3    3    0    0  0.13945024592E-01  0.98415652102E-01 -0.12989346608E+00  0.16469823556E+00  0.19315588989E-01 0.  0.
         14    1    1    2    0    0  0.11803662363E-01  0.33822382681E-02 -0.20912105156E-01  0.24250404593E-01  0.00000000000E+00 0. -1.
     999901    1    3    3    0    0 -0.25748686955E-01 -0.10179789037E+00  0.15080557124E+00  0.85498135984E+00  0.83500000000E+00 0. -1.
        -11    1    4    4    0    0  0.65109832138E-02  0.78121738251E-01 -0.11157474735E+00  0.13636196044E+00  0.51100000000E-03 0.  1.
         11    1    4    4    0    0  0.74340413784E-02  0.20293913851E-01 -0.18318718733E-01  0.28336275119E-01  0.51100000000E-03 0. -1.
</event>
<event>
 8    1  0.5616615E+005  0.1043930E+01  0.7957747E-01            NaN
         13   -1    0    0    0    0  0.00000000000E+00  0.00000000000E+00  0.74505805969E-08  0.10566000000E+00  0.10566000000E+00 0.  1.
     999900   -1    0    0    0    0 -0.00000000000E+00 -0.00000000000E+00 -0.74505805969E-08  0.93827000000E+00  0.93827000000E+00 0.  1.
     999902    2    1    2    0    0 -0.16311178722E-01  0.15500561890E-01  0.71413065904E-02  0.10203223692E+01  0.10200492228E+01 0.  0.
     999903    2    3    3    0    0  0.14150552496E+00  0.15409199366E-01 -0.82633214246E-01  0.16581047061E+00  0.20089973878E-01 0.  0.
         14    1    1    2    0    0  0.16311178722E-01 -0.15500561890E-01 -0.71413065904E-02  0.23607630758E-01  0.00000000000E+00 0. -1.
     999901    1    3    3    0    0 -0.15781670368E+00  0.91362523543E-04  0.89774520836E-01  0.85451189863E+00  0.83500000000E+00 0. -1.
        -11    1    4    4    0    0  0.36065617164E-01 -0.13770753648E-02 -0.13116179078E-01  0.38404691804E-01  0.51100000000E-03 0. -1.
         11    1    4    4    0    0  0.10543990779E+00  0.16786274731E-01 -0.69517035168E-01  0.12740577881E+00  0.51100000000E-03 0.  1.
</event>
<event>
 8    1  0.5616615E+005  0.1043930E+01  0.7957747E-01            NaN
         13   -1    0    0    0    0  0.00000000000E+00  0.00000000000E+00  0.74505805969E-08  0.10566000000E+00  0.10566000000E+00 0.  1.
     999900   -1    0    0    0    0 -0.00000000000E+00 -0.00000000000E+00 -0.74505805969E-08  0.93827000000E+00  0.93827000000E+00 0.  1.
     999902    2    1    2    0    0 -0.63572955209E-02 -0.14513714557E-01 -0.16902506128E-01  0.10207619653E+01  0.10204990113E+01 0.  0.
     999903    2    3    3    0    0  0.62577461706E-01 -0.68569449640E-01 -0.14290421941E+00  0.17177700964E+00  0.21633700084E-01 0.  0.
         14    1    1    2    0    0  0.63572955209E-02  0.14513714557E-01  0.16902506128E-01  0.23168034660E-01  0.00000000000E+00 0.  1.
     999901    1    3    3    0    0 -0.68934757227E-01  0.54055735083E-01  0.12600171328E+00  0.84898495570E+00  0.83500000000E+00 0. -1.
        -11    1    4    4    0    0  0.41851963226E-01 -0.35332989490E-01 -0.97304005316E-01  0.11166171029E+00  0.51100000000E-03 0. -1.
         11    1    4    4    0    0  0.20725498480E-01 -0.33236460150E-01 -0.45600214094E-01  0.60115299358E-01  0.51100000000E-03 0.  1.
</event>
<event>
 8    1  0.5616615E+005  0.1043930E+01  0.7957747E-01            NaN
         13   -1    0    0    0    0  0.00000000000E+00  0.00000000000E+00  0.74505805969E-08  0.10566000000E+00  0.10566000000E+00 0.  1.
     999900   -1    0    0    0    0 -0.00000000000E+00 -0.00000000000E+00 -0.74505805969E-08  0.93827000000E+00  0.93827000000E+00 0. -1.
     999902    2    1    2    0    0  0.10206082730E-01  0.66589893671E-02 -0.19737638351E-01  0.10207334349E+01  0.10204698254E+01 0.  0.
     999903    2    3    3    0    0  0.15880736878E+00  0.59497808152E-01 -0.13939942237E-02  0.17077121678E+00  0.20027373925E-01 0.  0.
         14    1    1    2    0    0 -0.10206082730E-01 -0.66589893671E-02  0.19737638351E-01  0.23196565085E-01  0.00000000000E+00 0.  1.
     999901    1    3    3    0    0 -0.14860128605E+00 -0.52838818785E-01 -0.18343644127E-01  0.84996221814E+00  0.83500000000E+00 0. -1.
        -11    1    4    4    0    0  0.29854296353E-01  0.19423169461E-01 -0.27577400612E-02  0.35726807497E-01  0.51100000000E-03 0. -1.
         11    1    4    4    0    0  0.12895307242E+00  0.40074638690E-01  0.13637458375E-02  0.13504440928E+00  0.51100000000E-03 0.  1.
</event>
<event>
 8    1  0.5616615E+005  0.1043930E+01  0.7957747E-01            NaN
         13   -1    0    0    0    0  0.00000000000E+00  0.00000000000E+00  0.74505805969E-08  0.10566000000E+00  0.10566000000E+00 0. -1.
     999900   -1    0    0    0    0 -0.00000000000E+00 -0.00000000000E+00 -0.74505805969E-08  0.93827000000E+00  0.93827000000E+00 0. -1.
     999902    2    1    2    0    0 -0.11448359941E-01 -0.18072717551E-01 -0.13631811672E-01  0.10185624153E+01  0.10182464728E+01 0.  0.
     999903    2    3    3    0    0 -0.80814088590E-01  0.94356161973E-01 -0.11076732526E+00  0.16761461120E+00  0.19780175084E-01 0.  0.
         14    1    1    2    0    0  0.11448359941E-01  0.18072717551E-01  0.13631811672E-01  0.25367584719E-01  0.00000000000E+00 0. -1.
     999901    1    3    3    0    0  0.69365728648E-01 -0.11242887952E+00  0.97135513591E-01  0.85094780408E+00  0.83500000000E+00 0.  1.
        -11    1    4    4    0    0 -0.23517735570E-01  0.39620899616E-01 -0.33783351866E-01  0.57135589233E-01  0.51100000000E-03 0.  1.
         11    1    4    4    0    0 -0.57296353019E-01  0.54735262356E-01 -0.76983973397E-01  0.11047902197E+00  0.51100000000E-03 0. -1.
</event>
<event>
 8    1  0.5616615E+005  0.1043930E+01  0.7957747E-01            NaN
         13   -1    0    0    0    0  0.00000000000E+00  0.00000000000E+00  0.74505805969E-08  0.10566000000E+00  0.10566000000E+00 0.  1.
     999900   -1    0    0    0    0 -0.00000000000E+00 -0.00000000000E+00 -0.74505805969E-08  0.93827000000E+00  0.93827000000E+00 0.  1.
     999902    2    1    2    0    0 -0.86185841908E-02 -0.17512490915E-01 -0.13552342018E-01  0.10201679861E+01  0.10198912131E+01 0.  0.
     999903    2    3    3    0    0 -0.12757387219E+00  0.32536600070E-01  0.10119011279E+00  0.16749800127E+00  0.21964022734E-01 0.  0.
         14    1    1    2    0    0  0.86185841908E-02  0.17512490915E-01  0.13552342018E-01  0.23762013923E-01  0.00000000000E+00 0. -1.
     999901    1    3    3    0    0  0.11895528800E+00 -0.50049090985E-01 -0.11474245481E+00  0.85266998480E+00  0.83500000000E+00 0.  1.
        -11    1    4    4    0    0 -0.35771427220E-01  0.15299835441E-01  0.40172495948E-01  0.55926474246E-01  0.51100000000E-03 0.  1.
         11    1    4    4    0    0 -0.91802444969E-01  0.17236764628E-01  0.61017616841E-01  0.11157152703E+00  0.51100000000E-03 0. -1.
</event>
<event>
 8    1  0.5616615E+005  0.1043930E+01  0.7957747E-01            NaN
         13   -1    0    0    0    0  0.00000000000E+00  0.00000000000E+00  0.74505805969E-08  0.10566000000E+00  0.10566000000E+00 0. -1.
     999900   -1    0    0    0    0 -0.00000000000E+00 -0.00000000000E+00 -0.74505805969E-08  0.93827000000E+00  0.93827000000E+00 0. -1.
     999902    2    1    2    0    0  0.16497215277E-01 -0.22678676948E-01 -0.14541707757E-01  0.10123397837E+01  0.10118467749E+01 0.  0.
     999903    2    3    3    0    0  0.13477487157E+00  0.50982862003E-01 -0.74855323255E-01  0.16364763782E+00  0.20339904642E-01 0.  0.
         14    1    1    2    0    0 -0.16497215277E-01  0.22678676948E-01  0.14541707757E-01  0.31590216278E-01  0.00000000000E+00 0. -1.
     999901    1    3    3    0    0 -0.11827765629E+00 -0.73661538951E-01  0.60313615498E-01  0.84869214590E+00  0.83500000000E+00 0.  1.
        -11    1    4    4    0    0  0.33980503072E-01  0.16850310356E-01 -0.29105984247E-01  0.47812414581E-01  0.51100000000E-03 0.  1.
         11    1    4    4    0    0  0.10079436850E+00  0.34132551647E-01 -0.45749339008E-01  0.11583522324E+00  0.51100000000E-03 0. -1.
</event>
<event>
 8    1  0.5616615E+005  0.1043930E+01  0.7957747E-01            NaN
         13   -1    0    0    0    0  0.00000000000E+00  0.00000000000E+00  0.74505805969E-08  0.10566000000E+00  0.10566000000E+00 0. -1.
     999900   -1    0    0    0    0 -0.00000000000E+00 -0.00000000000E+00 -0.74505805969E-08  0.93827000000E+00  0.93827000000E+00 0. -1.
     999902    2    1    2    0    0 -0.62518214305E-03  0.20693538209E-01  0.11562474047E-01  0.10202170461E+01  0.10199414282E+01 0.  0.
     999903    2    3    3    0    0 -0.47264571516E-01 -0.51352087215E-01  0.15264111990E+00  0.16904491951E+00  0.20146879278E-01 0.  0.
         14    1    1    2    0    0  0.62518214305E-03 -0.20693538209E-01 -0.11562474047E-01  0.23712953895E-01  0.00000000000E+00 0.  1.
     999901    1    3    3    0    0  0.46639389373E-01  0.72045625424E-01 -0.14107864585E+00  0.85117212660E+00  0.83500000000E+00 0. -1.
        -11    1    4    4    0    0 -0.15753691846E-01 -0.89368203072E-02  0.56563458384E-01  0.59394709439E-01  0.51100000000E-03 0. -1.
         11    1    4    4    0    0 -0.31510879670E-01 -0.42415266908E-01  0.96077661516E-01  0.10965021007E+00  0.51100000000E-03 0.  1.
</event>
<event>
 8    1  0.5616615E+005  0.1043930E+01  0.7957747E-01            NaN
         13   -1    0    0    0    0  0.00000000000E+00  0.00000000000E+00  0.74505805969E-08  0.10566000000E+00  0.10566000000E+00 0.  1.
     999900   -1    0    0    0    0 -0.00000000000E+00 -0.00000000000E+00 -0.74505805969E-08  0.93827000000E+00  0.93827000000E+00 0. -1.
     999902    2    1    2    0    0  0.15156077984E-01  0.22870185277E-02 -0.19439274054E-01  0.10191747474E+01  0.10188740566E+01 0.  0.
     999903    2    3    3    0    0  0.14858564146E+00 -0.78877504244E-01 -0.72430506724E-02  0.16960728335E+00  0.20367014033E-01 0.  0.
         14    1    1    2    0    0 -0.15156077984E-01 -0.22870185277E-02  0.19439274054E-01  0.24755252561E-01  0.00000000000E+00 0.  1.
     999901    1    3    3    0    0 -0.13342956347E+00  0.81164522771E-01 -0.12196223381E-01  0.84956746408E+00  0.83500000000E+00 0. -1.
        -11    1    4    4    0    0  0.10749487835E+00 -0.46526802690E-01 -0.38154653783E-02  0.11719518393E+00  0.51100000000E-03 0. -1.
         11    1    4    4    0    0  0.41090763107E-01 -0.32350701553E-01 -0.34275852941E-02  0.52412099421E-01  0.51100000000E-03 0.  1.
</event>
<event>
 8    1  0.5616615E+005  0.1043930E+01  0.7957747E-01            NaN
         13   -1    0    0    0    0  0.00000000000E+00  0.00000000000E+00  0.74505805969E-08  0.10566000000E+00  0.10566000000E+00 0.  1.
     999900   -1    0    0    0    0 -0.00000000000E+00 -0.00000000000E+00 -0.74505805969E-08  0.93827000000E+00  0.93827000000E+00 0.  1.
     999902    2    1    2    0    0  0.21459265593E-01  0.11823472727E-01  0.11920550226E-01  0.10166830900E+01  0.10163179185E+01 0.  0.
     999903    2    3    3    0    0  0.46433107302E-01 -0.14764436789E+00  0.54303201334E-01  0.16516974654E+00  0.19424589466E-01 0.  0.
         14    1    1    2    0    0 -0.21459265593E-01 -0.11823472727E-01 -0.11920550226E-01  0.27246910005E-01  0.00000000000E+00 0. -1.
     999901    1    3    3    0    0 -0.24973841709E-01  0.15946784061E+00 -0.42382651108E-01  0.85151334345E+00  0.83500000000E+00 0. -1.
        -11    1    4    4    0    0  0.17947947979E-01 -0.87088746221E-01  0.27455914125E-01  0.93062704111E-01  0.51100000000E-03 0.  1.
         11    1    4    4    0    0  0.28485159323E-01 -0.60555621666E-01  0.26847287209E-01  0.72107042434E-01  0.51100000000E-03 0. -1.
</event>
<event>
 8    1  0.5616615E+005  0.1043930E+01  0.7957747E-01            NaN
         13   -1    0    0    0    0  0.00000000000E+00  0.00000000000E+00  0.74505805969E-08  0.10566000000E+00  0.10566000000E+00 0. -1.
     999900   -1    0    0    0    0 -0.00000000000E+00 -0.00000000000E+00 -0.74505805969E-08  0.93827000000E+00  0.93827000000E+00 0. -1.
     999902    2    1    2    0    0  0.23892506657E-01 -0.23289605691E-02  0.88055165713E-04  0.10199240906E+01  0.10196415384E+01 0.  0.
     999903    2    3    3    0    0  0.42537499671E-01 -0.80301244959E-01 -0.14135017032E+00  0.16924372495E+00  0.20145445301E-01 0.  0.
         14    1    1    2    0    0 -0.23892506657E-01  0.23289605691E-02 -0.88055165713E-04  0.24005909385E-01  0.00000000000E+00 0.  1.
     999901    1    3    3    0    0 -0.18644993014E-01  0.77972284389E-01  0.14143822548E+00  0.85068036566E+00  0.83500000000E+00 0.  1.
        -11    1    4    4    0    0  0.23824725772E-01 -0.34924233018E-01 -0.81712949248E-01  0.92003189106E-01  0.51100000000E-03 0.  1.
         11    1    4    4    0    0  0.18712773899E-01 -0.45377011940E-01 -0.59637221071E-01  0.77240535845E-01  0.51100000000E-03 0. -1.
</event>
<event>
 8    1  0.5616615E+005  0.1043930E+01  0.7957747E-01            NaN
         13   -1    0    0    0    0  0.00000000000E+00  0.00000000000E+00  0.74505805969E-08  0.10566000000E+00  0.10566000000E+00 0. -1.
     999900   -1    0    0    0    0 -0.00000000000E+00 -0.00000000000E+00 -0.74505805969E-08  0.93827000000E+00  0.93827000000E+00 0.  1.
     999902    2    1    2    0    0 -0.11067311264E-02  0.20865646083E-01 -0.80644824789E-02  0.10215327699E+01  0.10212872093E+01 0.  0.
     999903    2    3    3    0    0  0.15503782111E+00  0.17129309789E-02 -0.66376735404E-01  0.16984429012E+00  0.20038756855E-01 0.  0.
         14    1    1    2    0    0  0.11067311264E-02 -0.20865646083E-01  0.80644824789E-02  0.22397230139E-01  0.00000000000E+00 0.  1.
     999901    1    3    3    0    0 -0.15614455223E+00  0.19152715104E-01  0.58312252925E-01  0.85168847974E+00  0.83500000000E+00 0. -1.
        -11    1    4    4    0    0  0.38570953240E-01 -0.82273349837E-02 -0.17239436889E-01  0.43044939076E-01  0.51100000000E-03 0.  1.
         11    1    4    4    0    0  0.11646686787E+00  0.99402659625E-02 -0.49137298514E-01  0.12679935104E+00  0.51100000000E-03 0. -1.
</event>
<event>
 8    1  0.5616615E+005  0.1043930E+01  0.7957747E-01            NaN
         13   -1    0    0    0    0  0.00000000000E+00  0.00000000000E+00  0.74505805969E-08  0.10566000000E+00  0.10566000000E+00 0.  1.
     999900   -1    0    0    0    0 -0.00000000000E+00 -0.00000000000E+00 -0.74505805969E-08  0.93827000000E+00  0.93827000000E+00 0. -1.
     999902    2    1    2    0    0 -0.12153898171E-01 -0.18675989498E-01  0.91236043657E-02  0.10198520021E+01  0.10195677301E+01 0.  0.
     999903    2    3    3    0    0 -0.12994309579E+00  0.29163958699E-01  0.10377506748E+00  0.16994209209E+00  0.19372800681E-01 0.  0.
         14    1    1    2    0    0  0.12153898171E-01  0.18675989498E-01 -0.91236043657E-02  0.24077997863E-01  0.00000000000E+00 0. -1.
     999901    1    3    3    0    0  0.11778919762E+00 -0.47839948197E-01 -0.94651463110E-01  0.84990991004E+00  0.83500000000E+00 0. -1.
        -11    1    4    4    0    0 -0.79908635082E-01  0.22485161713E-01  0.53890683381E-01  0.98971911845E-01  0.51100000000E-03 0. -1.
         11    1    4    4    0    0 -0.50034460705E-01  0.66787969861E-02  0.49884384094E-01  0.70970180250E-01  0.51100000000E-03 0.  1.
</event>
<event>
 8    1  0.5616615E+005  0.1043930E+01  0.7957747E-01            NaN
         13   -1    0    0    0    0  0.00000000000E+00  0.00000000000E+00  0.74505805969E-08  0.10566000000E+00  0.10566000000E+00 0.  1.
     999900   -1    0    0    0    0 -0.00000000000E+00 -0.00000000000E+00 -0.74505805969E-08  0.93827000000E+00  0.93827000000E+00 0. -1.
     999902    2    1    2    0    0  0.10794821105E-01 -0.21349541547E-01  0.81262373473E-03  0.10199927603E+01  0.10197118415E+01 0.  0.
     999903    2    3    3    0    0 -0.11461566495E+00  0.73103458924E-01 -0.91885195481E-01  0.16531911206E+00  0.20165646687E-01 0.  0.
         14    1    1    2    0    0 -0.10794821105E-01  0.21349541547E-01 -0.81262373473E-03  0.23937239696E-01  0.00000000000E+00 0.  1.
     999901    1    3    3    0    0  0.12541048605E+00 -0.94453000471E-01  0.92697819216E-01  0.85467364824E+00  0.83500000000E+00 0.  1.
        -11    1    4    4    0    0 -0.35058942063E-01  0.33689303181E-01 -0.31140914359E-01  0.57741806653E-01  0.51100000000E-03 0.  1.
         11    1    4    4    0    0 -0.79556722886E-01  0.39414155743E-01 -0.60744281122E-01  0.10757730541E+00  0.51100000000E-03 0. -1.
</event>
<event>
 8    1  0.5616615E+005  0.1043930E+01  0.7957747E-01            NaN
         13   -1    0    0    0    0  0.00000000000E+00  0.00000000000E+00  0.74505805969E-08  0.10566000000E+00  0.10566000000E+00 0. -1.
     999900   -1    0    0    0    0 -0.00000000000E+00 -0.00000000000E+00 -0.74505805969E-08  0.93827000000E+00  0.93827000000E+00 0.  1.
     999902    2    1    2    0    0  0.23327886653E-01  0.20006031699E-02 -0.76402177040E-02  0.10193014467E+01  0.10190038634E+01 0.  0.
     999903    2    3    3    0    0 -0.13817426016E+00 -0.56840664447E-01 -0.66478937740E-01  0.16476517884E+00  0.20127783983E-01 0.  0.
         14    1    1    2    0    0 -0.23327886653E-01 -0.20006031699E-02  0.76402177040E-02  0.24628553252E-01  0.00000000000E+00 0. -1.
     999901    1    3    3    0    0  0.16150214681E+00  0.58841267617E-01  0.58838720036E-01  0.85453626791E+00  0.83500000000E+00 0. -1.
        -11    1    4    4    0    0 -0.69255324609E-01 -0.39148041580E-01 -0.33034997758E-01  0.86141983633E-01  0.51100000000E-03 0.  1.
         11    1    4    4    0    0 -0.68918935552E-01 -0.17692622867E-01 -0.33443939983E-01  0.78623195204E-01  0.51100000000E-03 0. -1.
</event>
<event>
 8    1  0.5616615E+005  0.1043930E+01  0.7957747E-01            NaN
         13   -1    0    0    0    0  0.00000000000E+00  0.00000000000E+00  0.74505805969E-08  0.10566000000E+00  0.10566000000E+00 0.  1.
     999900   -1    0    0    0    0 -0.00000000000E+00 -0.00000000000E+00 -0.74505805969E-08  0.93827000000E+00  0.93827000000E+00 0.  1.
     999902    2    1    2    0    0 -0.35855487805E-02 -0.26317410670E-01  0.10413943960E-01  0.10154008484E+01  0.10149999854E+01 0.  0.
     999903    2    3    3    0    0 -0.11632409215E+00 -0.71028858243E-01 -0.91768653246E-01  0.16547415983E+00  0.19591292344E-01 0.  0.
         14    1    1    2    0    0  0.35855487805E-02  0.26317410670E-01 -0.10413943960E-01  0.28529151639E-01  0.00000000000E+00 0.  1.
     999901    1    3    3    0    0  0.11273854337E+00  0.44711447573E-01  0.10218259721E+00  0.84992668853E+00  0.83500000000E+00 0. -1.
        -11    1    4    4    0    0 -0.43904954424E-01 -0.22004811985E-01 -0.43368392020E-01  0.65520495426E-01  0.51100000000E-03 0.  1.
         11    1    4    4    0    0 -0.72419137723E-01 -0.49024046257E-01 -0.48400261226E-01  0.99953664404E-01  0.51100000000E-03 0. -1.
</event>
<event>
 8    1  0.5616615E+005  0.1043930E+01  0.7957747E-01            NaN
         13   -1    0    0    0    0  0.00000000000E+00  0.00000000000E+00  0.74505805969E-08  0.10566000000E+00  0.10566000000E+00 0. -1.
     999900   -1    0    0    0    0 -0.00000000000E+00 -0.00000000000E+00 -0.74505805969E-08  0.93827000000E+00  0.93827000000E+00 0.  1.
     999902    2    1    2    0    0  0.12470865083E-01 -0.64917254475E-02 -0.16636666172E-01  0.10221482729E+01  0.10219161649E+01 0.  0.
     999903    2    3    3    0    0  0.30768610393E-01  0.16390620848E+00 -0.24055234315E-01  0.16971041677E+00  0.20273596072E-01 0.  0.
         14    1    1    2    0    0 -0.12470865083E-01  0.64917254475E-02  0.16636666172E-01  0.21781727125E-01  0.00000000000E+00 0. -1.
     999901    1    3    3    0    0 -0.18297745309E-01 -0.17039793393E+00  0.74185681422E-02  0.85243785611E+00  0.83500000000E+00 0.  1.
        -11    1    4    4    0    0  0.28531196194E-01  0.10189665649E+00 -0.11960862799E-01  0.10649075603E+00  0.51100000000E-03 0.  1.
         11    1    4    4    0    0  0.22374141984E-02  0.62009551995E-01 -0.12094371516E-01  0.63219660742E-01  0.51100000000E-03 0. -1.
</event>
<event>
 8    1  0.5616615E+005  0.1043930E+01  0.7957747E-01            NaN
         13   -1    0    0    0    0  0.00000000000E+00  0.00000000000E+00  0.74505805969E-08  0.10566000000E+00  0.10566000000E+00 0.  1.
     999900   -1    0    0    0    0 -0.00000000000E+00 -0.00000000000E+00 -0.74505805969E-08  0.93827000000E+00  0.93827000000E+00 0. -1.
     999902    2    1    2    0    0 -0.43220466318E-02  0.12239485981E-01 -0.19939060856E-01  0.10201381684E+01  0.10198606921E+01 0.  0.
     999903    2    3    3    0    0  0.98225557011E-01  0.97451621757E-02  0.13117277601E+00  0.16539726032E+00  0.20167506523E-01 0.  0.
         14    1    1    2    0    0  0.43220466318E-02 -0.12239485981E-01  0.19939060856E-01  0.23791831623E-01  0.00000000000E+00 0.  1.
     999901    1    3    3    0    0 -0.10254760364E+00  0.24943238054E-02 -0.15111183687E+00  0.85474090806E+00  0.83500000000E+00 0. -1.
        -11    1    4    4    0    0  0.38497049682E-01  0.11930127334E-02  0.67205003301E-01  0.77461085090E-01  0.51100000000E-03 0. -1.
         11    1    4    4    0    0  0.59728507329E-01  0.85521494423E-02  0.63967772708E-01  0.87936175230E-01  0.51100000000E-03 0.  1.
</event>
<event>
 8    1  0.5616615E+005  0.1043930E+01  0.7957747E-01            NaN
         13   -1    0    0    0    0  0.00000000000E+00  0.00000000000E+00  0.74505805969E-08  0.10566000000E+00  0.10566000000E+00 0. -1.
     999900   -1    0    0    0    0 -0.00000000000E+00 -0.00000000000E+00 -0.74505805969E-08  0.93827000000E+00  0.93827000000E+00 0. -1.
     999902    2    1    2    0    0 -0.35378287251E-02  0.16700660046E-01 -0.16438028588E-01  0.10202311169E+01  0.10199558298E+01 0.  0.
     999903    2    3    3    0    0 -0.12837316853E+00  0.10272779204E+00  0.37770572405E-01  0.16984996589E+00  0.19741456878E-01 0.  0.
         14    1    1    2    0    0  0.35378287251E-02 -0.16700660046E-01  0.16438028588E-01  0.23698883136E-01  0.00000000000E+00 0.  1.
     999901    1    3    3    0    0  0.12483533980E+00 -0.86027131991E-01 -0.54208600993E-01  0.85038115097E+00  0.83500000000E+00 0. -1.
        -11    1    4    4    0    0 -0.62252469326E-01  0.41893472702E-01  0.25022798576E-01  0.79100155258E-01  0.51100000000E-03 0.  1.
         11    1    4    4    0    0 -0.66120699203E-01  0.60834319335E-01  0.12747773829E-01  0.90749810637E-01  0.51100000000E-03 0. -1.
</event>
<event>
 8    1  0.5616615E+005  0.1043930E+01  0.7957747E-01            NaN
         13   -1    0    0    0    0  0.00000000000E+00  0.00000000000E+00  0.74505805969E-08  0.10566000000E+00  0.10566000000E+00 0. -1.
     999900   -1    0    0    0    0 -0.00000000000E+00 -0.00000000000E+00 -0.74505805969E-08  0.93827000000E+00  0.93827000000E+00 0.  1.
     999902    2    1    2    0    0 -0.48292002563E-02  0.49444841982E-02  0.22983622687E-01  0.10199296664E+01  0.10196472471E+01 0.  0.
     999903    2    3    3    0    0  0.14891444585E+00 -0.71696418470E-01 -0.10307650157E-01  0.16679178454E+00  0.19933969390E-01 0.  0.
         14    1    1    2    0    0  0.48292002563E-02 -0.49444841982E-02 -0.22983622687E-01  0.24000333559E-01  0.00000000000E+00 0.  1.
     999901    1    3    3    0    0 -0.15374364611E+00  0.76640902669E-01  0.33291272844E-01  0.85313788190E+00  0.83500000000E+00 0. -1.
        -11    1    4    4    0    0  0.68403224131E-01 -0.28912480453E-01 -0.13866791373E-01  0.75547876353E-01  0.51100000000E-03 0. -1.
         11    1    4    4    0    0  0.80511221719E-01 -0.42783938017E-01  0.35591412163E-02  0.91243908192E-01  0.51100000000E-03 0.  1.
</event>
<event>
 8    1  0.5616615E+005  0.1043930E+01  0.7957747E-01            NaN
         13   -1    0    0    0    0  0.00000000000E+00  0.00000000000E+00  0.74505805969E-08  0.10566000000E+00  0.10566000000E+00 0.  1.
     999900   -1    0    0    0    0 -0.00000000000E+00 -0.00000000000E+00 -0.74505805969E-08  0.93827000000E+00  0.93827000000E+00 0.  1.
     999902    2    1    2    0    0  0.64395903978E-02  0.74006604900E-02  0.21528459962E-01  0.10202717522E+01  0.10199974194E+01 0.  0.
     999903    2    3    3    0    0 -0.12950146829E-01 -0.15967935847E+00  0.46913597919E-01  0.16812088536E+00  0.19963531704E-01 0.  0.
         14    1    1    2    0    0 -0.64395903978E-02 -0.74006604900E-02 -0.21528459962E-01  0.23658247791E-01  0.00000000000E+00 0. -1.
     999901    1    3    3    0    0  0.19389737227E-01  0.16708001896E+00 -0.25385137956E-01  0.85215086685E+00  0.83500000000E+00 0. -1.
        -11    1    4    4    0    0 -0.14119011231E-01 -0.76085665229E-01  0.28844103655E-01  0.82587035109E-01  0.51100000000E-03 0. -1.
         11    1    4    4    0    0  0.11688644015E-02 -0.83593693246E-01  0.18069494264E-01  0.85533850249E-01  0.51100000000E-03 0.  1.
</event>
<event>
 8    1  0.5616615E+005  0.1043930E+01  0.7957747E-01            NaN
         13   -1    0    0    0    0  0.00000000000E+00  0.00000000000E+00  0.74505805969E-08  0.10566000000E+00  0.10566000000E+00 0.  1.
     999900   -1    0    0    0    0 -0.00000000000E+00 -0.00000000000E+00 -0.74505805969E-08  0.93827000000E+00  0.93827000000E+00 0. -1.
     999902    2    1    2    0    0 -0.20675915680E-01  0.88987063144E-02  0.82031479682E-02  0.10199722852E+01  0.10196908798E+01 0.  0.
     999903    2    3    3    0    0 -0.94997940285E-01 -0.32989602986E-01  0.13456583685E+00  0.17116669910E+00  0.32819991928E-01 0.  0.
         14    1    1    2    0    0  0.20675915680E-01 -0.88987063144E-02 -0.82031479682E-02  0.23957714830E-01  0.00000000000E+00 0. -1.
     999901    1    3    3    0    0  0.74322024605E-01  0.41888309300E-01 -0.12636268889E+00  0.84880558607E+00  0.83500000000E+00 0. -1.
        -11    1    4    4    0    0 -0.61665330349E-01 -0.25325488434E-01  0.62437379871E-01  0.91338277067E-01  0.51100000000E-03 0. -1.
         11    1    4    4    0    0 -0.33332609936E-01 -0.76641145519E-02  0.72128456983E-01  0.79828422036E-01  0.51100000000E-03 0.  1.
</event>
<event>
 8    1  0.5616615E+005  0.1043930E+01  0.7957747E-01            NaN
         13   -1    0    0    0    0  0.00000000000E+00  0.00000000000E+00  0.74505805969E-08  0.10566000000E+00  0.10566000000E+00 0. -1.
     999900   -1    0    0    0    0 -0.00000000000E+00 -0.00000000000E+00 -0.74505805969E-08  0.93827000000E+00  0.93827000000E+00 0.  1.
     999902    2    1    2    0    0 -0.96884577336E-02  0.14742173044E-01 -0.15466361278E-01  0.10204692624E+01  0.10201995438E+01 0.  0.
     999903    2    3    3    0    0 -0.15888319418E+00  0.59304763338E-01 -0.87845872883E-02  0.17104914255E+00  0.20486967755E-01 0.  0.
         14    1    1    2    0    0  0.96884577336E-02 -0.14742173044E-01  0.15466361278E-01  0.23460737637E-01  0.00000000000E+00 0. -1.
     999901    1    3    3    0    0  0.14919473644E+00 -0.44562590294E-01 -0.66817739897E-02  0.84942011981E+00  0.83500000000E+00 0. -1.
        -11    1    4    4    0    0 -0.38450009763E-01  0.52404896819E-02 -0.23287452586E-02  0.38878659420E-01  0.51100000000E-03 0.  1.
         11    1    4    4    0    0 -0.12043318441E+00  0.54064273656E-01 -0.64558420297E-02  0.13217048313E+00  0.51100000000E-03 0. -1.
</event>
<event>
 7    1  0.5616615E+005  0.1043930E+01  0.7957747E-01            NaN
         13   -1    0    0    0    0  0.00000000000E+00  0.00000000000E+00  0.74505805969E-08  0.10566000000E+00  0.10566000000E+00 0. -1.
     999900   -1    0    0    0    0 -0.00000000000E+00 -0.00000000000E+00 -0.74505805969E-08  0.93827000000E+00  0.93827000000E+00 0.  1.
     999903    2    1    2    0    0  0.73277321240E-01 -0.39779073625E-01 -0.47834257848E-01  0.98232266889E-01  0.20236638249E-01 0.  0.
         14    1    1    2    0    0  0.81624633989E-01 -0.37911669738E-01 -0.12062739125E-01  0.90804103714E-01  0.00000000000E+00 0.  1.
     999901    1    1    2    0    0 -0.15490195523E+00  0.77690743362E-01  0.59896996973E-01  0.85489362940E+00  0.83500000000E+00 0. -1.
        -11    1    3    3    0    0  0.42253165335E-01 -0.31017288059E-01 -0.37219940129E-01  0.64288313118E-01  0.51100000000E-03 0.  1.
         11    1    3    3    0    0  0.31024155906E-01 -0.87617855656E-02 -0.10614317719E-01  0.33943953771E-01  0.51100000000E-03 0. -1.
</event>
<event>
 8    1  0.5616615E+005  0.1043930E+01  0.7957747E-01            NaN
         13   -1    0    0    0    0  0.00000000000E+00  0.00000000000E+00  0.74505805969E-08  0.10566000000E+00  0.10566000000E+00 0.  1.
     999900   -1    0    0    0    0 -0.00000000000E+00 -0.00000000000E+00 -0.74505805969E-08  0.93827000000E+00  0.93827000000E+00 0. -1.
     999902    2    1    2    0    0  0.15520340390E-01  0.23330110295E-02  0.18182207338E-01  0.10199109124E+01  0.10196280462E+01 0.  0.
     999903    2    3    3    0    0 -0.97539455153E-01  0.12694103540E+00  0.45931232009E-01  0.16767580076E+00  0.19429984793E-01 0.  0.
         14    1    1    2    0    0 -0.15520340390E-01 -0.23330110295E-02 -0.18182207338E-01  0.24019087617E-01  0.00000000000E+00 0. -1.
     999901    1    3    3    0    0  0.11305979554E+00 -0.12460802437E+00 -0.27749024672E-01  0.85223511162E+00  0.83500000000E+00 0.  1.
        -11    1    4    4    0    0 -0.31850633485E-01  0.36770256221E-01  0.52664511611E-02  0.48933743212E-01  0.51100000000E-03 0.  1.
         11    1    4    4    0    0 -0.65688821668E-01  0.90170779176E-01  0.40664780848E-01  0.11874205755E+00  0.51100000000E-03 0. -1.
</event>
<event>
 8    1  0.5616615E+005  0.1043930E+01  0.7957747E-01            NaN
         13   -1    0    0    0    0  0.00000000000E+00  0.00000000000E+00  0.74505805969E-08  0.10566000000E+00  0.10566000000E+00 0.  1.
     999900   -1    0    0    0    0 -0.00000000000E+00 -0.00000000000E+00 -0.74505805969E-08  0.93827000000E+00  0.93827000000E+00 0.  1.
     999902    2    1    2    0    0  0.67054949166E-03  0.61986474172E-03 -0.24213073625E-01  0.10196997131E+01  0.10194117902E+01 0.  0.
     999903    2    3    3    0    0 -0.89077344611E-01  0.17152825365E-01  0.13590659685E+00  0.16460244836E+00  0.19858756208E-01 0.  0.
         14    1    1    2    0    0 -0.67054949166E-03 -0.61986474172E-03  0.24213073625E-01  0.24230286900E-01  0.00000000000E+00 0.  1.
     999901    1    3    3    0    0  0.89747894103E-01 -0.16532960623E-01 -0.16011967048E+00  0.85509726473E+00  0.83500000000E+00 0.  1.
        -11    1    4    4    0    0 -0.10874163544E-01 -0.43997860803E-02  0.17137141284E-01  0.20773740220E-01  0.51100000000E-03 0. -1.
         11    1    4    4    0    0 -0.78203181066E-01  0.21552611445E-01  0.11876945557E+00  0.14382870814E+00  0.51100000000E-03 0.  1.
</event>
<event>
 8    1  0.5616615E+005  0.1043930E+01  0.7957747E-01            NaN
         13   -1    0    0    0    0  0.00000000000E+00  0.00000000000E+00  0.74505805969E-08  0.10566000000E+00  0.10566000000E+00 0. -1.
     999900   -1    0    0    0    0 -0.00000000000E+00 -0.00000000000E+00 -0.74505805969E-08  0.93827000000E+00  0.93827000000E+00 0. -1.
     999902    2    1    2    0    0  0.15277592828E-01  0.17066467594E-01 -0.42920114513E-02  0.10206256974E+01  0.10203596050E+01 0.  0.
     999903    2    3    3    0    0  0.80116534379E-02 -0.10905103646E+00 -0.12523645367E+00  0.16750731355E+00  0.20450320856E-01 0.  0.
         14    1    1    2    0    0 -0.15277592828E-01 -0.17066467594E-01  0.42920114513E-02  0.23304302630E-01  0.00000000000E+00 0.  1.
     999901    1    3    3    0    0  0.72659393906E-02  0.12611750405E+00  0.12094444222E+00  0.85311838382E+00  0.83500000000E+00 0. -1.
        -11    1    4    4    0    0  0.14541675178E-01 -0.62734258499E-01 -0.69735178970E-01  0.94922620136E-01  0.51100000000E-03 0.  1.
         11    1    4    4    0    0 -0.65300217404E-02 -0.46316777957E-01 -0.55501274699E-01  0.72584693418E-01  0.51100000000E-03 0. -1.
</event>
<event>
 8    1  0.5616615E+005  0.1043930E+01  0.7957747E-01            NaN
         13   -1    0    0    0    0  0.00000000000E+00  0.00000000000E+00  0.74505805969E-08  0.10566000000E+00  0.10566000000E+00 0.  1.
     999900   -1    0    0    0    0 -0.00000000000E+00 -0.00000000000E+00 -0.74505805969E-08  0.93827000000E+00  0.93827000000E+00 0.  1.
     999902    2    1    2    0    0 -0.21913055425E-01  0.10802665550E-01  0.19616358297E-02  0.10194202551E+01  0.10191255707E+01 0.  0.
     999903    2    3    3    0    0  0.27497798946E-01  0.12890030891E+00  0.10333056632E+00  0.16860350279E+00  0.19455503964E-01 0.  0.
         14    1    1    2    0    0  0.21913055425E-01 -0.10802665550E-01 -0.19616358297E-02  0.24509744923E-01  0.00000000000E+00 0. -1.
     999901    1    3    3    0    0 -0.49410854371E-01 -0.11809764336E+00 -0.10136893049E+00  0.85081675228E+00  0.83500000000E+00 0. -1.
        -11    1    4    4    0    0  0.18819650071E-01  0.48752227536E-01  0.34733693979E-01  0.62750693518E-01  0.51100000000E-03 0. -1.
         11    1    4    4    0    0  0.86781488753E-02  0.80148081377E-01  0.68596872337E-01  0.10585280928E+00  0.51100000000E-03 0.  1.
</event>
<event>
 8    1  0.5616615E+005  0.1043930E+01  0.7957747E-01            NaN
         13   -1    0    0    0    0  0.00000000000E+00  0.00000000000E+00  0.74505805969E-08  0.10566000000E+00  0.10566000000E+00 0.  1.
     999900   -1    0    0    0    0 -0.00000000000E+00 -0.00000000000E+00 -0.74505805969E-08  0.93827000000E+00  0.93827000000E+00 0. -1.
     999902    2    1    2    0    0 -0.11209867426E-01 -0.43210917410E-02  0.22397148552E-01  0.10185141541E+01  0.10181969931E+01 0.  0.
     999903    2    3    3    0    0  0.12817739856E+00  0.14197967118E-01 -0.98370916307E-01  0.16318866575E+00  0.17963175741E-01 0.  0.
         14    1    1    2    0    0  0.11209867426E-01  0.43210917410E-02 -0.22397148552E-01  0.25415845939E-01  0.00000000000E+00 0. -1.
     999901    1    3    3    0    0 -0.13938726599E+00 -0.18519058859E-01  0.12076806486E+00  0.85532548831E+00  0.83500000000E+00 0.  1.
        -11    1    4    4    0    0  0.13740799399E-01 -0.12369193269E-02 -0.49828635074E-02  0.14677519793E-01  0.51100000000E-03 0.  1.
         11    1    4    4    0    0  0.11443659916E+00  0.15434886445E-01 -0.93388052800E-01  0.14851114596E+00  0.51100000000E-03 0. -1.
</event>
<event>
 8    1  0.5616615E+005  0.1043930E+01  0.7957747E-01            NaN
         13   -1    0    0    0    0  0.00000000000E+00  0.00000000000E+00  0.74505805969E-08  0.10566000000E+00  0.10566000000E+00 0. -1.
     999900   -1    0    0    0    0 -0.00000000000E+00 -0.00000000000E+00 -0.74505805969E-08  0.93827000000E+00  0.93827000000E+00 0. -1.
     999902    2    1    2    0    0  0.12739695689E-02  0.60252063776E-02 -0.23088531326E-01  0.10200342600E+01  0.10197543259E+01 0.  0.
     999903    2    3    3    0    0  0.53312459576E-01 -0.97219218849E-01 -0.12804596191E+00  0.17055884659E+00  0.20018914306E-01 0.  0.
         14    1    1    2    0    0 -0.12739695689E-02 -0.60252063776E-02  0.23088531326E-01  0.23895739979E-01  0.00000000000E+00 0. -1.
     999901    1    3    3    0    0 -0.52038490007E-01  0.10324442523E+00  0.10495743058E+00  0.84947541343E+00  0.83500000000E+00 0.  1.
        -11    1    4    4    0    0  0.19313523891E-01 -0.21959031840E-01 -0.24803092576E-01  0.38349260837E-01  0.51100000000E-03 0. -1.
         11    1    4    4    0    0  0.33998935686E-01 -0.75260187009E-01 -0.10324286933E+00  0.13220958576E+00  0.51100000000E-03 0.  1.
</event>
<event>
 8    1  0.5616615E+005  0.1043930E+01  0.7957747E-01            NaN
         13   -1    0    0    0    0  0.00000000000E+00  0.00000000000E+00  0.74505805969E-08  0.10566000000E+00  0.10566000000E+00 0.  1.
     999900   -1    0    0    0    0 -0.00000000000E+00 -0.00000000000E+00 -0.74505805969E-08  0.93827000000E+00  0.93827000000E+00 0.  1.
     999902    2    1    2    0    0  0.20939171820E-01  0.34405986874E-02 -0.10239763900E-01  0.10203686036E+01  0.10200965385E+01 0.  0.
     999903    2    3    3    0    0 -0.12571851760E+00 -0.20790029619E-01 -0.10578337715E+00  0.16687625843E+00  0.20498579168E-01 0.  0.
         14    1    1    2    0    0 -0.20939171820E-01 -0.34405986874E-02  0.10239763900E-01  0.23561396405E-01  0.00000000000E+00 0.  1.
     999901    1    3    3    0    0  0.14665768942E+00  0.24230628306E-01  0.95543613250E-01  0.85349234516E+00  0.83500000000E+00 0. -1.
        -11    1    4    4    0    0 -0.98810042583E-01 -0.23901291749E-01 -0.88099025860E-01  0.13452284468E+00  0.51100000000E-03 0. -1.
         11    1    4    4    0    0 -0.26908475021E-01  0.31112621302E-02 -0.17684351289E-01  0.32353413753E-01  0.51100000000E-03 0.  1.
</event>
<event>
 8    1  0.5616615E+005  0.1043930E+01  0.7957747E-01            NaN
         13   -1    0    0    0    0  0.00000000000E+00  0.00000000000E+00  0.74505805969E-08  0.10566000000E+00  0.10566000000E+00 0. -1.
     999900   -1    0    0    0    0 -0.00000000000E+00 -0.00000000000E+00 -0.74505805969E-08  0.93827000000E+00  0.93827000000E+00 0.  1.
     999902    2    1    2    0    0  0.23376631709E-01 -0.21838320995E-01  0.28614143673E-02  0.10118119853E+01  0.10113020947E+01 0.  0.
     999903    2    3    3    0    0 -0.11120568306E+00 -0.41017675030E-01  0.10528706464E+00  0.15964048798E+00  0.18723402783E-01 0.  0.
         14    1    1    2    0    0 -0.23376631709E-01  0.21838320995E-01 -0.28614143673E-02  0.32118014666E-01  0.00000000000E+00 0.  1.
     999901    1    3    3    0    0  0.13458231477E+00  0.19179354036E-01 -0.10242565027E+00  0.85217149735E+00  0.83500000000E+00 0.  1.
        -11    1    4    4    0    0 -0.61912898401E-01 -0.13290543233E-01  0.52118338198E-01  0.82014802477E-01  0.51100000000E-03 0.  1.
         11    1    4    4    0    0 -0.49292784663E-01 -0.27727131797E-01  0.53168726438E-01  0.77625685502E-01  0.51100000000E-03 0. -1.
</event>
<event>
 8    1  0.5616615E+005  0.1043930E+01  0.7957747E-01            NaN
         13   -1    0    0    0    0  0.00000000000E+00  0.00000000000E+00  0.74505805969E-08  0.10566000000E+00  0.10566000000E+00 0.  1.
     999900   -1    0    0    0    0 -0.00000000000E+00 -0.00000000000E+00 -0.74505805969E-08  0.93827000000E+00  0.93827000000E+00 0. -1.
     999902    2    1    2    0    0  0.22929483921E-01  0.62786720376E-02  0.14753962711E-02  0.10201106854E+01  0.10198325601E+01 0.  0.
     999903    2    3    3    0    0 -0.42640795401E-01 -0.54024688923E-01  0.15090510149E+00  0.16718032849E+00  0.20976370825E-01 0.  0.
         14    1    1    2    0    0 -0.22929483921E-01 -0.62786720376E-02 -0.14753962711E-02  0.23819314633E-01  0.00000000000E+00 0. -1.
     999901    1    3    3    0    0  0.65570279322E-01  0.60303360960E-01 -0.14942970522E+00  0.85293035687E+00  0.83500000000E+00 0. -1.
        -11    1    4    4    0    0 -0.67778794887E-02 -0.20667137711E-01  0.61535702732E-01  0.65268476796E-01  0.51100000000E-03 0. -1.
         11    1    4    4    0    0 -0.35862915912E-01 -0.33357551212E-01  0.89369398760E-01  0.10191185170E+00  0.51100000000E-03 0.  1.
</event>
<event>
 8    1  0.5616615E+005  0.1043930E+01  0.7957747E-01            NaN
         13   -1    0    0    0    0  0.00000000000E+00  0.00000000000E+00  0.74505805969E-08  0.10566000000E+00  0.10566000000E+00 0.  1.
     999900   -1    0    0    0    0 -0.00000000000E+00 -0.00000000000E+00 -0.74505805969E-08  0.93827000000E+00  0.93827000000E+00 0.  1.
     999902    2    1    2    0    0 -0.21278356583E-02  0.19527641102E-01  0.99132999145E-02  0.10219270464E+01  0.10216901478E+01 0.  0.
     999903    2    3    3    0    0 -0.13674294959E+00  0.21240297235E-01  0.99342688398E-01  0.17142908779E+00  0.19214003007E-01 0.  0.
         14    1    1    2    0    0  0.21278356583E-02 -0.19527641102E-01 -0.99132999145E-02  0.22002953592E-01  0.00000000000E+00 0. -1.
     999901    1    3    3    0    0  0.13461511394E+00 -0.17126561335E-02 -0.89429388483E-01  0.85049795862E+00  0.83500000000E+00 0.  1.
        -11    1    4    4    0    0 -0.76097606346E-01  0.76870555500E-02  0.65313480681E-01  0.10057856827E+00  0.51100000000E-03 0. -1.
         11    1    4    4    0    0 -0.60645343249E-01  0.13553241685E-01  0.34029207716E-01  0.70850519523E-01  0.51100000000E-03 0.  1.
</event>
<event>
 8    1  0.5616615E+005  0.1043930E+01  0.7957747E-01            NaN
         13   -1    0    0    0    0  0.00000000000E+00  0.00000000000E+00  0.74505805969E-08  0.10566000000E+00  0.10566000000E+00 0. -1.
     999900   -1    0    0    0    0 -0.00000000000E+00 -0.00000000000E+00 -0.74505805969E-08  0.93827000000E+00  0.93827000000E+00 0. -1.
     999902    2    1    2    0    0  0.13835445895E-01  0.13162941398E-01 -0.15130320785E-01  0.10195659035E+01  0.10192747532E+01 0.  0.
     999903    2    3    3    0    0  0.10393228664E+00 -0.80439542827E-01  0.10044569967E+00  0.16665226062E+00  0.20277996269E-01 0.  0.
         14    1    1    2    0    0 -0.13835445895E-01 -0.13162941398E-01  0.15130320785E-01  0.24364096462E-01  0.00000000000E+00 0.  1.
     999901    1    3    3    0    0 -0.90096840745E-01  0.93602484225E-01 -0.11557602045E+00  0.85291364291E+00  0.83500000000E+00 0.  1.
        -11    1    4    4    0    0  0.51080029769E-01 -0.49734706696E-01  0.46439311875E-01  0.85085729119E-01  0.51100000000E-03 0. -1.
         11    1    4    4    0    0  0.52852256870E-01 -0.30704836131E-01  0.54006387794E-01  0.81566531504E-01  0.51100000000E-03 0.  1.
</event>
<event>
 8    1  0.5947112E+005  0.1043930E+01  0.7957747E-01            NaN
         13   -1    0    0    0    0  0.00000000000E+00  0.00000000000E+00  0.74505805969E-08  0.10566000000E+00  0.10566000000E+00 0.  1.
     999900   -1    0    0    0    0 -0.00000000000E+00 -0.00000000000E+00 -0.74505805969E-08  0.93827000000E+00  0.93827000000E+00 0. -1.
     999902    2    1    2    0    0 -0.11141818384E-01  0.11263689582E-01 -0.16777306894E-01  0.10208542802E+01  0.10205934413E+01 0.  0.
     999903    2    3    3    0    0  0.13696327802E+00  0.61475290727E-01 -0.75635510212E-01  0.16929945950E+00  0.20085459610E-01 0.  0.
         14    1    1    2    0    0  0.11141818384E-01 -0.11263689582E-01  0.16777306894E-01  0.23075719848E-01  0.00000000000E+00 0.  1.
     999901    1    3    3    0    0 -0.14810509640E+00 -0.50211601146E-01  0.58858203319E-01  0.85155482065E+00  0.83500000000E+00 0.  1.
        -11    1    4    4    0    0  0.66491769255E-01  0.40631623476E-01 -0.36786989890E-01  0.86172083363E-01  0.51100000000E-03 0.  1.
         11    1    4    4    0    0  0.70471508764E-01  0.20843667252E-01 -0.38848520322E-01  0.83127376142E-01  0.51100000000E-03 0. -1.
</event>
<event>
 8    1  0.5616615E+005  0.1043930E+01  0.7957747E-01            NaN
         13   -1    0    0    0    0  0.00000000000E+00  0.00000000000E+00  0.74505805969E-08  0.10566000000E+00  0.10566000000E+00 0.  1.
     999900   -1    0    0    0    0 -0.00000000000E+00 -0.00000000000E+00 -0.74505805969E-08  0.93827000000E+00  0.93827000000E+00 0. -1.
     999902    2    1    2    0    0  0.19590922098E-01 -0.54993182338E-03  0.11929203947E-01  0.10209863176E+01  0.10207284890E+01 0.  0.
     999903    2    3    3    0    0  0.16496438301E+00  0.97864833712E-02 -0.41960834049E-01  0.17165162459E+00  0.19863174741E-01 0.  0.
         14    1    1    2    0    0 -0.19590922098E-01  0.54993182338E-03 -0.11929203947E-01  0.22943682365E-01  0.00000000000E+00 0. -1.
     999901    1    3    3    0    0 -0.14537346091E+00 -0.10336415195E-01  0.53890037996E-01  0.84933469305E+00  0.83500000000E+00 0.  1.
        -11    1    4    4    0    0  0.12596514069E+00  0.46574898485E-02 -0.23613206773E-01  0.12824489673E+00  0.51100000000E-03 0.  1.
         11    1    4    4    0    0  0.38999242318E-01  0.51289935227E-02 -0.18347627277E-01  0.43406727861E-01  0.51100000000E-03 0. -1.
</event>
<event>
 8    1  0.5616615E+005  0.1043930E+01  0.7957747E-01            NaN
         13   -1    0    0    0    0  0.00000000000E+00  0.00000000000E+00  0.74505805969E-08  0.10566000000E+00  0.10566000000E+00 0. -1.
     999900   -1    0    0    0    0 -0.00000000000E+00 -0.00000000000E+00 -0.74505805969E-08  0.93827000000E+00  0.93827000000E+00 0. -1.
     999902    2    1    2    0    0 -0.19807353151E-01 -0.43007665254E-02  0.13073523848E-01  0.10198106124E+01  0.10195253505E+01 0.  0.
     999903    2    3    3    0    0 -0.40830087327E-02 -0.13960976758E+00  0.94627901515E-01  0.16985067378E+00  0.19678756892E-01 0.  0.
         14    1    1    2    0    0  0.19807353151E-01  0.43007665254E-02 -0.13073523848E-01  0.24119387583E-01  0.00000000000E+00 0.  1.
     999901    1    3    3    0    0 -0.15724344419E-01  0.13530900106E+00 -0.81554377668E-01  0.84995993864E+00  0.83500000000E+00 0. -1.
        -11    1    4    4    0    0 -0.30469034117E-02 -0.11481506278E+00  0.68130354379E-01  0.13354320862E+00  0.51100000000E-03 0.  1.
         11    1    4    4    0    0 -0.10361053210E-02 -0.24794704806E-01  0.26497547136E-01  0.36307465154E-01  0.51100000000E-03 0. -1.
</event>
<event>
 8    1  0.5616615E+005  0.1043930E+01  0.7957747E-01            NaN
         13   -1    0    0    0    0  0.00000000000E+00  0.00000000000E+00  0.74505805969E-08  0.10566000000E+00  0.10566000000E+00 0. -1.
     999900   -1    0    0    0    0 -0.00000000000E+00 -0.00000000000E+00 -0.74505805969E-08  0.93827000000E+00  0.93827000000E+00 0.  1.
     999902    2    1    2    0    0  0.11657681775E-01 -0.81206527819E-02 -0.18743409377E-01  0.10204106050E+01  0.10201395203E+01 0.  0.
     999903    2    3    3    0    0 -0.15855423195E+00  0.37560992666E-01  0.23940441819E-01  0.16594830656E+00  0.20381929624E-01 0.  0.
         14    1    1    2    0    0 -0.11657681775E-01  0.81206527819E-02  0.18743409377E-01  0.23519394997E-01  0.00000000000E+00 0. -1.
     999901    1    3    3    0    0  0.17021191373E+00 -0.45681645448E-01 -0.42683851196E-01  0.85446229844E+00  0.83500000000E+00 0.  1.
        -11    1    4    4    0    0 -0.19195902479E-01  0.64482378038E-02  0.96720691510E-02  0.22447104166E-01  0.51100000000E-03 0. -1.
         11    1    4    4    0    0 -0.13935832947E+00  0.31112754862E-01  0.14268372668E-01  0.14350120239E+00  0.51100000000E-03 0.  1.
</event>
<event>
 8    1  0.5616615E+005  0.1043930E+01  0.7957747E-01            NaN
         13   -1    0    0    0    0  0.00000000000E+00  0.00000000000E+00  0.74505805969E-08  0.10566000000E+00  0.10566000000E+00 0. -1.
     999900   -1    0    0    0    0 -0.00000000000E+00 -0.00000000000E+00 -0.74505805969E-08  0.93827000000E+00  0.93827000000E+00 0.  1.
     999902    2    1    2    0    0 -0.17956617167E-01 -0.11973852235E-01  0.11120911640E-01  0.10196506278E+01  0.10193615232E+01 0.  0.
     999903    2    3    3    0    0 -0.20351239821E-01  0.13233244985E+00 -0.95738269815E-01  0.16555816931E+00  0.17822482160E-01 0.  0.
         14    1    1    2    0    0  0.17956617167E-01  0.11973852235E-01 -0.11120911640E-01  0.24279372173E-01  0.00000000000E+00 0.  1.
     999901    1    3    3    0    0  0.23946226548E-02 -0.14430630209E+00  0.10685918146E+00  0.85409245852E+00  0.83500000000E+00 0. -1.
        -11    1    4    4    0    0 -0.21890118605E-01  0.90058423086E-01 -0.68389137658E-01  0.11518260343E+00  0.51100000000E-03 0. -1.
         11    1    4    4    0    0  0.15388787839E-02  0.42274026768E-01 -0.27349132157E-01  0.50375565881E-01  0.51100000000E-03 0.  1.
</event>
<event>
 8    1  0.5616615E+005  0.1043930E+01  0.7957747E-01            NaN
         13   -1    0    0    0    0  0.00000000000E+00  0.00000000000E+00  0.74505805969E-08  0.10566000000E+00  0.10566000000E+00 0.  1.
     999900   -1    0    0    0    0 -0.00000000000E+00 -0.00000000000E+00 -0.74505805969E-08  0.93827000000E+00  0.93827000000E+00 0.  1.
     999902    2    1    2    0    0 -0.22680504372E-01 -0.62095294215E-02  0.79604695065E-03  0.10204013531E+01  0.10201300526E+01 0.  0.
     999903    2    3    3    0    0  0.92180947433E-01  0.10457086343E-01  0.13591704609E+00  0.16661354949E+00  0.26075922402E-01 0.  0.
         14    1    1    2    0    0  0.22680504372E-01  0.62095294215E-02 -0.79604695065E-03  0.23528646900E-01  0.00000000000E+00 0. -1.
     999901    1    3    3    0    0 -0.11486145180E+00 -0.16666615765E-01 -0.13512099914E+00  0.85378780361E+00  0.83500000000E+00 0.  1.
        -11    1    4    4    0    0  0.78369928903E-01  0.10436801842E-02  0.10052028855E+00  0.12746577798E+00  0.51100000000E-03 0.  1.
         11    1    4    4    0    0  0.13811018530E-01  0.94134061593E-02  0.35396757546E-01  0.39147771509E-01  0.51100000000E-03 0. -1.
</event>
<event>
 8    1  0.5616615E+005  0.1043930E+01  0.7957747E-01            NaN
         13   -1    0    0    0    0  0.00000000000E+00  0.00000000000E+00  0.74505805969E-08  0.10566000000E+00  0.10566000000E+00 0. -1.
     999900   -1    0    0    0    0 -0.00000000000E+00 -0.00000000000E+00 -0.74505805969E-08  0.93827000000E+00  0.93827000000E+00 0.  1.
     999902    2    1    2    0    0 -0.20487341051E-01 -0.10525732257E-01 -0.90800459588E-02  0.10191717808E+01  0.10188710170E+01 0.  0.
     999903    2    3    3    0    0 -0.32863435519E-01 -0.11533616857E+00 -0.11943377533E+00  0.17032471516E+00  0.19069471184E-01 0.  0.
         14    1    1    2    0    0  0.20487341051E-01  0.10525732257E-01  0.90800459588E-02  0.24758219191E-01  0.00000000000E+00 0. -1.
     999901    1    3    3    0    0  0.12376094468E-01  0.10481043631E+00  0.11035372937E+00  0.84884706565E+00  0.83500000000E+00 0. -1.
        -11    1    4    4    0    0  0.14244093013E-02 -0.21000304481E-01 -0.20219351965E-01  0.29191180946E-01  0.51100000000E-03 0. -1.
         11    1    4    4    0    0 -0.34287844820E-01 -0.94335864086E-01 -0.99214423366E-01  0.14113353422E+00  0.51100000000E-03 0.  1.
</event>
<event>
 7    1  0.1022795E+006  0.1043930E+01  0.7957747E-01            NaN
         13   -1    0    0    0    0  0.00000000000E+00  0.00000000000E+00  0.74505805969E-08  0.10566000000E+00  0.10566000000E+00 0. -1.
     999900   -1    0    0    0    0 -0.00000000000E+00 -0.00000000000E+00 -0.74505805969E-08  0.93827000000E+00  0.93827000000E+00 0. -1.
     999903    2    1    2    0    0 -0.12389497538E+00 -0.95506394352E-01 -0.22780054961E-01  0.15948334569E+00  0.21084837304E-01 0.  0.
         14    1    1    2    0    0  0.13435258063E-01  0.30083395437E-01 -0.20018003605E-01  0.38551748450E-01  0.00000000000E+00 0.  1.
     999901    1    1    2    0    0  0.11045971731E+00  0.65422998914E-01  0.42798058566E-01  0.84589490586E+00  0.83500000000E+00 0.  1.
        -11    1    3    3    0    0 -0.55108103834E-01 -0.29851097568E-01 -0.65654210540E-02  0.63018703643E-01  0.51100000000E-03 0.  1.
         11    1    3    3    0    0 -0.68786871542E-01 -0.65655296783E-01 -0.16214633907E-01  0.96464642051E-01  0.51100000000E-03 0. -1.
</event>
<event>
 8    1  0.5616615E+005  0.1043930E+01  0.7957747E-01            NaN
         13   -1    0    0    0    0  0.00000000000E+00  0.00000000000E+00  0.74505805969E-08  0.10566000000E+00  0.10566000000E+00 0. -1.
     999900   -1    0    0    0    0 -0.00000000000E+00 -0.00000000000E+00 -0.74505805969E-08  0.93827000000E+00  0.93827000000E+00 0. -1.
     999902    2    1    2    0    0  0.63459268181E-02  0.17957948885E-01 -0.11755914489E-01  0.10215478589E+01  0.10213026328E+01 0.  0.
     999903    2    3    3    0    0  0.15115413726E+00  0.16471846027E-01  0.72917222270E-01  0.16986354742E+00  0.20440364840E-01 0.  0.
         14    1    1    2    0    0 -0.63459268181E-02 -0.17957948885E-01  0.11755914489E-01  0.22382141113E-01  0.00000000000E+00 0. -1.
     999901    1    3    3    0    0 -0.14480821044E+00  0.14861028587E-02 -0.84673136759E-01  0.85168431147E+00  0.83500000000E+00 0.  1.
        -11    1    4    4    0    0  0.10036263947E+00  0.91088221082E-02  0.58615220726E-01  0.11658316886E+00  0.51100000000E-03 0. -1.
         11    1    4    4    0    0  0.50791497796E-01  0.73630239184E-02  0.14302001544E-01  0.53280378553E-01  0.51100000000E-03 0.  1.
</event>
<event>
 8    1  0.5616615E+005  0.1043930E+01  0.7957747E-01            NaN
         13   -1    0    0    0    0  0.00000000000E+00  0.00000000000E+00  0.74505805969E-08  0.10566000000E+00  0.10566000000E+00 0. -1.
     999900   -1    0    0    0    0 -0.00000000000E+00 -0.00000000000E+00 -0.74505805969E-08  0.93827000000E+00  0.93827000000E+00 0. -1.
     999902    2    1    2    0    0  0.57735985529E-02  0.11090857832E-01  0.19808933406E-01  0.10205048979E+01  0.10202360076E+01 0.  0.
     999903    2    3    3    0    0  0.67889436856E-01  0.99702001237E-02  0.15692120414E+00  0.17204487639E+00  0.16333850070E-01 0.  0.
         14    1    1    2    0    0 -0.57735985529E-02 -0.11090857832E-01 -0.19808933406E-01  0.23425102142E-01  0.00000000000E+00 0.  1.
     999901    1    3    3    0    0 -0.62115838303E-01  0.11206577085E-02 -0.13711227073E+00  0.84846002147E+00  0.83500000000E+00 0. -1.
        -11    1    4    4    0    0  0.13114111143E-01 -0.36996920867E-02  0.23487106188E-01  0.27158293590E-01  0.51100000000E-03 0.  1.
         11    1    4    4    0    0  0.54775325713E-01  0.13669892210E-01  0.13343409795E+00  0.14488658280E+00  0.51100000000E-03 0. -1.
</event>
<event>
 8    1  0.5616615E+005  0.1043930E+01  0.7957747E-01            NaN
         13   -1    0    0    0    0  0.00000000000E+00  0.00000000000E+00  0.74505805969E-08  0.10566000000E+00  0.10566000000E+00 0. -1.
     999900   -1    0    0    0    0 -0.00000000000E+00 -0.00000000000E+00 -0.74505805969E-08  0.93827000000E+00  0.93827000000E+00 0. -1.
     999902    2    1    2    0    0  0.63992754279E-02  0.21259564624E-01 -0.79332528955E-02  0.10203533947E+01  0.10200809742E+01 0.  0.
     999903    2    3    3    0    0  0.91427474559E-01  0.16621003431E-01  0.13890223391E+00  0.16827536364E+00  0.19685694386E-01 0.  0.
         14    1    1    2    0    0 -0.63992754279E-02 -0.21259564624E-01  0.79332528955E-02  0.23576605258E-01  0.00000000000E+00 0.  1.
     999901    1    3    3    0    0 -0.85028199131E-01  0.46385611927E-02 -0.14683548681E+00  0.85207803110E+00  0.83500000000E+00 0. -1.
        -11    1    4    4    0    0  0.51027806692E-01  0.14727959654E-01  0.92976449969E-01  0.10707768778E+00  0.51100000000E-03 0.  1.
         11    1    4    4    0    0  0.40399667866E-01  0.18930437769E-02  0.45925783944E-01  0.61197675857E-01  0.51100000000E-03 0. -1.
</event>
<event>
 8    1  0.5616615E+005  0.1043930E+01  0.7957747E-01            NaN
         13   -1    0    0    0    0  0.00000000000E+00  0.00000000000E+00  0.74505805969E-08  0.10566000000E+00  0.10566000000E+00 0.  1.
     999900   -1    0    0    0    0 -0.00000000000E+00 -0.00000000000E+00 -0.74505805969E-08  0.93827000000E+00  0.93827000000E+00 0.  1.
     999902    2    1    2    0    0 -0.39044628402E-02  0.21490384477E-01 -0.18099884653E-02  0.10220129401E+01  0.10217779075E+01 0.  0.
     999903    2    3    3    0    0  0.16367602941E+00  0.29115823539E-01 -0.28329887141E-01  0.16991571931E+00  0.20765244542E-01 0.  0.
         14    1    1    2    0    0  0.39044628402E-02 -0.21490384477E-01  0.18099884653E-02  0.21917059868E-01  0.00000000000E+00 0. -1.
     999901    1    3    3    0    0 -0.16758049225E+00 -0.76254390620E-02  0.26519898676E-01  0.85209722082E+00  0.83500000000E+00 0. -1.
        -11    1    4    4    0    0  0.71948693327E-01  0.49948860218E-02 -0.19166503550E-01  0.74626934395E-01  0.51100000000E-03 0. -1.
         11    1    4    4    0    0  0.91727336081E-01  0.24120937517E-01 -0.91633835910E-02  0.95288784917E-01  0.51100000000E-03 0.  1.
</event>
<event>
 8    1  0.5616615E+005  0.1043930E+01  0.7957747E-01            NaN
         13   -1    0    0    0    0  0.00000000000E+00  0.00000000000E+00  0.74505805969E-08  0.10566000000E+00  0.10566000000E+00 0.  1.
     999900   -1    0    0    0    0 -0.00000000000E+00 -0.00000000000E+00 -0.74505805969E-08  0.93827000000E+00  0.93827000000E+00 0.  1.
     999902    2    1    2    0    0 -0.11191337469E-01 -0.17909871808E-01 -0.89014429189E-02  0.10210117708E+01  0.10207545204E+01 0.  0.
     999903    2    3    3    0    0  0.11459024006E+00 -0.36416919121E-01  0.11455069862E+00  0.16741412129E+00  0.21178062660E-01 0.  0.
         14    1    1    2    0    0  0.11191337469E-01  0.17909871808E-01  0.89014429189E-02  0.22918229176E-01  0.00000000000E+00 0. -1.
     999901    1    3    3    0    0 -0.12578157752E+00  0.18507047313E-01 -0.12345214154E+00  0.85359764954E+00  0.83500000000E+00 0.  1.
        -11    1    4    4    0    0  0.30268536279E-01 -0.18376293875E-01  0.40002090516E-01  0.53425657055E-01  0.51100000000E-03 0. -1.
         11    1    4    4    0    0  0.84321703776E-01 -0.18040625246E-01  0.74548608102E-01  0.11398846423E+00  0.51100000000E-03 0.  1.
</event>
<event>
 8    1  0.5616615E+005  0.1043930E+01  0.7957747E-01            NaN
         13   -1    0    0    0    0  0.00000000000E+00  0.00000000000E+00  0.74505805969E-08  0.10566000000E+00  0.10566000000E+00 0. -1.
     999900   -1    0    0    0    0 -0.00000000000E+00 -0.00000000000E+00 -0.74505805969E-08  0.93827000000E+00  0.93827000000E+00 0. -1.
     999902    2    1    2    0    0  0.67609290120E-02  0.12331909152E-01 -0.14586424159E-01  0.10236679687E+01  0.10234674202E+01 0.  0.
     999903    2    3    3    0    0  0.33836151686E-01 -0.16141443313E+00  0.31639251839E-01  0.16910218871E+00  0.19874697125E-01 0.  0.
         14    1    1    2    0    0 -0.67609290120E-02 -0.12331909152E-01  0.14586424159E-01  0.20262031344E-01  0.00000000000E+00 0. -1.
     999901    1    3    3    0    0 -0.27075222674E-01  0.17374634228E+00 -0.46225675998E-01  0.85456577995E+00  0.83500000000E+00 0. -1.
        -11    1    4    4    0    0  0.76312142662E-02 -0.66112963699E-01  0.20483403306E-01  0.69634692017E-01  0.51100000000E-03 0.  1.
         11    1    4    4    0    0  0.26204937419E-01 -0.95301469428E-01  0.11155848533E-01  0.99467496690E-01  0.51100000000E-03 0. -1.
</event>
<event>
 8    1  0.5616615E+005  0.1043930E+01  0.7957747E-01            NaN
         13   -1    0    0    0    0  0.00000000000E+00  0.00000000000E+00  0.74505805969E-08  0.10566000000E+00  0.10566000000E+00 0.  1.
     999900   -1    0    0    0    0 -0.00000000000E+00 -0.00000000000E+00 -0.74505805969E-08  0.93827000000E+00  0.93827000000E+00 0.  1.
     999902    2    1    2    0    0 -0.20032881820E-01  0.11665733138E-01 -0.53138661672E-02  0.10201467526E+01  0.10198694789E+01 0.  0.
     999903    2    3    3    0    0 -0.15433681104E+00 -0.40435331181E-01 -0.58643441324E-01  0.17113490939E+00  0.19830198002E-01 0.  0.
         14    1    1    2    0    0  0.20032881820E-01 -0.11665733138E-01  0.53138661672E-02  0.23783247409E-01  0.00000000000E+00 0.  1.
     999901    1    3    3    0    0  0.13430392922E+00  0.52101064319E-01  0.53329575156E-01  0.84901184320E+00  0.83500000000E+00 0. -1.
        -11    1    4    4    0    0 -0.11369799190E+00 -0.32540644994E-01 -0.52050235270E-01  0.12921151284E+00  0.51100000000E-03 0. -1.
         11    1    4    4    0    0 -0.40638819143E-01 -0.78946861874E-02 -0.65932060532E-02  0.41923396551E-01  0.51100000000E-03 0.  1.
</event>
<event>
 8    1  0.5616615E+005  0.1043930E+01  0.7957747E-01            NaN
         13   -1    0    0    0    0  0.00000000000E+00  0.00000000000E+00  0.74505805969E-08  0.10566000000E+00  0.10566000000E+00 0. -1.
     999900   -1    0    0    0    0 -0.00000000000E+00 -0.00000000000E+00 -0.74505805969E-08  0.93827000000E+00  0.93827000000E+00 0.  1.
     999902    2    1    2    0    0  0.17214934392E-01  0.22098762633E-02 -0.18694503775E-01  0.10184207470E+01  0.10181012208E+01 0.  0.
     999903    2    3    3    0    0 -0.47304996044E-01 -0.81926098393E-01 -0.13781513987E+00  0.16832874629E+00  0.19796610878E-01 0.  0.
         14    1    1    2    0    0 -0.17214934392E-01 -0.22098762633E-02  0.18694503775E-01  0.25509253039E-01  0.00000000000E+00 0. -1.
     999901    1    3    3    0    0  0.64519930435E-01  0.84135974656E-01  0.11912063610E+00  0.85009200067E+00  0.83500000000E+00 0. -1.
        -11    1    4    4    0    0 -0.29397064062E-01 -0.39043018223E-01 -0.56835030928E-01  0.74960166148E-01  0.51100000000E-03 0. -1.
         11    1    4    4    0    0 -0.17907931982E-01 -0.42883080169E-01 -0.80980108944E-01  0.93368580145E-01  0.51100000000E-03 0.  1.
</event>
<event>
 8    1  0.5616615E+005  0.1043930E+01  0.7957747E-01            NaN
         13   -1    0    0    0    0  0.00000000000E+00  0.00000000000E+00  0.74505805969E-08  0.10566000000E+00  0.10566000000E+00 0.  1.
     999900   -1    0    0    0    0 -0.00000000000E+00 -0.00000000000E+00 -0.74505805969E-08  0.93827000000E+00  0.93827000000E+00 0.  1.
     999902    2    1    2    0    0 -0.20903831206E-01 -0.11682532338E-01  0.55621216382E-02  0.10193456774E+01  0.10190491750E+01 0.  0.
     999903    2    3    3    0    0 -0.14155087364E+00 -0.62527830083E-01  0.71418200192E-01  0.17158216306E+00  0.19836834382E-01 0.  0.
         14    1    1    2    0    0  0.20903831206E-01  0.11682532338E-01 -0.55621216382E-02  0.24584322607E-01  0.00000000000E+00 0. -1.
     999901    1    3    3    0    0  0.12064704244E+00  0.50845297745E-01 -0.65856078553E-01  0.84776351433E+00  0.83500000000E+00 0.  1.
        -11    1    4    4    0    0 -0.88387998395E-01 -0.49151685174E-01  0.48456496299E-01  0.11214552853E+00  0.51100000000E-03 0.  1.
         11    1    4    4    0    0 -0.53162875247E-01 -0.13376144909E-01  0.22961703893E-01  0.59436634526E-01  0.51100000000E-03 0. -1.
</event>
<event>
 8    1  0.5616615E+005  0.1043930E+01  0.7957747E-01            NaN
         13   -1    0    0    0    0  0.00000000000E+00  0.00000000000E+00  0.74505805969E-08  0.10566000000E+00  0.10566000000E+00 0.  1.
     999900   -1    0    0    0    0 -0.00000000000E+00 -0.00000000000E+00 -0.74505805969E-08  0.93827000000E+00  0.93827000000E+00 0. -1.
     999902    2    1    2    0    0 -0.47375704783E-02  0.22613216097E-01  0.12500338586E-01  0.10176609958E+01  0.10173218969E+01 0.  0.
     999903    2    3    3    0    0 -0.24705231938E-01 -0.40687303946E-01  0.15921528768E+00  0.16727523651E+00  0.19123068036E-01 0.  0.
         14    1    1    2    0    0  0.47375704783E-02 -0.22613216097E-01 -0.12500338586E-01  0.26269004189E-01  0.00000000000E+00 0.  1.
     999901    1    3    3    0    0  0.19967661460E-01  0.63300520043E-01 -0.14671494909E+00  0.85038575930E+00  0.83500000000E+00 0. -1.
        -11    1    4    4    0    0 -0.52400564861E-02 -0.38275793024E-02  0.49165697896E-01  0.49594712681E-01  0.51100000000E-03 0.  1.
         11    1    4    4    0    0 -0.19465175452E-01 -0.36859724643E-01  0.11004958978E+00  0.11768052383E+00  0.51100000000E-03 0. -1.
</event>
<event>
 8    1  0.5616615E+005  0.1043930E+01  0.7957747E-01            NaN
         13   -1    0    0    0    0  0.00000000000E+00  0.00000000000E+00  0.74505805969E-08  0.10566000000E+00  0.10566000000E+00 0.  1.
     999900   -1    0    0    0    0 -0.00000000000E+00 -0.00000000000E+00 -0.74505805969E-08  0.93827000000E+00  0.93827000000E+00 0.  1.
     999902    2    1    2    0    0 -0.19485345264E-01  0.13295794755E-01  0.24215623627E-02  0.10202166957E+01  0.10199410695E+01 0.  0.
     999903    2    3    3    0    0  0.89595117809E-01  0.79218099528E-02  0.13936537563E+00  0.16704260140E+00  0.19760631277E-01 0.  0.
         14    1    1    2    0    0  0.19485345264E-01 -0.13295794755E-01 -0.24215623627E-02  0.23713304335E-01  0.00000000000E+00 0. -1.
     999901    1    3    3    0    0 -0.10908046307E+00  0.53739848017E-02 -0.13694381327E+00  0.85317409427E+00  0.83500000000E+00 0.  1.
        -11    1    4    4    0    0  0.40002987291E-01  0.12438553398E-01  0.71420298446E-01  0.82801429661E-01  0.51100000000E-03 0. -1.
         11    1    4    4    0    0  0.49592130519E-01 -0.45167434455E-02  0.67945077185E-01  0.84241171736E-01  0.51100000000E-03 0.  1.
</event>
<event>
 8    1  0.5616615E+005  0.1043930E+01  0.7957747E-01            NaN
         13   -1    0    0    0    0  0.00000000000E+00  0.00000000000E+00  0.74505805969E-08  0.10566000000E+00  0.10566000000E+00 0. -1.
     999900   -1    0    0    0    0 -0.00000000000E+00 -0.00000000000E+00 -0.74505805969E-08  0.93827000000E+00  0.93827000000E+00 0. -1.
     999902    2    1    2    0    0 -0.88988986128E-02 -0.21686345342E-01  0.15818623756E-02  0.10204355270E+01  0.10201650232E+01 0.  0.
     999903    2    3    3    0    0  0.10784734646E+00  0.61464997721E-01  0.10906852516E+00  0.16643188872E+00  0.19865405118E-01 0.  0.
         14    1    1    2    0    0  0.88988986128E-02  0.21686345342E-01 -0.15818623756E-02  0.23494472954E-01  0.00000000000E+00 0. -1.
     999901    1    3    3    0    0 -0.11674624507E+00 -0.83151343063E-01 -0.10748666278E+00  0.85400363832E+00  0.83500000000E+00 0. -1.
        -11    1    4    4    0    0  0.77785932040E-01  0.39635134135E-01  0.65319203895E-01  0.10903419005E+00  0.51100000000E-03 0. -1.
         11    1    4    4    0    0  0.30061414422E-01  0.21829863586E-01  0.43749321262E-01  0.57397698675E-01  0.51100000000E-03 0.  1.
</event>
<event>
 8    1  0.5616615E+005  0.1043930E+01  0.7957747E-01            NaN
         13   -1    0    0    0    0  0.00000000000E+00  0.00000000000E+00  0.74505805969E-08  0.10566000000E+00  0.10566000000E+00 0. -1.
     999900   -1    0    0    0    0 -0.00000000000E+00 -0.00000000000E+00 -0.74505805969E-08  0.93827000000E+00  0.93827000000E+00 0. -1.
     999902    2    1    2    0    0 -0.88981314612E-02 -0.10223147346E-01 -0.19167343909E-01  0.10204549801E+01  0.10201849293E+01 0.  0.
     999903    2    3    3    0    0  0.12844488323E+00  0.26292808886E-01  0.98653212821E-01  0.16529230419E+00  0.19992238391E-01 0.  0.
         14    1    1    2    0    0  0.88981314612E-02  0.10223147346E-01  0.19167343909E-01  0.23475019865E-01  0.00000000000E+00 0.  1.
     999901    1    3    3    0    0 -0.13734301469E+00 -0.36515956232E-01 -0.11782055673E+00  0.85516267595E+00  0.83500000000E+00 0. -1.
        -11    1    4    4    0    0  0.46278465016E-02  0.33024323290E-02  0.91781184349E-02  0.10808422713E-01  0.51100000000E-03 0.  1.
         11    1    4    4    0    0  0.12381703673E+00  0.22990376557E-01  0.89475094386E-01  0.15448388147E+00  0.51100000000E-03 0. -1.
</event>
<event>
 8    1  0.5616615E+005  0.1043930E+01  0.7957747E-01            NaN
         13   -1    0    0    0    0  0.00000000000E+00  0.00000000000E+00  0.74505805969E-08  0.10566000000E+00  0.10566000000E+00 0.  1.
     999900   -1    0    0    0    0 -0.00000000000E+00 -0.00000000000E+00 -0.74505805969E-08  0.93827000000E+00  0.93827000000E+00 0. -1.
     999902    2    1    2    0    0 -0.15737708833E-01 -0.14671284386E-01  0.85779061668E-02  0.10207674755E+01  0.10205046480E+01 0.  0.
     999903    2    3    3    0    0  0.14233058536E+00  0.57412446864E-01 -0.57920532235E-01  0.16529760919E+00  0.20355023080E-01 0.  0.
         14    1    1    2    0    0  0.15737708833E-01  0.14671284386E-01 -0.85779061668E-02  0.23162524453E-01  0.00000000000E+00 0. -1.
     999901    1    3    3    0    0 -0.15806829419E+00 -0.72083731249E-01  0.66498438402E-01  0.85546986636E+00  0.83500000000E+00 0.  1.
        -11    1    4    4    0    0  0.12928043092E+00  0.49280259466E-01 -0.57715934640E-01  0.14991118712E+00  0.51100000000E-03 0. -1.
         11    1    4    4    0    0  0.13050154437E-01  0.81321873973E-02 -0.20459759509E-03  0.15386422062E-01  0.51100000000E-03 0.  1.
</event>
<event>
 8    1  0.5616615E+005  0.1043930E+01  0.7957747E-01            NaN
         13   -1    0    0    0    0  0.00000000000E+00  0.00000000000E+00  0.74505805969E-08  0.10566000000E+00  0.10566000000E+00 0.  1.
     999900   -1    0    0    0    0 -0.00000000000E+00 -0.00000000000E+00 -0.74505805969E-08  0.93827000000E+00  0.93827000000E+00 0.  1.
     999902    2    1    2    0    0 -0.56731176653E-02  0.64167900688E-03  0.22927641853E-01  0.10203022033E+01  0.10200285845E+01 0.  0.
     999903    2    3    3    0    0 -0.10832074670E+00 -0.40666198226E-01  0.12544101956E+00  0.17178769601E+00  0.19708862714E-01 0.  0.
         14    1    1    2    0    0  0.56731176653E-02 -0.64167900688E-03 -0.22927641853E-01  0.23627796700E-01  0.00000000000E+00 0. -1.
     999901    1    3    3    0    0  0.10264762904E+00  0.41307877233E-01 -0.10251337771E+00  0.84851450729E+00  0.83500000000E+00 0.  1.
        -11    1    4    4    0    0 -0.40160240455E-01 -0.24788045504E-01  0.45831640339E-01  0.65788239757E-01  0.51100000000E-03 0. -1.
         11    1    4    4    0    0 -0.68160506246E-01 -0.15878152722E-01  0.79609379220E-01  0.10599945626E+00  0.51100000000E-03 0.  1.
</event>
<event>
 8    1  0.5616615E+005  0.1043930E+01  0.7957747E-01            NaN
         13   -1    0    0    0    0  0.00000000000E+00  0.00000000000E+00  0.74505805969E-08  0.10566000000E+00  0.10566000000E+00 0. -1.
     999900   -1    0    0    0    0 -0.00000000000E+00 -0.00000000000E+00 -0.74505805969E-08  0.93827000000E+00  0.93827000000E+00 0.  1.
     999902    2    1    2    0    0  0.28064939918E-02 -0.21158411835E-01  0.92278731846E-02  0.10206768616E+01  0.10204119499E+01 0.  0.
     999903    2    3    3    0    0 -0.43148653037E-01 -0.15306567321E+00  0.63415977082E-01  0.17234157902E+00  0.19726305669E-01 0.  0.
         14    1    1    2    0    0 -0.28064939918E-02  0.21158411835E-01 -0.92278731846E-02  0.23253138356E-01  0.00000000000E+00 0. -1.
     999901    1    3    3    0    0  0.45955147029E-01  0.13190726137E+00 -0.54188103898E-01  0.84833528262E+00  0.83500000000E+00 0. -1.
        -11    1    4    4    0    0 -0.14128483339E-01 -0.85215106517E-01  0.36772893323E-01  0.93881495645E-01  0.51100000000E-03 0. -1.
         11    1    4    4    0    0 -0.29020169699E-01 -0.67850566693E-01  0.26643083760E-01  0.78460083374E-01  0.51100000000E-03 0.  1.
</event>
<event>
 8    1  0.5616615E+005  0.1043930E+01  0.7957747E-01            NaN
         13   -1    0    0    0    0  0.00000000000E+00  0.00000000000E+00  0.74505805969E-08  0.10566000000E+00  0.10566000000E+00 0.  1.
     999900   -1    0    0    0    0 -0.00000000000E+00 -0.00000000000E+00 -0.74505805969E-08  0.93827000000E+00  0.93827000000E+00 0. -1.
     999902    2    1    2    0    0  0.16696620654E-01 -0.21765061016E-01  0.14787097078E-01  0.10127666680E+01  0.10122870989E+01 0.  0.
     999903    2    3    3    0    0  0.80851250217E-02 -0.10633838904E+00  0.12585486607E+00  0.16613342095E+00  0.19688677333E-01 0.  0.
         14    1    1    2    0    0 -0.16696620654E-01  0.21765061016E-01 -0.14787097078E-01  0.31163332015E-01  0.00000000000E+00 0.  1.
     999901    1    3    3    0    0  0.86114956322E-02  0.84573328025E-01 -0.11106776899E+00  0.84663324703E+00  0.83500000000E+00 0. -1.
        -11    1    4    4    0    0  0.13722168150E-01 -0.51177131114E-01  0.60410692434E-01  0.80356141826E-01  0.51100000000E-03 0.  1.
         11    1    4    4    0    0 -0.56370431288E-02 -0.55161257927E-01  0.65444173632E-01  0.85777279128E-01  0.51100000000E-03 0. -1.
</event>
<event>
 8    1  0.5616615E+005  0.1043930E+01  0.7957747E-01            NaN
         13   -1    0    0    0    0  0.00000000000E+00  0.00000000000E+00  0.74505805969E-08  0.10566000000E+00  0.10566000000E+00 0. -1.
     999900   -1    0    0    0    0 -0.00000000000E+00 -0.00000000000E+00 -0.74505805969E-08  0.93827000000E+00  0.93827000000E+00 0. -1.
     999902    2    1    2    0    0 -0.12502082805E-02 -0.33392389863E-01 -0.92203162464E-02  0.10092654799E+01  0.10086700055E+01 0.  0.
     999903    2    3    3    0    0 -0.31426458549E-01 -0.73811006232E-01  0.13703797918E+00  0.16005363378E+00  0.20051708361E-01 0.  0.
         14    1    1    2    0    0  0.12502082805E-02  0.33392389863E-01  0.92203162464E-02  0.34664520092E-01  0.00000000000E+00 0. -1.
     999901    1    3    3    0    0  0.30176250269E-01  0.40418616369E-01 -0.14625829543E+00  0.84921184613E+00  0.83500000000E+00 0. -1.
        -11    1    4    4    0    0 -0.24100629524E-01 -0.47168969020E-01  0.71992285378E-01  0.89380659300E-01  0.51100000000E-03 0.  1.
         11    1    4    4    0    0 -0.73258290256E-02 -0.26642037212E-01  0.65045693805E-01  0.70672974476E-01  0.51100000000E-03 0. -1.
</event>
<event>
 8    1  0.5616615E+005  0.1043930E+01  0.7957747E-01            NaN
         13   -1    0    0    0    0  0.00000000000E+00  0.00000000000E+00  0.74505805969E-08  0.10566000000E+00  0.10566000000E+00 0.  1.
     999900   -1    0    0    0    0 -0.00000000000E+00 -0.00000000000E+00 -0.74505805969E-08  0.93827000000E+00  0.93827000000E+00 0.  1.
     999902    2    1    2    0    0 -0.12156794185E-01 -0.91534032375E-02 -0.18144757997E-01  0.10202486850E+01  0.10199738108E+01 0.  0.
     999903    2    3    3    0    0  0.12155242655E+00 -0.32513789450E-01 -0.11129634590E+00  0.16917519721E+00  0.20030772181E-01 0.  0.
         14    1    1    2    0    0  0.12156794185E-01  0.91534032375E-02  0.18144757997E-01  0.23681314965E-01  0.00000000000E+00 0.  1.
     999901    1    3    3    0    0 -0.13370922073E+00  0.23360386213E-01  0.93151587907E-01  0.85107348783E+00  0.83500000000E+00 0. -1.
        -11    1    4    4    0    0  0.10526405508E+00 -0.28868828530E-01 -0.86456898628E-01  0.13924434277E+00  0.51100000000E-03 0.  1.
         11    1    4    4    0    0  0.16288371466E-01 -0.36449609205E-02 -0.24839447276E-01  0.29930854433E-01  0.51100000000E-03 0. -1.
</event>
<event>
 8    1  0.5616615E+005  0.1043930E+01  0.7957747E-01            NaN
         13   -1    0    0    0    0  0.00000000000E+00  0.00000000000E+00  0.74505805969E-08  0.10566000000E+00  0.10566000000E+00 0.  1.
     999900   -1    0    0    0    0 -0.00000000000E+00 -0.00000000000E+00 -0.74505805969E-08  0.93827000000E+00  0.93827000000E+00 0. -1.
     999902    2    1    2    0    0  0.24105986307E-01  0.65239485629E-02  0.49095122838E-02  0.10184787959E+01  0.10181607407E+01 0.  0.
     999903    2    3    3    0    0  0.24502706877E-02  0.14517748550E+00  0.82795160952E-01  0.16819358043E+00  0.18749285330E-01 0.  0.
         14    1    1    2    0    0 -0.24105986307E-01 -0.65239485629E-02 -0.49095122838E-02  0.25451204128E-01  0.00000000000E+00 0. -1.
     999901    1    3    3    0    0  0.21655715620E-01 -0.13865353693E+00 -0.77885648669E-01  0.85028521544E+00  0.83500000000E+00 0. -1.
        -11    1    4    4    0    0 -0.69461493953E-02  0.98974170800E-01  0.57782581377E-01  0.11481821854E+00  0.51100000000E-03 0.  1.
         11    1    4    4    0    0  0.93964200830E-02  0.46203314698E-01  0.25012579576E-01  0.53375361895E-01  0.51100000000E-03 0. -1.
</event>
<event>
 8    1  0.5616615E+005  0.1043930E+01  0.7957747E-01            NaN
         13   -1    0    0    0    0  0.00000000000E+00  0.00000000000E+00  0.74505805969E-08  0.10566000000E+00  0.10566000000E+00 0. -1.
     999900   -1    0    0    0    0 -0.00000000000E+00 -0.00000000000E+00 -0.74505805969E-08  0.93827000000E+00  0.93827000000E+00 0. -1.
     999902    2    1    2    0    0 -0.43780679994E-02 -0.24160848348E-01  0.56590405904E-02  0.10187320078E+01  0.10184203282E+01 0.  0.
     999903    2    3    3    0    0  0.93659479964E-01 -0.11992996814E+00 -0.70994713068E-01  0.16909450679E+00  0.19935082029E-01 0.  0.
         14    1    1    2    0    0  0.43780679994E-02  0.24160848348E-01 -0.56590405904E-02  0.25197992236E-01  0.00000000000E+00 0. -1.
     999901    1    3    3    0    0 -0.98037547963E-01  0.95769119797E-01  0.76653753659E-01  0.84963750098E+00  0.83500000000E+00 0. -1.
        -11    1    4    4    0    0  0.29041890419E-01 -0.43223198429E-01 -0.33994300328E-01  0.62189628214E-01  0.51100000000E-03 0.  1.
         11    1    4    4    0    0  0.64617589544E-01 -0.76706769716E-01 -0.37000412740E-01  0.10690487857E+00  0.51100000000E-03 0. -1.
</event>
<event>
 7    1  0.5616615E+005  0.1043930E+01  0.7957747E-01            NaN
         13   -1    0    0    0    0  0.00000000000E+00  0.00000000000E+00  0.74505805969E-08  0.10566000000E+00  0.10566000000E+00 0. -1.
     999900   -1    0    0    0    0 -0.00000000000E+00 -0.00000000000E+00 -0.74505805969E-08  0.93827000000E+00  0.93827000000E+00 0. -1.
     999902    2    1    2    0    0 -0.67212327962E-02 -0.20140923423E-01  0.11936464214E-01  0.10195720250E+01  0.10192810227E+01 0.  0.
         14    1    1    2    0    0  0.67212327962E-02  0.20140923423E-01 -0.11936464214E-01  0.24357974969E-01  0.00000000000E+00 0.  1.
     999901    1    3    3    0    0  0.12788255249E-01 -0.14091889277E+00  0.11573101398E+00  0.85477502386E+00  0.83500000000E+00 0.  1.
        -11    1    3    3    0    0 -0.29916292680E-01  0.10193586092E+00 -0.82431649606E-01  0.13446613807E+00  0.51100000000E-03 0. -1.
         11    1    3    3    0    0  0.10406804635E-01  0.18842108422E-01 -0.21362900161E-01  0.30330863106E-01  0.51100000000E-03 0.  1.
</event>
<event>
 8    1  0.5616615E+005  0.1043930E+01  0.7957747E-01            NaN
         13   -1    0    0    0    0  0.00000000000E+00  0.00000000000E+00  0.74505805969E-08  0.10566000000E+00  0.10566000000E+00 0. -1.
     999900   -1    0    0    0    0 -0.00000000000E+00 -0.00000000000E+00 -0.74505805969E-08  0.93827000000E+00  0.93827000000E+00 0.  1.
     999902    2    1    2    0    0 -0.13512429196E-01 -0.46398160135E-02 -0.23202424319E-01  0.10166817683E+01  0.10163165609E+01 0.  0.
     999903    2    3    3    0    0 -0.16253164685E+00  0.16008040362E-02 -0.38799636716E-01  0.16832220681E+00  0.20195412705E-01 0.  0.
         14    1    1    2    0    0  0.13512429196E-01  0.46398160135E-02  0.23202424319E-01  0.27248231680E-01  0.00000000000E+00 0. -1.
     999901    1    3    3    0    0  0.14901921766E+00 -0.62406200497E-02  0.15597212396E-01  0.84835956151E+00  0.83500000000E+00 0. -1.
        -11    1    4    4    0    0 -0.28404862116E-01  0.75470888868E-02 -0.96141140947E-02  0.30927124879E-01  0.51100000000E-03 0. -1.
         11    1    4    4    0    0 -0.13412678474E+00 -0.59462848506E-02 -0.29185522621E-01  0.13739508193E+00  0.51100000000E-03 0.  1.
</event>
<event>
 8    1  0.5616615E+005  0.1043930E+01  0.7957747E-01            NaN
         13   -1    0    0    0    0  0.00000000000E+00  0.00000000000E+00  0.74505805969E-08  0.10566000000E+00  0.10566000000E+00 0. -1.
     999900   -1    0    0    0    0 -0.00000000000E+00 -0.00000000000E+00 -0.74505805969E-08  0.93827000000E+00  0.93827000000E+00 0.  1.
     999902    2    1    2    0    0  0.11630846744E-01 -0.16646983836E-01 -0.11388187112E-01  0.10206471850E+01  0.10203815888E+01 0.  0.
     999903    2    3    3    0    0 -0.61742489722E-02  0.15535265397E+00 -0.56317956287E-01  0.16674755335E+00  0.21458469245E-01 0.  0.
         14    1    1    2    0    0 -0.11630846744E-01  0.16646983836E-01  0.11388187112E-01  0.23282814961E-01  0.00000000000E+00 0.  1.
     999901    1    3    3    0    0  0.17805095716E-01 -0.17199963781E+00  0.44929769176E-01  0.85389963169E+00  0.83500000000E+00 0.  1.
        -11    1    4    4    0    0  0.44742241914E-02  0.11332919008E+00 -0.44246577691E-01  0.12174376684E+00  0.51100000000E-03 0. -1.
         11    1    4    4    0    0 -0.10648473164E-01  0.42023463891E-01 -0.12071378596E-01  0.45003786511E-01  0.51100000000E-03 0.  1.
</event>
<event>
 8    1  0.5616615E+005  0.1043930E+01  0.7957747E-01            NaN
         13   -1    0    0    0    0  0.00000000000E+00  0.00000000000E+00  0.74505805969E-08  0.10566000000E+00  0.10566000000E+00 0. -1.
     999900   -1    0    0    0    0 -0.00000000000E+00 -0.00000000000E+00 -0.74505805969E-08  0.93827000000E+00  0.93827000000E+00 0. -1.
     999902    2    1    2    0    0  0.73965462386E-03  0.19447786594E-01  0.12041424092E-01  0.10210442099E+01  0.10207876955E+01 0.  0.
     999903    2    3    3    0    0 -0.12065442193E-01 -0.59523335244E-01  0.15730066795E+00  0.16973600693E+00  0.19447611136E-01 0.  0.
         14    1    1    2    0    0 -0.73965462386E-03 -0.19447786594E-01 -0.12041424092E-01  0.22885790057E-01  0.00000000000E+00 0.  1.
     999901    1    3    3    0    0  0.12805096817E-01  0.78971121838E-01 -0.14525924385E+00  0.85130820301E+00  0.83500000000E+00 0. -1.
        -11    1    4    4    0    0 -0.11556854014E-01 -0.55023896163E-01  0.12434247843E+00  0.13646429235E+00  0.51100000000E-03 0.  1.
         11    1    4    4    0    0 -0.50858817962E-03 -0.44994390811E-02  0.32958189516E-01  0.33271714580E-01  0.51100000000E-03 0. -1.
</event>
<event>
 8    1  0.5616615E+005  0.1043930E+01  0.7957747E-01            NaN
         13   -1    0    0    0    0  0.00000000000E+00  0.00000000000E+00  0.74505805969E-08  0.10566000000E+00  0.10566000000E+00 0.  1.
     999900   -1    0    0    0    0 -0.00000000000E+00 -0.00000000000E+00 -0.74505805969E-08  0.93827000000E+00  0.93827000000E+00 0. -1.
     999902    2    1    2    0    0  0.70541282629E-02  0.38976283912E-02  0.22220541961E-01  0.10202930645E+01  0.10200192316E+01 0.  0.
     999903    2    3    3    0    0 -0.13333606826E+00 -0.82056717154E-01  0.58892641286E-01  0.16843192582E+00  0.19727100852E-01 0.  0.
         14    1    1    2    0    0 -0.70541282629E-02 -0.38976283912E-02 -0.22220541961E-01  0.23636935454E-01  0.00000000000E+00 0. -1.
     999901    1    3    3    0    0  0.14039019653E+00  0.85954345546E-01 -0.36672099325E-01  0.85186113872E+00  0.83500000000E+00 0. -1.
        -11    1    4    4    0    0 -0.12341824880E+00 -0.81289510491E-01  0.54071537973E-01  0.15736594610E+00  0.51100000000E-03 0.  1.
         11    1    4    4    0    0 -0.99178194699E-02 -0.76720666305E-03  0.48211033129E-02  0.11065979724E-01  0.51100000000E-03 0. -1.
</event>
<event>
 8    1  0.5616615E+005  0.1043930E+01  0.7957747E-01            NaN
         13   -1    0    0    0    0  0.00000000000E+00  0.00000000000E+00  0.74505805969E-08  0.10566000000E+00  0.10566000000E+00 0. -1.
     999900   -1    0    0    0    0 -0.00000000000E+00 -0.00000000000E+00 -0.74505805969E-08  0.93827000000E+00  0.93827000000E+00 0.  1.
     999902    2    1    2    0    0  0.12212149570E-01 -0.96727978043E-02  0.17959392376E-01  0.10201552363E+01  0.10198781627E+01 0.  0.
     999903    2    3    3    0    0 -0.28517264037E-02 -0.10806196853E+00  0.13156354998E+00  0.17160455785E+00  0.21298713691E-01 0.  0.
         14    1    1    2    0    0 -0.12212149570E-01  0.96727978043E-02 -0.17959392376E-01  0.23774763700E-01  0.00000000000E+00 0.  1.
     999901    1    3    3    0    0  0.15063875973E-01  0.98389170726E-01 -0.11360415760E+00  0.84855067845E+00  0.83500000000E+00 0.  1.
        -11    1    4    4    0    0  0.76998100305E-02 -0.33771853194E-01  0.49355198561E-01  0.60299435227E-01  0.51100000000E-03 0.  1.
         11    1    4    4    0    0 -0.10551536434E-01 -0.74290115336E-01  0.82208351419E-01  0.11130512262E+00  0.51100000000E-03 0. -1.
</event>
<event>
 8    1  0.5616615E+005  0.1043930E+01  0.7957747E-01            NaN
         13   -1    0    0    0    0  0.00000000000E+00  0.00000000000E+00  0.74505805969E-08  0.10566000000E+00  0.10566000000E+00 0. -1.
     999900   -1    0    0    0    0 -0.00000000000E+00 -0.00000000000E+00 -0.74505805969E-08  0.93827000000E+00  0.93827000000E+00 0. -1.
     999902    2    1    2    0    0  0.14953931062E-01  0.15840619551E-01 -0.49177212268E-02  0.10215977528E+01  0.10213536309E+01 0.  0.
     999903    2    3    3    0    0  0.53630085031E-01  0.14795595705E+00  0.67688130373E-01  0.17221743931E+00  0.17607162316E-01 0.  0.
         14    1    1    2    0    0 -0.14953931062E-01 -0.15840619551E-01  0.49177212268E-02  0.22332247178E-01  0.00000000000E+00 0. -1.
     999901    1    3    3    0    0 -0.38676153969E-01 -0.13211533750E+00 -0.72605851600E-01  0.84938031351E+00  0.83500000000E+00 0. -1.
        -11    1    4    4    0    0  0.16780877684E-01  0.49799696734E-01  0.31661418073E-01  0.61354006927E-01  0.51100000000E-03 0.  1.
         11    1    4    4    0    0  0.36849207347E-01  0.98156260312E-01  0.36026712300E-01  0.11086343239E+00  0.51100000000E-03 0. -1.
</event>
<event>
 8    1  0.5616615E+005  0.1043930E+01  0.7957747E-01            NaN
         13   -1    0    0    0    0  0.00000000000E+00  0.00000000000E+00  0.74505805969E-08  0.10566000000E+00  0.10566000000E+00 0.  1.
     999900   -1    0    0    0    0 -0.00000000000E+00 -0.00000000000E+00 -0.74505805969E-08  0.93827000000E+00  0.93827000000E+00 0. -1.
     999902    2    1    2    0    0 -0.15728535180E-01  0.80535067565E-02 -0.15280675779E-01  0.10205688176E+01  0.10203014097E+01 0.  0.
     999903    2    3    3    0    0  0.14213217817E+00  0.42842677680E-01 -0.75832223898E-01  0.16791309506E+00  0.20179945681E-01 0.  0.
         14    1    1    2    0    0  0.15728535180E-01 -0.80535067565E-02  0.15280675779E-01  0.23361182381E-01  0.00000000000E+00 0.  1.
     999901    1    3    3    0    0 -0.15786071335E+00 -0.34789170923E-01  0.60551548118E-01  0.85265572256E+00  0.83500000000E+00 0.  1.
        -11    1    4    4    0    0  0.73217996131E-01  0.29478141229E-01 -0.32120372115E-01  0.85216284791E-01  0.51100000000E-03 0. -1.
         11    1    4    4    0    0  0.68914182044E-01  0.13364536450E-01 -0.43711851783E-01  0.82696810268E-01  0.51100000000E-03 0.  1.
</event>
<event>
 8    1  0.5616615E+005  0.1043930E+01  0.7957747E-01            NaN
         13   -1    0    0    0    0  0.00000000000E+00  0.00000000000E+00  0.74505805969E-08  0.10566000000E+00  0.10566000000E+00 0.  1.
     999900   -1    0    0    0    0 -0.00000000000E+00 -0.00000000000E+00 -0.74505805969E-08  0.93827000000E+00  0.93827000000E+00 0.  1.
     999902    2    1    2    0    0  0.72886852445E-02 -0.21735181523E-02 -0.21656153263E-01  0.10209770462E+01  0.10207190068E+01 0.  0.
     999903    2    3    3    0    0  0.15761396248E-01 -0.89549807211E-01 -0.14499844197E+00  0.17236363428E+00  0.20422650794E-01 0.  0.
         14    1    1    2    0    0 -0.72886852445E-02  0.21735181523E-02  0.21656153263E-01  0.22952953795E-01  0.00000000000E+00 0.  1.
     999901    1    3    3    0    0 -0.84727110031E-02  0.87376289058E-01  0.12334228870E+00  0.84861341193E+00  0.83500000000E+00 0. -1.
        -11    1    4    4    0    0  0.17156621678E-01 -0.38917967977E-01 -0.65489073152E-01  0.78089933552E-01  0.51100000000E-03 0. -1.
         11    1    4    4    0    0 -0.13952254300E-02 -0.50631839234E-01 -0.79509368814E-01  0.94273700725E-01  0.51100000000E-03 0.  1.
</event>
<event>
 8    1  0.5616615E+005  0.1043930E+01  0.7957747E-01            NaN
         13   -1    0    0    0    0  0.00000000000E+00  0.00000000000E+00  0.74505805969E-08  0.10566000000E+00  0.10566000000E+00 0. -1.
     999900   -1    0    0    0    0 -0.00000000000E+00 -0.00000000000E+00 -0.74505805969E-08  0.93827000000E+00  0.93827000000E+00 0. -1.
     999902    2    1    2    0    0 -0.74182299278E-02 -0.13428543032E-01  0.17538282615E-01  0.10206287713E+01  0.10203627499E+01 0.  0.
     999903    2    3    3    0    0 -0.13462257891E+00 -0.97033509442E-01  0.38943789448E-01  0.17159759838E+00  0.19757943414E-01 0.  0.
         14    1    1    2    0    0  0.74182299278E-02  0.13428543032E-01 -0.17538282615E-01  0.23301228730E-01  0.00000000000E+00 0.  1.
     999901    1    3    3    0    0  0.12720434898E+00  0.83604966409E-01 -0.21405506833E-01  0.84903117289E+00  0.83500000000E+00 0. -1.
        -11    1    4    4    0    0 -0.93200713886E-01 -0.67767975481E-01  0.17606868167E-01  0.11657244313E+00  0.51100000000E-03 0. -1.
         11    1    4    4    0    0 -0.41421865024E-01 -0.29265533960E-01  0.21336921281E-01  0.55025155255E-01  0.51100000000E-03 0.  1.
</event>
<event>
 8    1  0.5616615E+005  0.1043930E+01  0.7957747E-01            NaN
         13   -1    0    0    0    0  0.00000000000E+00  0.00000000000E+00  0.74505805969E-08  0.10566000000E+00  0.10566000000E+00 0. -1.
     999900   -1    0    0    0    0 -0.00000000000E+00 -0.00000000000E+00 -0.74505805969E-08  0.93827000000E+00  0.93827000000E+00 0. -1.
     999902    2    1    2    0    0 -0.13993302766E-01  0.91417954444E-02 -0.13637833312E-01  0.10223574377E+01  0.10221298132E+01 0.  0.
     999903    2    3    3    0    0 -0.81521399776E-02 -0.66003388998E-01  0.15259654123E+00  0.16764123615E+00  0.19873975947E-01 0.  0.
         14    1    1    2    0    0  0.13993302766E-01 -0.91417954444E-02  0.13637833312E-01  0.21572562288E-01  0.00000000000E+00 0. -1.
     999901    1    3    3    0    0 -0.58411627882E-02  0.75145184442E-01 -0.16623437454E+00  0.85471620156E+00  0.83500000000E+00 0. -1.
        -11    1    4    4    0    0 -0.88507826687E-02 -0.54881649356E-01  0.10560873414E+00  0.11934738220E+00  0.51100000000E-03 0. -1.
         11    1    4    4    0    0  0.69864269114E-03 -0.11121739642E-01  0.46987807081E-01  0.48293853952E-01  0.51100000000E-03 0.  1.
</event>
<event>
 8    1  0.5616615E+005  0.1043930E+01  0.7957747E-01            NaN
         13   -1    0    0    0    0  0.00000000000E+00  0.00000000000E+00  0.74505805969E-08  0.10566000000E+00  0.10566000000E+00 0.  1.
     999900   -1    0    0    0    0 -0.00000000000E+00 -0.00000000000E+00 -0.74505805969E-08  0.93827000000E+00  0.93827000000E+00 0.  1.
     999902    2    1    2    0    0 -0.20570720754E-01 -0.77769391813E-02 -0.77877981663E-02  0.10206000807E+01  0.10203333963E+01 0.  0.
     999903    2    3    3    0    0  0.11346812778E+00 -0.11726824330E+00 -0.32601667964E-01  0.16749077541E+00  0.19063949894E-01 0.  0.
         14    1    1    2    0    0  0.20570720754E-01  0.77769391813E-02  0.77877981663E-02  0.23329919324E-01  0.00000000000E+00 0. -1.
     999901    1    3    3    0    0 -0.13403884853E+00  0.10949130412E+00  0.24813869798E-01  0.85310930526E+00  0.83500000000E+00 0.  1.
        -11    1    4    4    0    0  0.41256587529E-01 -0.46230772919E-01 -0.21492349491E-01  0.65586375009E-01  0.51100000000E-03 0. -1.
         11    1    4    4    0    0  0.72211540247E-01 -0.71037470384E-01 -0.11109318474E-01  0.10190440040E+00  0.51100000000E-03 0.  1.
</event>
<event>
 8    1  0.5616615E+005  0.1043930E+01  0.7957747E-01            NaN
         13   -1    0    0    0    0  0.00000000000E+00  0.00000000000E+00  0.74505805969E-08  0.10566000000E+00  0.10566000000E+00 0. -1.
     999900   -1    0    0    0    0 -0.00000000000E+00 -0.00000000000E+00 -0.74505805969E-08  0.93827000000E+00  0.93827000000E+00 0.  1.
     999902    2    1    2    0    0 -0.22063301148E-01  0.45724821909E-02 -0.10071060119E-01  0.10192495806E+01  0.10189507272E+01 0.  0.
     999903    2    3    3    0    0  0.62340296881E-01  0.13424026136E+00  0.72387059384E-01  0.16604266442E+00  0.20579593165E-01 0.  0.
         14    1    1    2    0    0  0.22063301148E-01 -0.45724821909E-02  0.10071060119E-01  0.24680419422E-01  0.00000000000E+00 0.  1.
     999901    1    3    3    0    0 -0.84403598029E-01 -0.12966777917E+00 -0.82458119502E-01  0.85320691616E+00  0.83500000000E+00 0.  1.
        -11    1    4    4    0    0  0.53848395096E-01  0.12537375274E+00  0.61673064244E-01  0.14973995961E+00  0.51100000000E-03 0. -1.
         11    1    4    4    0    0  0.84919017847E-02  0.88665086185E-02  0.10713995139E-01  0.16302704802E-01  0.51100000000E-03 0.  1.
</event>
<event>
 8    1  0.5616615E+005  0.1043930E+01  0.7957747E-01            NaN
         13   -1    0    0    0    0  0.00000000000E+00  0.00000000000E+00  0.74505805969E-08  0.10566000000E+00  0.10566000000E+00 0. -1.
     999900   -1    0    0    0    0 -0.00000000000E+00 -0.00000000000E+00 -0.74505805969E-08  0.93827000000E+00  0.93827000000E+00 0.  1.
     999902    2    1    2    0    0 -0.22904592046E-01 -0.41603262980E-02 -0.86901499425E-03  0.10206344245E+01  0.10203685337E+01 0.  0.
     999903    2    3    3    0    0 -0.54192813568E-02 -0.16056639802E+00 -0.50356150902E-01  0.16949250213E+00  0.19519978528E-01 0.  0.
         14    1    1    2    0    0  0.22904592046E-01  0.41603262980E-02  0.86901499425E-03  0.23295575519E-01  0.00000000000E+00 0. -1.
     999901    1    3    3    0    0 -0.17485310689E-01  0.15640607172E+00  0.49487135907E-01  0.85114192235E+00  0.83500000000E+00 0.  1.
        -11    1    4    4    0    0 -0.81034598368E-02 -0.50003289385E-01 -0.22569571113E-01  0.55458467991E-01  0.51100000000E-03 0. -1.
         11    1    4    4    0    0  0.26841784800E-02 -0.11056310863E+00 -0.27786579788E-01  0.11403403414E+00  0.51100000000E-03 0.  1.
</event>
<event>
 8    1  0.5616615E+005  0.1043930E+01  0.7957747E-01            NaN
         13   -1    0    0    0    0  0.00000000000E+00  0.00000000000E+00  0.74505805969E-08  0.10566000000E+00  0.10566000000E+00 0. -1.
     999900   -1    0    0    0    0 -0.00000000000E+00 -0.00000000000E+00 -0.74505805969E-08  0.93827000000E+00  0.93827000000E+00 0. -1.
     999902    2    1    2    0    0  0.82247356998E-02 -0.14845876449E-01  0.16267457502E-01  0.10204209273E+01  0.10201500833E+01 0.  0.
     999903    2    3    3    0    0 -0.92930386634E-02 -0.71105994389E-01  0.15549497228E+00  0.17184484106E+00  0.14475496216E-01 0.  0.
         14    1    1    2    0    0 -0.82247356998E-02  0.14845876449E-01 -0.16267457502E-01  0.23509072683E-01  0.00000000000E+00 0.  1.
     999901    1    3    3    0    0  0.17517774363E-01  0.56260117940E-01 -0.13922751478E+00  0.84857608625E+00  0.83500000000E+00 0. -1.
        -11    1    4    4    0    0 -0.62271614166E-02 -0.18403619801E-01  0.54885699751E-01  0.58225182861E-01  0.51100000000E-03 0.  1.
         11    1    4    4    0    0 -0.30658772468E-02 -0.52702374588E-01  0.10060927253E+00  0.11361965820E+00  0.51100000000E-03 0. -1.
</event>
<event>
 8    1  0.5616615E+005  0.1043930E+01  0.7957747E-01            NaN
         13   -1    0    0    0    0  0.00000000000E+00  0.00000000000E+00  0.74505805969E-08  0.10566000000E+00  0.10566000000E+00 0. -1.
     999900   -1    0    0    0    0 -0.00000000000E+00 -0.00000000000E+00 -0.74505805969E-08  0.93827000000E+00  0.93827000000E+00 0. -1.
     999902    2    1    2    0    0 -0.10334351222E-01  0.20863186678E-01 -0.58620509852E-02  0.10199209389E+01  0.10196383116E+01 0.  0.
     999903    2    3    3    0    0 -0.14680127974E+00  0.38073517578E-01  0.74087958056E-01  0.16989951445E+00  0.19406468202E-01 0.  0.
         14    1    1    2    0    0  0.10334351222E-01 -0.20863186678E-01  0.58620509852E-02  0.24009061108E-01  0.00000000000E+00 0.  1.
     999901    1    3    3    0    0  0.13646692851E+00 -0.17210330900E-01 -0.79950009041E-01  0.85002142444E+00  0.83500000000E+00 0. -1.
        -11    1    4    4    0    0 -0.36464103149E-01  0.89838019644E-02  0.93437252242E-02  0.38702788508E-01  0.51100000000E-03 0.  1.
         11    1    4    4    0    0 -0.11033717659E+00  0.29089715613E-01  0.64744232832E-01  0.13119672594E+00  0.51100000000E-03 0. -1.
</event>
<event>
 8    1  0.5616615E+005  0.1043930E+01  0.7957747E-01            NaN
         13   -1    0    0    0    0  0.00000000000E+00  0.00000000000E+00  0.74505805969E-08  0.10566000000E+00  0.10566000000E+00 0.  1.
     999900   -1    0    0    0    0 -0.00000000000E+00 -0.00000000000E+00 -0.74505805969E-08  0.93827000000E+00  0.93827000000E+00 0. -1.
     999902    2    1    2    0    0 -0.20296935277E-01  0.82524792937E-02  0.75958768179E-02  0.10207402104E+01  0.10204767566E+01 0.  0.
     999903    2    3    3    0    0 -0.14979672907E+00  0.36668422533E-01 -0.72760608436E-01  0.17147003719E+00  0.18006506109E-01 0.  0.
         14    1    1    2    0    0  0.20296935277E-01 -0.82524792937E-02 -0.75958768179E-02  0.23189789580E-01  0.00000000000E+00 0. -1.
     999901    1    3    3    0    0  0.12949979379E+00 -0.28415943239E-01  0.80356485254E-01  0.84927017323E+00  0.83500000000E+00 0. -1.
        -11    1    4    4    0    0 -0.37682036072E-01  0.16725811186E-01 -0.15927438348E-01  0.44199920992E-01  0.51100000000E-03 0. -1.
         11    1    4    4    0    0 -0.11211469300E+00  0.19942611346E-01 -0.56833170088E-01  0.12727011619E+00  0.51100000000E-03 0.  1.
</event>
<event>
 8    1  0.5616615E+005  0.1043930E+01  0.7957747E-01            NaN
         13   -1    0    0    0    0  0.00000000000E+00  0.00000000000E+00  0.74505805969E-08  0.10566000000E+00  0.10566000000E+00 0.  1.
     999900   -1    0    0    0    0 -0.00000000000E+00 -0.00000000000E+00 -0.74505805969E-08  0.93827000000E+00  0.93827000000E+00 0.  1.
     999902    2    1    2    0    0 -0.27587729577E-01 -0.21378951917E-02 -0.17233487746E-01  0.10113317406E+01  0.10108062341E+01 0.  0.
     999903    2    3    3    0    0 -0.15289937163E+00  0.51928528178E-01 -0.28787182326E-01  0.16517296489E+00  0.19458072386E-01 0.  0.
         14    1    1    2    0    0  0.27587729577E-01  0.21378951917E-02  0.17233487746E-01  0.32598259447E-01  0.00000000000E+00 0. -1.
     999901    1    3    3    0    0  0.12531164205E+00 -0.54066423370E-01  0.11553694580E-01  0.84615877566E+00  0.83500000000E+00 0.  1.
        -11    1    4    4    0    0 -0.87595146379E-01  0.39600718642E-01 -0.19097305716E-01  0.98010687135E-01  0.51100000000E-03 0. -1.
         11    1    4    4    0    0 -0.65304225253E-01  0.12327809536E-01 -0.96898766101E-02  0.67162277757E-01  0.51100000000E-03 0.  1.
</event>
<event>
 8    1  0.5616615E+005  0.1043930E+01  0.7957747E-01            NaN
         13   -1    0    0    0    0  0.00000000000E+00  0.00000000000E+00  0.74505805969E-08  0.10566000000E+00  0.10566000000E+00 0.  1.
     999900   -1    0    0    0    0 -0.00000000000E+00 -0.00000000000E+00 -0.74505805969E-08  0.93827000000E+00  0.93827000000E+00 0. -1.
     999902    2    1    2    0    0 -0.11789984529E-01 -0.17372513743E-01  0.11674269716E-01  0.10199071662E+01  0.10196242108E+01 0.  0.
     999903    2    3    3    0    0 -0.16572751509E-01  0.14842231042E-01  0.16715082419E+00  0.16993150562E+00  0.21032609434E-01 0.  0.
         14    1    1    2    0    0  0.11789984529E-01  0.17372513743E-01 -0.11674269716E-01  0.24022833770E-01  0.00000000000E+00 0. -1.
     999901    1    3    3    0    0  0.47827669794E-02 -0.32214744784E-01 -0.15547655447E+00  0.84997566061E+00  0.83500000000E+00 0. -1.
        -11    1    4    4    0    0 -0.32003060013E-02  0.54666804826E-02  0.11728175439E+00  0.11745381045E+00  0.51100000000E-03 0. -1.
         11    1    4    4    0    0 -0.13372445507E-01  0.93755505590E-02  0.49869069798E-01  0.52477695173E-01  0.51100000000E-03 0.  1.
</event>
<event>
 8    1  0.5616615E+005  0.1043930E+01  0.7957747E-01            NaN
         13   -1    0    0    0    0  0.00000000000E+00  0.00000000000E+00  0.74505805969E-08  0.10566000000E+00  0.10566000000E+00 0.  1.
     999900   -1    0    0    0    0 -0.00000000000E+00 -0.00000000000E+00 -0.74505805969E-08  0.93827000000E+00  0.93827000000E+00 0. -1.
     999902    2    1    2    0    0 -0.19581017902E-01  0.92950876330E-02  0.84607020818E-02  0.10206620307E+01  0.10203967770E+01 0.  0.
     999903    2    3    3    0    0  0.96231163950E-01  0.13536419123E+00  0.18159949244E-01  0.16823903960E+00  0.19765867212E-01 0.  0.
         14    1    1    2    0    0  0.19581017902E-01 -0.92950876330E-02 -0.84607020818E-02  0.23267969312E-01  0.00000000000E+00 0. -1.
     999901    1    3    3    0    0 -0.11581218185E+00 -0.12606910359E+00 -0.96992471618E-02  0.85242299109E+00  0.83500000000E+00 0.  1.
        -11    1    4    4    0    0  0.53875455059E-01  0.92103409907E-01  0.12268301403E-01  0.10740751889E+00  0.51100000000E-03 0.  1.
         11    1    4    4    0    0  0.42355708891E-01  0.43260781319E-01  0.58916478405E-02  0.60831520705E-01  0.51100000000E-03 0. -1.
</event>
<event>
 8    1  0.5616615E+005  0.1043930E+01  0.7957747E-01            NaN
         13   -1    0    0    0    0  0.00000000000E+00  0.00000000000E+00  0.74505805969E-08  0.10566000000E+00  0.10566000000E+00 0.  1.
     999900   -1    0    0    0    0 -0.00000000000E+00 -0.00000000000E+00 -0.74505805969E-08  0.93827000000E+00  0.93827000000E+00 0.  1.
     999902    2    1    2    0    0 -0.10653432911E-02  0.11651076227E-01 -0.13868094395E-01  0.10257859493E+01  0.10256254712E+01 0.  0.
     999903    2    3    3    0    0 -0.24256555798E-01 -0.15497696946E+00 -0.68427496938E-01  0.17226121835E+00  0.19630676199E-01 0.  0.
         14    1    1    2    0    0  0.10653432911E-02 -0.11651076227E-01  0.13868094395E-01  0.18144050698E-01  0.00000000000E+00 0.  1.
     999901    1    3    3    0    0  0.23191212507E-01  0.16662804568E+00  0.54559402543E-01  0.85352473095E+00  0.83500000000E+00 0.  1.
        -11    1    4    4    0    0 -0.11680464429E-01 -0.11395996183E+00 -0.42842534410E-01  0.12230719531E+00  0.51100000000E-03 0.  1.
         11    1    4    4    0    0 -0.12576091369E-01 -0.41017007628E-01 -0.25584962528E-01  0.49954023035E-01  0.51100000000E-03 0. -1.
</event>
<event>
 8    1  0.5616615E+005  0.1043930E+01  0.7957747E-01            NaN
         13   -1    0    0    0    0  0.00000000000E+00  0.00000000000E+00  0.74505805969E-08  0.10566000000E+00  0.10566000000E+00 0. -1.
     999900   -1    0    0    0    0 -0.00000000000E+00 -0.00000000000E+00 -0.74505805969E-08  0.93827000000E+00  0.93827000000E+00 0. -1.
     999902    2    1    2    0    0 -0.36204543438E-02 -0.11302318121E-01  0.19796921150E-01  0.10208482286E+01  0.10205872514E+01 0.  0.
     999903    2    3    3    0    0  0.13078652640E+00  0.16952376356E-01 -0.99259886692E-01  0.16629390748E+00  0.20214846147E-01 0.  0.
         14    1    1    2    0    0  0.36204543438E-02  0.11302318121E-01 -0.19796921150E-01  0.23081771414E-01  0.00000000000E+00 0.  1.
     999901    1    3    3    0    0 -0.13440698075E+00 -0.28254694477E-01  0.11905680784E+00  0.85455432111E+00  0.83500000000E+00 0.  1.
        -11    1    4    4    0    0  0.11376480106E+00  0.19815496042E-01 -0.80328955347E-01  0.14067013198E+00  0.51100000000E-03 0. -1.
         11    1    4    4    0    0  0.17021725344E-01 -0.28631196860E-02 -0.18930931345E-01  0.25623775495E-01  0.51100000000E-03 0.  1.
</event>
<event>
 8    1  0.5616615E+005  0.1043930E+01  0.7957747E-01            NaN
         13   -1    0    0    0    0  0.00000000000E+00  0.00000000000E+00  0.74505805969E-08  0.10566000000E+00  0.10566000000E+00 0.  1.
     999900   -1    0    0    0    0 -0.00000000000E+00 -0.00000000000E+00 -0.74505805969E-08  0.93827000000E+00  0.93827000000E+00 0. -1.
     999902    2    1    2    0    0 -0.24167083570E-02  0.17712748312E-01 -0.16001144231E-01  0.10199379482E+01  0.10196557260E+01 0.  0.
     999903    2    3    3    0    0  0.59973232027E-02 -0.15150781717E+00 -0.66166358445E-01  0.16644632879E+00  0.18325032914E-01 0.  0.
         14    1    1    2    0    0  0.24167083570E-02 -0.17712748312E-01  0.16001144231E-01  0.23992051783E-01  0.00000000000E+00 0. -1.
     999901    1    3    3    0    0 -0.84140315597E-02  0.16922056548E+00  0.50165214214E-01  0.85349161942E+00  0.83500000000E+00 0.  1.
        -11    1    4    4    0    0  0.11239231114E-01 -0.10404255537E+00 -0.50409768956E-01  0.11615756355E+00  0.51100000000E-03 0.  1.
         11    1    4    4    0    0 -0.52419079115E-02 -0.47465261801E-01 -0.15756589489E-01  0.50288765243E-01  0.51100000000E-03 0. -1.
</event>
<event>
 8    1  0.5616615E+005  0.1043930E+01  0.7957747E-01            NaN
         13   -1    0    0    0    0  0.00000000000E+00  0.00000000000E+00  0.74505805969E-08  0.10566000000E+00  0.10566000000E+00 0.  1.
     999900   -1    0    0    0    0 -0.00000000000E+00 -0.00000000000E+00 -0.74505805969E-08  0.93827000000E+00  0.93827000000E+00 0. -1.
     999902    2    1    2    0    0 -0.42727968200E-02 -0.21922299747E-01  0.81184752290E-02  0.10201654537E+01  0.10198886211E+01 0.  0.
     999903    2    3    3    0    0  0.80844264992E-01  0.79004133398E-01  0.12122716057E+00  0.16725887397E+00  0.22406654916E-01 0.  0.
         14    1    1    2    0    0  0.42727968200E-02  0.21922299747E-01 -0.81184752290E-02  0.23764546259E-01  0.00000000000E+00 0.  1.
     999901    1    3    3    0    0 -0.85117061812E-01 -0.10092643315E+00 -0.11310868534E+00  0.85290657977E+00  0.83500000000E+00 0. -1.
        -11    1    4    4    0    0  0.69113270528E-01  0.71636737143E-01  0.95031705568E-01  0.13762177319E+00  0.51100000000E-03 0. -1.
         11    1    4    4    0    0  0.11730994465E-01  0.73673962556E-02  0.26195455005E-01  0.29637100780E-01  0.51100000000E-03 0.  1.
</event>
<event>
 8    1  0.5616615E+005  0.1043930E+01  0.7957747E-01            NaN
         13   -1    0    0    0    0  0.00000000000E+00  0.00000000000E+00  0.74505805969E-08  0.10566000000E+00  0.10566000000E+00 0.  1.
     999900   -1    0    0    0    0 -0.00000000000E+00 -0.00000000000E+00 -0.74505805969E-08  0.93827000000E+00  0.93827000000E+00 0. -1.
     999902    2    1    2    0    0 -0.12619538229E-01  0.95884277828E-02 -0.11661272905E-01  0.10242532122E+01  0.10240641907E+01 0.  0.
     999903    2    3    3    0    0 -0.86283012054E-01 -0.80065503649E-01 -0.12568576229E+00  0.17355307762E+00  0.21645250390E-01 0.  0.
         14    1    1    2    0    0  0.12619538229E-01 -0.95884277828E-02  0.11661272905E-01  0.19676787803E-01  0.00000000000E+00 0.  1.
     999901    1    3    3    0    0  0.73663473825E-01  0.89653931431E-01  0.11402448938E+00  0.85070013458E+00  0.83500000000E+00 0.  1.
        -11    1    4    4    0    0 -0.28688665625E-01 -0.36050202052E-01 -0.60640914725E-01  0.76159295315E-01  0.51100000000E-03 0.  1.
         11    1    4    4    0    0 -0.57594346429E-01 -0.44015301597E-01 -0.65044847564E-01  0.97393782301E-01  0.51100000000E-03 0. -1.
</event>
<event>
 8    1  0.5616615E+005  0.1043930E+01  0.7957747E-01            NaN
         13   -1    0    0    0    0  0.00000000000E+00  0.00000000000E+00  0.74505805969E-08  0.10566000000E+00  0.10566000000E+00 0.  1.
     999900   -1    0    0    0    0 -0.00000000000E+00 -0.00000000000E+00 -0.74505805969E-08  0.93827000000E+00  0.93827000000E+00 0. -1.
     999902    2    1    2    0    0  0.15642678988E-01  0.15882128971E-01  0.13950757525E-01  0.10176324894E+01  0.10172926445E+01 0.  0.
     999903    2    3    3    0    0  0.11477720299E+00  0.97272996210E-01 -0.72710961596E-01  0.16840496946E+00  0.20916684336E-01 0.  0.
         14    1    1    2    0    0 -0.15642678988E-01 -0.15882128971E-01 -0.13950757525E-01  0.26297510569E-01  0.00000000000E+00 0. -1.
     999901    1    3    3    0    0 -0.99134524003E-01 -0.81390867239E-01  0.86661719121E-01  0.84922751997E+00  0.83500000000E+00 0.  1.
        -11    1    4    4    0    0  0.50082564392E-01  0.41310406465E-01 -0.42900487034E-01  0.77817259314E-01  0.51100000000E-03 0.  1.
         11    1    4    4    0    0  0.64694638599E-01  0.55962589745E-01 -0.29810474562E-01  0.90587710144E-01  0.51100000000E-03 0. -1.
</event>
<event>
 8    1  0.5616615E+005  0.1043930E+01  0.7957747E-01            NaN
         13   -1    0    0    0    0  0.00000000000E+00  0.00000000000E+00  0.74505805969E-08  0.10566000000E+00  0.10566000000E+00 0. -1.
     999900   -1    0    0    0    0 -0.00000000000E+00 -0.00000000000E+00 -0.74505805969E-08  0.93827000000E+00  0.93827000000E+00 0.  1.
     999902    2    1    2    0    0  0.14496934826E-01 -0.72669712683E-02  0.16757196785E-01  0.10206110456E+01  0.10203446147E+01 0.  0.
     999903    2    3    3    0    0 -0.74145813729E-02 -0.80873827229E-01  0.14987871045E+00  0.17158547401E+00  0.19554925168E-01 0.  0.
         14    1    1    2    0    0 -0.14496934826E-01  0.72669712683E-02 -0.16757196785E-01  0.23318954411E-01  0.00000000000E+00 0.  1.
     999901    1    3    3    0    0  0.21911516199E-01  0.73606855961E-01 -0.13312151367E+00  0.84902557157E+00  0.83500000000E+00 0.  1.
        -11    1    4    4    0    0 -0.13765263419E-01 -0.63770018413E-01  0.11930591905E+00  0.13597889971E+00  0.51100000000E-03 0.  1.
         11    1    4    4    0    0  0.63506820458E-02 -0.17103808816E-01  0.30572791401E-01  0.35606574302E-01  0.51100000000E-03 0. -1.
</event>
<event>
 8    1  0.5616615E+005  0.1043930E+01  0.7957747E-01            NaN
         13   -1    0    0    0    0  0.00000000000E+00  0.00000000000E+00  0.74505805969E-08  0.10566000000E+00  0.10566000000E+00 0.  1.
     999900   -1    0    0    0    0 -0.00000000000E+00 -0.00000000000E+00 -0.74505805969E-08  0.93827000000E+00  0.93827000000E+00 0.  1.
     999902    2    1    2    0    0 -0.22231053362E-01  0.70431277745E-02  0.37417191485E-02  0.10203116630E+01  0.10200382658E+01 0.  0.
     999903    2    3    3    0    0  0.15361622916E+00 -0.43805647364E-01  0.35425560763E-01  0.16489554754E+00  0.20461931451E-01 0.  0.
         14    1    1    2    0    0  0.22231053362E-01 -0.70431277745E-02 -0.37417191485E-02  0.23618337042E-01  0.00000000000E+00 0. -1.
     999901    1    3    3    0    0 -0.17584728252E+00  0.50848775138E-01 -0.31683841615E-01  0.85541611542E+00  0.83500000000E+00 0. -1.
        -11    1    4    4    0    0  0.72450183034E-01 -0.27935750557E-01  0.95414831879E-02  0.78235134073E-01  0.51100000000E-03 0.  1.
         11    1    4    4    0    0  0.81166046128E-01 -0.15869896806E-01  0.25884077575E-01  0.86660413463E-01  0.51100000000E-03 0. -1.
</event>
<event>
 8    1  0.5977450E+005  0.1043930E+01  0.7957747E-01            NaN
         13   -1    0    0    0    0  0.00000000000E+00  0.00000000000E+00  0.74505805969E-08  0.10566000000E+00  0.10566000000E+00 0.  1.
     999900   -1    0    0    0    0 -0.00000000000E+00 -0.00000000000E+00 -0.74505805969E-08  0.93827000000E+00  0.93827000000E+00 0. -1.
     999902    2    1    2    0    0  0.15193980058E-01  0.13945974202E-01  0.14842625161E-01  0.10185203414E+01  0.10182033369E+01 0.  0.
     999903    2    3    3    0    0 -0.13827200453E-01 -0.15003858666E+00  0.65321584591E-01  0.16558054845E+00  0.21148041306E-01 0.  0.
         14    1    1    2    0    0 -0.15193980058E-01 -0.13945974202E-01 -0.14842625161E-01  0.25409658559E-01  0.00000000000E+00 0. -1.
     999901    1    3    3    0    0  0.29021180510E-01  0.16398456087E+00 -0.50478959431E-01  0.85293979299E+00  0.83500000000E+00 0.  1.
        -11    1    4    4    0    0 -0.89061706712E-02 -0.10353186186E+00  0.55437511073E-01  0.11777837259E+00  0.51100000000E-03 0.  1.
         11    1    4    4    0    0 -0.49210297816E-02 -0.46506724809E-01  0.98840735183E-02  0.47802175859E-01  0.51100000000E-03 0. -1.
</event>
<event>
 8    1  0.5616615E+005  0.1043930E+01  0.7957747E-01            NaN
         13   -1    0    0    0    0  0.00000000000E+00  0.00000000000E+00  0.74505805969E-08  0.10566000000E+00  0.10566000000E+00 0. -1.
     999900   -1    0    0    0    0 -0.00000000000E+00 -0.00000000000E+00 -0.74505805969E-08  0.93827000000E+00  0.93827000000E+00 0.  1.
     999902    2    1    2    0    0 -0.87849876275E-02  0.20783403767E-01  0.31322587511E-02  0.10211498129E+01  0.10208956869E+01 0.  0.
     999903    2    3    3    0    0 -0.76764927894E-02 -0.16465169827E+00  0.22109452578E-02  0.16580587351E+00  0.17821030437E-01 0.  0.
         14    1    1    2    0    0  0.87849876275E-02 -0.20783403767E-01 -0.31322587511E-02  0.22780187107E-01  0.00000000000E+00 0.  1.
     999901    1    3    3    0    0 -0.11084948381E-02  0.18543510204E+00  0.92131349337E-03  0.85534393939E+00  0.83500000000E+00 0. -1.
        -11    1    4    4    0    0  0.25240571618E-02 -0.45534097052E-01  0.70746921019E-02  0.46152326575E-01  0.51100000000E-03 0. -1.
         11    1    4    4    0    0 -0.10200549951E-01 -0.11911760122E+00 -0.48637468441E-02  0.11965354693E+00  0.51100000000E-03 0.  1.
</event>
<event>
 8    1  0.5616615E+005  0.1043930E+01  0.7957747E-01            NaN
         13   -1    0    0    0    0  0.00000000000E+00  0.00000000000E+00  0.74505805969E-08  0.10566000000E+00  0.10566000000E+00 0.  1.
     999900   -1    0    0    0    0 -0.00000000000E+00 -0.00000000000E+00 -0.74505805969E-08  0.93827000000E+00  0.93827000000E+00 0.  1.
     999902    2    1    2    0    0 -0.18690289819E-01  0.19036761670E-01  0.10486616659E-02  0.10172312188E+01  0.10168807833E+01 0.  0.
     999903    2    3    3    0    0  0.15306650581E+00  0.43153087680E-01  0.33723423052E-01  0.16378254775E+00  0.19897474884E-01 0.  0.
         14    1    1    2    0    0  0.18690289819E-01 -0.19036761670E-01 -0.10486616659E-02  0.26698781240E-01  0.00000000000E+00 0. -1.
     999901    1    3    3    0    0 -0.17175679563E+00 -0.24116326009E-01 -0.32674761386E-01  0.85344867101E+00  0.83500000000E+00 0. -1.
        -11    1    4    4    0    0  0.93166478732E-01  0.34009382925E-01  0.14660869608E-01  0.10025883056E+00  0.51100000000E-03 0.  1.
         11    1    4    4    0    0  0.59900027077E-01  0.91437047548E-02  0.19062553444E-01  0.63523717187E-01  0.51100000000E-03 0. -1.
</event>
<event>
 8    1  0.5616615E+005  0.1043930E+01  0.7957747E-01            NaN
         13   -1    0    0    0    0  0.00000000000E+00  0.00000000000E+00  0.74505805969E-08  0.10566000000E+00  0.10566000000E+00 0.  1.
     999900   -1    0    0    0    0 -0.00000000000E+00 -0.00000000000E+00 -0.74505805969E-08  0.93827000000E+00  0.93827000000E+00 0. -1.
     999902    2    1    2    0    0  0.45322424823E-02 -0.21374578541E-01 -0.10221349025E-01  0.10198076078E+01  0.10195222740E+01 0.  0.
     999903    2    3    3    0    0 -0.68352017844E-01 -0.15033414751E+00 -0.40925380039E-01  0.17121440528E+00  0.19160678298E-01 0.  0.
         14    1    1    2    0    0 -0.45322424823E-02  0.21374578541E-01  0.10221349025E-01  0.24122392203E-01  0.00000000000E+00 0.  1.
     999901    1    3    3    0    0  0.72884260326E-01  0.12895956897E+00  0.30704031013E-01  0.84859320251E+00  0.83500000000E+00 0.  1.
        -11    1    4    4    0    0 -0.41583182815E-01 -0.69475598428E-01 -0.22979183619E-01  0.84168425617E-01  0.51100000000E-03 0.  1.
         11    1    4    4    0    0 -0.26768835029E-01 -0.80858549086E-01 -0.17946196419E-01  0.87045979666E-01  0.51100000000E-03 0. -1.
</event>
<event>
 8    1  0.5616615E+005  0.1043930E+01  0.7957747E-01            NaN
         13   -1    0    0    0    0  0.00000000000E+00  0.00000000000E+00  0.74505805969E-08  0.10566000000E+00  0.10566000000E+00 0. -1.
     999900   -1    0    0    0    0 -0.00000000000E+00 -0.00000000000E+00 -0.74505805969E-08  0.93827000000E+00  0.93827000000E+00 0.  1.
     999902    2    1    2    0    0  0.21539235361E-01 -0.16253832495E-02 -0.82409697223E-02  0.10208108713E+01  0.10205490389E+01 0.  0.
     999903    2    3    3    0    0  0.14029245549E+00 -0.95921445228E-01  0.15172813047E-01  0.17183073028E+00  0.20314745636E-01 0.  0.
         14    1    1    2    0    0 -0.21539235361E-01  0.16253832495E-02  0.82409697223E-02  0.23119128716E-01  0.00000000000E+00 0.  1.
     999901    1    3    3    0    0 -0.11875322013E+00  0.94296061979E-01 -0.23413782770E-01  0.84898014100E+00  0.83500000000E+00 0.  1.
        -11    1    4    4    0    0  0.64510043543E-01 -0.56286859570E-01  0.89456739054E-02  0.86081603614E-01  0.51100000000E-03 0.  1.
         11    1    4    4    0    0  0.75782411948E-01 -0.39634585658E-01  0.62271391419E-02  0.85749126666E-01  0.51100000000E-03 0. -1.
</event>
<event>
 8    1  0.5616615E+005  0.1043930E+01  0.7957747E-01            NaN
         13   -1    0    0    0    0  0.00000000000E+00  0.00000000000E+00  0.74505805969E-08  0.10566000000E+00  0.10566000000E+00 0. -1.
     999900   -1    0    0    0    0 -0.00000000000E+00 -0.00000000000E+00 -0.74505805969E-08  0.93827000000E+00  0.93827000000E+00 0.  1.
     999902    2    1    2    0    0 -0.15660552480E-01  0.15830987067E-01  0.10237397506E-01  0.10194212799E+01  0.10191266204E+01 0.  0.
     999903    2    3    3    0    0 -0.50772929948E-01 -0.53079576862E-01 -0.14766344332E+00  0.16611053903E+00  0.19821371981E-01 0.  0.
         14    1    1    2    0    0  0.15660552480E-01 -0.15830987067E-01 -0.10237397506E-01  0.24508720146E-01  0.00000000000E+00 0. -1.
     999901    1    3    3    0    0  0.35112377468E-01  0.68910563929E-01  0.15790084083E+00  0.85331074082E+00  0.83500000000E+00 0. -1.
        -11    1    4    4    0    0 -0.31689200918E-01 -0.36711220375E-01 -0.11560322980E+00  0.12536461629E+00  0.51100000000E-03 0. -1.
         11    1    4    4    0    0 -0.19083729031E-01 -0.16368356487E-01 -0.32060213525E-01  0.40745922741E-01  0.51100000000E-03 0.  1.
</event>
<event>
 8    1  0.5880886E+005  0.1043930E+01  0.7957747E-01            NaN
         13   -1    0    0    0    0  0.00000000000E+00  0.00000000000E+00  0.74505805969E-08  0.10566000000E+00  0.10566000000E+00 0. -1.
     999900   -1    0    0    0    0 -0.00000000000E+00 -0.00000000000E+00 -0.74505805969E-08  0.93827000000E+00  0.93827000000E+00 0. -1.
     999902    2    1    2    0    0 -0.12774537701E-01 -0.10422586556E-01  0.12973786564E-01  0.10229505276E+01  0.10227353732E+01 0.  0.
     999903    2    3    3    0    0  0.19886282414E-01  0.80287870107E-01 -0.14461720506E+00  0.16775754544E+00  0.19668546909E-01 0.  0.
         14    1    1    2    0    0  0.12774537701E-01  0.10422586556E-01 -0.12973786564E-01  0.20979472390E-01  0.00000000000E+00 0.  1.
     999901    1    3    3    0    0 -0.32660820114E-01 -0.90710456663E-01  0.15759099162E+00  0.85519298217E+00  0.83500000000E+00 0.  1.
        -11    1    4    4    0    0  0.65285472682E-02  0.14739617539E-01 -0.44629982474E-01  0.47454975621E-01  0.51100000000E-03 0.  1.
         11    1    4    4    0    0  0.13357735146E-01  0.65548252568E-01 -0.99987222584E-01  0.12030256982E+00  0.51100000000E-03 0. -1.
</event>
<event>
 8    1  0.5616615E+005  0.1043930E+01  0.7957747E-01            NaN
         13   -1    0    0    0    0  0.00000000000E+00  0.00000000000E+00  0.74505805969E-08  0.10566000000E+00  0.10566000000E+00 0.  1.
     999900   -1    0    0    0    0 -0.00000000000E+00 -0.00000000000E+00 -0.74505805969E-08  0.93827000000E+00  0.93827000000E+00 0.  1.
     999902    2    1    2    0    0  0.14083020568E-01 -0.17489727154E-01 -0.30419221471E-02  0.10212700063E+01  0.10210185848E+01 0.  0.
     999903    2    3    3    0    0  0.88350653919E-03  0.15459617364E+00  0.58437791707E-01  0.16640595884E+00  0.19370341958E-01 0.  0.
         14    1    1    2    0    0 -0.14083020568E-01  0.17489727154E-01  0.30419221471E-02  0.22659993702E-01  0.00000000000E+00 0.  1.
     999901    1    3    3    0    0  0.13199514028E-01 -0.17208590080E+00 -0.61479713854E-01  0.85486404746E+00  0.83500000000E+00 0.  1.
        -11    1    4    4    0    0  0.93776997417E-02  0.11044163320E+00  0.41455738028E-01  0.11833906766E+00  0.51100000000E-03 0.  1.
         11    1    4    4    0    0 -0.84941932025E-02  0.44154540440E-01  0.16982053679E-01  0.48066891181E-01  0.51100000000E-03 0. -1.
</event>
<event>
 8    1  0.5616615E+005  0.1043930E+01  0.7957747E-01            NaN
         13   -1    0    0    0    0  0.00000000000E+00  0.00000000000E+00  0.74505805969E-08  0.10566000000E+00  0.10566000000E+00 0.  1.
     999900   -1    0    0    0    0 -0.00000000000E+00 -0.00000000000E+00 -0.74505805969E-08  0.93827000000E+00  0.93827000000E+00 0.  1.
     999902    2    1    2    0    0 -0.80586051634E-02  0.88976733014E-02  0.20672963533E-01  0.10200243285E+01  0.10197441589E+01 0.  0.
     999903    2    3    3    0    0  0.10227778697E+00  0.10432849687E+00  0.83928237604E-01  0.17001998076E+00  0.22752226809E-01 0.  0.
         14    1    1    2    0    0  0.80586051634E-02 -0.88976733014E-02 -0.20672963533E-01  0.23905671474E-01  0.00000000000E+00 0. -1.
     999901    1    3    3    0    0 -0.11033639213E+00 -0.95430823570E-01 -0.63255274071E-01  0.85000434776E+00  0.83500000000E+00 0. -1.
        -11    1    4    4    0    0  0.40354076931E-01  0.57290013452E-01  0.38451210634E-01  0.79933434097E-01  0.51100000000E-03 0.  1.
         11    1    4    4    0    0  0.61923710039E-01  0.47038483419E-01  0.45477026970E-01  0.90086546667E-01  0.51100000000E-03 0. -1.
</event>
<event>
 8    1  0.5616615E+005  0.1043930E+01  0.7957747E-01            NaN
         13   -1    0    0    0    0  0.00000000000E+00  0.00000000000E+00  0.74505805969E-08  0.10566000000E+00  0.10566000000E+00 0. -1.
     999900   -1    0    0    0    0 -0.00000000000E+00 -0.00000000000E+00 -0.74505805969E-08  0.93827000000E+00  0.93827000000E+00 0.  1.
     999902    2    1    2    0    0 -0.65535778237E-02  0.21202995984E-01 -0.76301321743E-02  0.10204622490E+01  0.10201923673E+01 0.  0.
     999903    2    3    3    0    0 -0.16820048588E+00  0.86502263136E-02 -0.67108424435E-02  0.16986649305E+00  0.21056120021E-01 0.  0.
         14    1    1    2    0    0  0.65535778237E-02 -0.21202995984E-01  0.76301321743E-02  0.23467751021E-01  0.00000000000E+00 0.  1.
     999901    1    3    3    0    0  0.16164690805E+00  0.12552769670E-01 -0.91928973088E-03  0.85059575593E+00  0.83500000000E+00 0. -1.
        -11    1    4    4    0    0 -0.10810339159E+00  0.47353535258E-02  0.57631551499E-02  0.10836162570E+00  0.51100000000E-03 0. -1.
         11    1    4    4    0    0 -0.60097094289E-01  0.39148727878E-02 -0.12473997593E-01  0.61504867351E-01  0.51100000000E-03 0.  1.
</event>
<event>
 8    1  0.5616615E+005  0.1043930E+01  0.7957747E-01            NaN
         13   -1    0    0    0    0  0.00000000000E+00  0.00000000000E+00  0.74505805969E-08  0.10566000000E+00  0.10566000000E+00 0. -1.
     999900   -1    0    0    0    0 -0.00000000000E+00 -0.00000000000E+00 -0.74505805969E-08  0.93827000000E+00  0.93827000000E+00 0.  1.
     999902    2    1    2    0    0  0.12136934388E-01 -0.19736442589E-01 -0.64606795357E-02  0.10198764613E+01  0.10195927734E+01 0.  0.
     999903    2    3    3    0    0  0.14530173948E+00 -0.84327940891E-01  0.26505146139E-01  0.17122065794E+00  0.19753324383E-01 0.  0.
         14    1    1    2    0    0 -0.12136934388E-01  0.19736442589E-01  0.64606795357E-02  0.24053538668E-01  0.00000000000E+00 0.  1.
     999901    1    3    3    0    0 -0.13316480509E+00  0.64591498302E-01 -0.32965825675E-01  0.84865580339E+00  0.83500000000E+00 0.  1.
        -11    1    4    4    0    0  0.13713057101E+00 -0.81297501627E-01  0.29227888730E-01  0.16207593244E+00  0.51100000000E-03 0.  1.
         11    1    4    4    0    0  0.81711684653E-02 -0.30304392643E-02 -0.27227425912E-02  0.91447254983E-02  0.51100000000E-03 0. -1.
</event>
<event>
 8    1  0.5616615E+005  0.1043930E+01  0.7957747E-01            NaN
         13   -1    0    0    0    0  0.00000000000E+00  0.00000000000E+00  0.74505805969E-08  0.10566000000E+00  0.10566000000E+00 0. -1.
     999900   -1    0    0    0    0 -0.00000000000E+00 -0.00000000000E+00 -0.74505805969E-08  0.93827000000E+00  0.93827000000E+00 0. -1.
     999902    2    1    2    0    0 -0.25454275999E-02  0.19846305895E-01 -0.12158661774E-01  0.10205165826E+01  0.10202479636E+01 0.  0.
     999903    2    3    3    0    0 -0.91214358595E-01 -0.89993780895E-01 -0.10733367503E+00  0.16833684382E+00  0.19945811066E-01 0.  0.
         14    1    1    2    0    0  0.25454275999E-02 -0.19846305895E-01  0.12158661774E-01  0.23413417425E-01  0.00000000000E+00 0. -1.
     999901    1    3    3    0    0  0.88668930995E-01  0.10984008679E+00  0.95175013258E-01  0.85217973875E+00  0.83500000000E+00 0.  1.
        -11    1    4    4    0    0 -0.31262201419E-01 -0.44313862512E-01 -0.42153862350E-01  0.68689539817E-01  0.51100000000E-03 0.  1.
         11    1    4    4    0    0 -0.59952157176E-01 -0.45679918383E-01 -0.65179812683E-01  0.99647304007E-01  0.51100000000E-03 0. -1.
</event>
<event>
 8    1  0.5616615E+005  0.1043930E+01  0.7957747E-01            NaN
         13   -1    0    0    0    0  0.00000000000E+00  0.00000000000E+00  0.74505805969E-08  0.10566000000E+00  0.10566000000E+00 0. -1.
     999900   -1    0    0    0    0 -0.00000000000E+00 -0.00000000000E+00 -0.74505805969E-08  0.93827000000E+00  0.93827000000E+00 0.  1.
     999902    2    1    2    0    0  0.12280839162E-01  0.28841944892E-02  0.19965021850E-01  0.10203134870E+01  0.10200401326E+01 0.  0.
     999903    2    3    3    0    0  0.12504754277E+00  0.63636060273E-01  0.97522943906E-01  0.17199317609E+00  0.19608465370E-01 0.  0.
         14    1    1    2    0    0 -0.12280839162E-01 -0.28841944892E-02 -0.19965021850E-01  0.23616512991E-01  0.00000000000E+00 0.  1.
     999901    1    3    3    0    0 -0.11276670361E+00 -0.60751865784E-01 -0.77557922056E-01  0.84832031092E+00  0.83500000000E+00 0.  1.
        -11    1    4    4    0    0  0.39100330219E-01  0.28300608298E-01  0.26780484736E-01  0.55201591797E-01  0.51100000000E-03 0.  1.
         11    1    4    4    0    0  0.85947212553E-01  0.35335451975E-01  0.70742459170E-01  0.11679158430E+00  0.51100000000E-03 0. -1.
</event>
<event>
 8    1  0.5616615E+005  0.1043930E+01  0.7957747E-01            NaN
         13   -1    0    0    0    0  0.00000000000E+00  0.00000000000E+00  0.74505805969E-08  0.10566000000E+00  0.10566000000E+00 0. -1.
     999900   -1    0    0    0    0 -0.00000000000E+00 -0.00000000000E+00 -0.74505805969E-08  0.93827000000E+00  0.93827000000E+00 0.  1.
     999902    2    1    2    0    0  0.82849547243E-02 -0.15342518674E-01  0.14933705372E-01  0.10209724542E+01  0.10207143103E+01 0.  0.
     999903    2    3    3    0    0  0.65890368892E-01 -0.24152090699E-01 -0.15083883522E+00  0.16768379990E+00  0.20991387316E-01 0.  0.
         14    1    1    2    0    0 -0.82849547243E-02  0.15342518674E-01 -0.14933705372E-01  0.22957545823E-01  0.00000000000E+00 0. -1.
     999901    1    3    3    0    0 -0.57605414168E-01  0.88095720246E-02  0.16577254059E+00  0.85328865428E+00  0.83500000000E+00 0. -1.
        -11    1    4    4    0    0  0.34810419169E-01 -0.20885089853E-01 -0.10101340948E+00  0.10886653423E+00  0.51100000000E-03 0. -1.
         11    1    4    4    0    0  0.31079949723E-01 -0.32670008460E-02 -0.49825425742E-01  0.58817265668E-01  0.51100000000E-03 0.  1.
</event>
<event>
 8    1  0.5616615E+005  0.1043930E+01  0.7957747E-01            NaN
         13   -1    0    0    0    0  0.00000000000E+00  0.00000000000E+00  0.74505805969E-08  0.10566000000E+00  0.10566000000E+00 0.  1.
     999900   -1    0    0    0    0 -0.00000000000E+00 -0.00000000000E+00 -0.74505805969E-08  0.93827000000E+00  0.93827000000E+00 0. -1.
     999902    2    1    2    0    0  0.67506137675E-02  0.35476941765E-02 -0.23658391102E-01  0.10190728805E+01  0.10187696793E+01 0.  0.
     999903    2    3    3    0    0  0.14905012859E-01 -0.34618750255E-02 -0.16937384470E+00  0.17138566124E+00  0.21246214284E-01 0.  0.
         14    1    1    2    0    0 -0.67506137675E-02 -0.35476941765E-02  0.23658391102E-01  0.24857119498E-01  0.00000000000E+00 0.  1.
     999901    1    3    3    0    0 -0.81543990912E-02  0.70095692021E-02  0.14571545360E+00  0.84768721926E+00  0.83500000000E+00 0.  1.
        -11    1    4    4    0    0 -0.82572507702E-03 -0.58856578486E-02 -0.10123952762E+00  0.10141511654E+00  0.51100000000E-03 0. -1.
         11    1    4    4    0    0  0.15730737936E-01  0.24237828230E-02 -0.68134317086E-01  0.69970544695E-01  0.51100000000E-03 0.  1.
</event>
<event>
 8    1  0.5616615E+005  0.1043930E+01  0.7957747E-01            NaN
         13   -1    0    0    0    0  0.00000000000E+00  0.00000000000E+00  0.74505805969E-08  0.10566000000E+00  0.10566000000E+00 0.  1.
     999900   -1    0    0    0    0 -0.00000000000E+00 -0.00000000000E+00 -0.74505805969E-08  0.93827000000E+00  0.93827000000E+00 0.  1.
     999902    2    1    2    0    0 -0.14243523638E-01  0.20064438745E-01  0.13937170772E-02  0.10192844707E+01  0.10189864720E+01 0.  0.
     999903    2    3    3    0    0 -0.95427482788E-01  0.10329636941E+00  0.95479282750E-01  0.17099473058E+00  0.18610750876E-01 0.  0.
         14    1    1    2    0    0  0.14243523638E-01 -0.20064438745E-01 -0.13937170772E-02  0.24645529312E-01  0.00000000000E+00 0.  1.
     999901    1    3    3    0    0  0.81183959150E-01 -0.83231930660E-01 -0.94085565673E-01  0.84828974011E+00  0.83500000000E+00 0.  1.
        -11    1    4    4    0    0 -0.56421629310E-01  0.73583237486E-01  0.59497975786E-01  0.11017333315E+00  0.51100000000E-03 0.  1.
         11    1    4    4    0    0 -0.39005853477E-01  0.29713131919E-01  0.35981306964E-01  0.60821397433E-01  0.51100000000E-03 0. -1.
</event>
<event>
 8    1  0.5616615E+005  0.1043930E+01  0.7957747E-01            NaN
         13   -1    0    0    0    0  0.00000000000E+00  0.00000000000E+00  0.74505805969E-08  0.10566000000E+00  0.10566000000E+00 0.  1.
     999900   -1    0    0    0    0 -0.00000000000E+00 -0.00000000000E+00 -0.74505805969E-08  0.93827000000E+00  0.93827000000E+00 0.  1.
     999902    2    1    2    0    0  0.89235921743E-02  0.16155773543E-01  0.15844832775E-01  0.10196051518E+01  0.10193149500E+01 0.  0.
     999903    2    3    3    0    0  0.80559334603E-01 -0.12241187552E+00  0.79293269345E-01  0.16779333154E+00  0.19816808204E-01 0.  0.
         14    1    1    2    0    0 -0.89235921743E-02 -0.16155773543E-01 -0.15844832775E-01  0.24324848237E-01  0.00000000000E+00 0. -1.
     999901    1    3    3    0    0 -0.71635742429E-01  0.13856764906E+00 -0.63448436569E-01  0.85181182022E+00  0.83500000000E+00 0.  1.
        -11    1    4    4    0    0  0.38777384217E-01 -0.47042803707E-01  0.41133535598E-01  0.73545494621E-01  0.51100000000E-03 0.  1.
         11    1    4    4    0    0  0.41781950386E-01 -0.75369071814E-01  0.38159733747E-01  0.94247836924E-01  0.51100000000E-03 0. -1.
</event>
<event>
 8    1  0.5616615E+005  0.1043930E+01  0.7957747E-01            NaN
         13   -1    0    0    0    0  0.00000000000E+00  0.00000000000E+00  0.74505805969E-08  0.10566000000E+00  0.10566000000E+00 0. -1.
     999900   -1    0    0    0    0 -0.00000000000E+00 -0.00000000000E+00 -0.74505805969E-08  0.93827000000E+00  0.93827000000E+00 0. -1.
     999902    2    1    2    0    0 -0.22153062985E-02 -0.11777854700E-01 -0.21304837804E-01  0.10194857459E+01  0.10191926533E+01 0.  0.
     999903    2    3    3    0    0  0.32255034763E-01  0.14156880518E+00  0.74948627839E-01  0.16438742868E+00  0.17994888915E-01 0.  0.
         14    1    1    2    0    0  0.22153062985E-02  0.11777854700E-01  0.21304837804E-01  0.24444254073E-01  0.00000000000E+00 0. -1.
     999901    1    3    3    0    0 -0.34470341062E-01 -0.15334665988E+00 -0.96253465644E-01  0.85509831725E+00  0.83500000000E+00 0. -1.
        -11    1    4    4    0    0  0.28887604553E-02  0.48181437853E-01  0.21394895607E-01  0.52799607665E-01  0.51100000000E-03 0.  1.
         11    1    4    4    0    0  0.29366274308E-01  0.93387367323E-01  0.53553732232E-01  0.11158782102E+00  0.51100000000E-03 0. -1.
</event>
<event>
 8    1  0.5616615E+005  0.1043930E+01  0.7957747E-01            NaN
         13   -1    0    0    0    0  0.00000000000E+00  0.00000000000E+00  0.74505805969E-08  0.10566000000E+00  0.10566000000E+00 0. -1.
     999900   -1    0    0    0    0 -0.00000000000E+00 -0.00000000000E+00 -0.74505805969E-08  0.93827000000E+00  0.93827000000E+00 0. -1.
     999902    2    1    2    0    0 -0.21193040906E-01  0.94443447011E-02 -0.20065009299E-02  0.10206412328E+01  0.10203754993E+01 0.  0.
     999903    2    3    3    0    0  0.81399397852E-01 -0.13768567686E+00 -0.39054701262E-01  0.16579035644E+00  0.19441322367E-01 0.  0.
         14    1    1    2    0    0  0.21193040906E-01 -0.94443447011E-02  0.20065009299E-02  0.23288767156E-01  0.00000000000E+00 0. -1.
     999901    1    3    3    0    0 -0.10259243876E+00  0.14713002156E+00  0.37048200332E-01  0.85485087640E+00  0.83500000000E+00 0.  1.
        -11    1    4    4    0    0  0.41744633567E-01 -0.89187181437E-01 -0.24212697174E-01  0.10140751249E+00  0.51100000000E-03 0. -1.
         11    1    4    4    0    0  0.39654764284E-01 -0.48498495426E-01 -0.14842004088E-01  0.64382843952E-01  0.51100000000E-03 0.  1.
</event>
<event>
 8    1  0.5816078E+005  0.1043930E+01  0.7957747E-01            NaN
         13   -1    0    0    0    0  0.00000000000E+00  0.00000000000E+00  0.74505805969E-08  0.10566000000E+00  0.10566000000E+00 0.  1.
     999900   -1    0    0    0    0 -0.00000000000E+00 -0.00000000000E+00 -0.74505805969E-08  0.93827000000E+00  0.93827000000E+00 0. -1.
     999902    2    1    2    0    0 -0.33353941407E-02  0.22462748371E-01 -0.36977866212E-04  0.10212209426E+01  0.10209684189E+01 0.  0.
     999903    2    3    3    0    0  0.80267612208E-01  0.13431069622E+00 -0.68361505727E-01  0.17187256464E+00  0.19611994372E-01 0.  0.
         14    1    1    2    0    0  0.33353941407E-02 -0.22462748371E-01  0.36977866212E-04  0.22709057352E-01  0.00000000000E+00 0.  1.
     999901    1    3    3    0    0 -0.83603006349E-01 -0.11184794785E+00  0.68324527861E-01  0.84934837800E+00  0.83500000000E+00 0. -1.
        -11    1    4    4    0    0  0.62443782654E-01  0.86700256887E-01 -0.46942465759E-01  0.11670482745E+00  0.51100000000E-03 0. -1.
         11    1    4    4    0    0  0.17823829553E-01  0.47610439334E-01 -0.21419039969E-01  0.55167737199E-01  0.51100000000E-03 0.  1.
</event>
<event>
 8    1  0.5616615E+005  0.1043930E+01  0.7957747E-01            NaN
         13   -1    0    0    0    0  0.00000000000E+00  0.00000000000E+00  0.74505805969E-08  0.10566000000E+00  0.10566000000E+00 0.  1.
     999900   -1    0    0    0    0 -0.00000000000E+00 -0.00000000000E+00 -0.74505805969E-08  0.93827000000E+00  0.93827000000E+00 0.  1.
     999902    2    1    2    0    0  0.69619560979E-02 -0.19572343314E-01  0.12376899560E-01  0.10197487449E+01  0.10194620001E+01 0.  0.
     999903    2    3    3    0    0 -0.98625682997E-01  0.12994420348E+00 -0.97388628046E-02  0.16463585514E+00  0.19939859118E-01 0.  0.
         14    1    1    2    0    0 -0.69619560979E-02  0.19572343314E-01 -0.12376899560E-01  0.24181255100E-01  0.00000000000E+00 0. -1.
     999901    1    3    3    0    0  0.10558763910E+00 -0.14951654680E+00  0.22115762364E-01  0.85511288976E+00  0.83500000000E+00 0. -1.
        -11    1    4    4    0    0 -0.34136541459E-01  0.42838337722E-01 -0.12630541763E-01  0.56215819373E-01  0.51100000000E-03 0.  1.
         11    1    4    4    0    0 -0.64489141538E-01  0.87105865761E-01  0.28916789582E-02  0.10842003576E+00  0.51100000000E-03 0. -1.
</event>
<event>
 8    1  0.5616615E+005  0.1043930E+01  0.7957747E-01            NaN
         13   -1    0    0    0    0  0.00000000000E+00  0.00000000000E+00  0.74505805969E-08  0.10566000000E+00  0.10566000000E+00 0. -1.
     999900   -1    0    0    0    0 -0.00000000000E+00 -0.00000000000E+00 -0.74505805969E-08  0.93827000000E+00  0.93827000000E+00 0. -1.
     999902    2    1    2    0    0 -0.96346227025E-02 -0.21262258925E-01  0.95511820915E-03  0.10205671693E+01  0.10202997232E+01 0.  0.
     999903    2    3    3    0    0 -0.11201672353E+00 -0.11114933919E+00  0.65544196339E-01  0.17206346816E+00  0.20195877006E-01 0.  0.
         14    1    1    2    0    0  0.96346227025E-02  0.21262258925E-01 -0.95511820915E-03  0.23362830736E-01  0.00000000000E+00 0. -1.
     999901    1    3    3    0    0  0.10238210083E+00  0.89887080267E-01 -0.64589078130E-01  0.84850370110E+00  0.83500000000E+00 0. -1.
        -11    1    4    4    0    0 -0.43662901086E-01 -0.56338319218E-01  0.25182530325E-01  0.75596799523E-01  0.51100000000E-03 0. -1.
         11    1    4    4    0    0 -0.68353822448E-01 -0.54811019974E-01  0.40361666014E-01  0.96466668639E-01  0.51100000000E-03 0.  1.
</event>
<event>
 8    1  0.5616615E+005  0.1043930E+01  0.7957747E-01            NaN
         13   -1    0    0    0    0  0.00000000000E+00  0.00000000000E+00  0.74505805969E-08  0.10566000000E+00  0.10566000000E+00 0. -1.
     999900   -1    0    0    0    0 -0.00000000000E+00 -0.00000000000E+00 -0.74505805969E-08  0.93827000000E+00  0.93827000000E+00 0.  1.
     999902    2    1    2    0    0  0.76271166598E-02  0.19579802823E-01 -0.10617640902E-01  0.10203869355E+01  0.10201152985E+01 0.  0.
     999903    2    3    3    0    0 -0.78116512588E-01  0.12087825510E+00  0.86785055524E-01  0.16931371207E+00  0.20536434398E-01 0.  0.
         14    1    1    2    0    0 -0.76271166598E-02 -0.19579802823E-01  0.10617640902E-01  0.23543064487E-01  0.00000000000E+00 0. -1.
     999901    1    3    3    0    0  0.85743629248E-01 -0.10129845228E+00 -0.97402696426E-01  0.85107322344E+00  0.83500000000E+00 0.  1.
        -11    1    4    4    0    0 -0.70612596647E-01  0.96661016305E-01  0.75731338134E-01  0.14165093567E+00  0.51100000000E-03 0.  1.
         11    1    4    4    0    0 -0.75039159414E-02  0.24217238794E-01  0.11053717391E-01  0.27662776405E-01  0.51100000000E-03 0. -1.
</event>
<event>
 8    1  0.5616615E+005  0.1043930E+01  0.7957747E-01            NaN
         13   -1    0    0    0    0  0.00000000000E+00  0.00000000000E+00  0.74505805969E-08  0.10566000000E+00  0.10566000000E+00 0.  1.
     999900   -1    0    0    0    0 -0.00000000000E+00 -0.00000000000E+00 -0.74505805969E-08  0.93827000000E+00  0.93827000000E+00 0. -1.
     999902    2    1    2    0    0  0.24924035303E-01 -0.87368537246E-02 -0.84939605667E-02  0.10161867573E+01  0.10158079731E+01 0.  0.
     999903    2    3    3    0    0 -0.13626805397E-01  0.75996456851E-01 -0.14450735628E+00  0.16507539852E+00  0.20158370446E-01 0.  0.
         14    1    1    2    0    0 -0.24924035303E-01  0.87368537246E-02  0.84939605667E-02  0.27743242689E-01  0.00000000000E+00 0.  1.
     999901    1    3    3    0    0  0.38550840700E-01 -0.84733310575E-01  0.13601339572E+00  0.85111135879E+00  0.83500000000E+00 0.  1.
        -11    1    4    4    0    0 -0.16915437779E-01  0.39411011437E-01 -0.72455514559E-01  0.84198708831E-01  0.51100000000E-03 0. -1.
         11    1    4    4    0    0  0.32886323819E-02  0.36585445414E-01 -0.72051841724E-01  0.80876689694E-01  0.51100000000E-03 0.  1.
</event>
<event>
 8    1  0.5616615E+005  0.1043930E+01  0.7957747E-01            NaN
         13   -1    0    0    0    0  0.00000000000E+00  0.00000000000E+00  0.74505805969E-08  0.10566000000E+00  0.10566000000E+00 0.  1.
     999900   -1    0    0    0    0 -0.00000000000E+00 -0.00000000000E+00 -0.74505805969E-08  0.93827000000E+00  0.93827000000E+00 0.  1.
     999902    2    1    2    0    0 -0.15518882549E-01 -0.10741383938E-01  0.14002652639E-01  0.10204292059E+01  0.10201585548E+01 0.  0.
     999903    2    3    3    0    0 -0.14212940523E+00 -0.85645071717E-01 -0.35715739332E-01  0.17111318376E+00  0.21639350258E-01 0.  0.
         14    1    1    2    0    0  0.15518882549E-01  0.10741383938E-01 -0.14002652639E-01  0.23500794145E-01  0.00000000000E+00 0. -1.
     999901    1    3    3    0    0  0.12661052268E+00  0.74903687779E-01  0.49718391971E-01  0.84931602210E+00  0.83500000000E+00 0. -1.
        -11    1    4    4    0    0 -0.30364766481E-01 -0.25363535999E-01 -0.14896216347E-02  0.39595556511E-01  0.51100000000E-03 0.  1.
         11    1    4    4    0    0 -0.11176463875E+00 -0.60281535719E-01 -0.34226117697E-01  0.13151762724E+00  0.51100000000E-03 0. -1.
</event>
<event>
 8    1  0.5616615E+005  0.1043930E+01  0.7957747E-01            NaN
         13   -1    0    0    0    0  0.00000000000E+00  0.00000000000E+00  0.74505805969E-08  0.10566000000E+00  0.10566000000E+00 0.  1.
     999900   -1    0    0    0    0 -0.00000000000E+00 -0.00000000000E+00 -0.74505805969E-08  0.93827000000E+00  0.93827000000E+00 0.  1.
     999902    2    1    2    0    0 -0.15695488231E-01 -0.24550627971E-02  0.17102967757E-01  0.10205871812E+01  0.10203201984E+01 0.  0.
     999903    2    3    3    0    0 -0.60324843678E-01  0.51200143336E-01  0.15133073888E+00  0.17199260481E+00  0.20492001800E-01 0.  0.
         14    1    1    2    0    0  0.15695488231E-01  0.24550627971E-02 -0.17102967757E-01  0.23342818816E-01  0.00000000000E+00 0. -1.
     999901    1    3    3    0    0  0.44629355446E-01 -0.53655206133E-01 -0.13422777112E+00  0.84859457637E+00  0.83500000000E+00 0.  1.
        -11    1    4    4    0    0 -0.19459492204E-01  0.27789881933E-01  0.52448063648E-01  0.62466069799E-01  0.51100000000E-03 0. -1.
         11    1    4    4    0    0 -0.40865351474E-01  0.23410261403E-01  0.98882675229E-01  0.10952653501E+00  0.51100000000E-03 0.  1.
</event>
<event>
 8    1  0.5616615E+005  0.1043930E+01  0.7957747E-01            NaN
         13   -1    0    0    0    0  0.00000000000E+00  0.00000000000E+00  0.74505805969E-08  0.10566000000E+00  0.10566000000E+00 0. -1.
     999900   -1    0    0    0    0 -0.00000000000E+00 -0.00000000000E+00 -0.74505805969E-08  0.93827000000E+00  0.93827000000E+00 0. -1.
     999902    2    1    2    0    0 -0.10267081634E-01  0.50347155428E-02 -0.22620065209E-01  0.10185838232E+01  0.10182684206E+01 0.  0.
     999903    2    3    3    0    0  0.70899331694E-01  0.11712817022E+00 -0.97020801667E-01  0.16892895283E+00  0.19448178756E-01 0.  0.
         14    1    1    2    0    0  0.10267081634E-01 -0.50347155428E-02  0.22620065209E-01  0.25346176752E-01  0.00000000000E+00 0. -1.
     999901    1    3    3    0    0 -0.81166413327E-01 -0.11209345467E+00  0.74400736458E-01  0.84965487041E+00  0.83500000000E+00 0.  1.
        -11    1    4    4    0    0  0.44633984307E-01  0.88044693792E-01 -0.75013277991E-01  0.12398110201E+00  0.51100000000E-03 0.  1.
         11    1    4    4    0    0  0.26265347387E-01  0.29083476423E-01 -0.22007523676E-01  0.44947850822E-01  0.51100000000E-03 0. -1.
</event>
<event>
 7    1  0.5616615E+005  0.1043930E+01  0.7957747E-01            NaN
         13   -1    0    0    0    0  0.00000000000E+00  0.00000000000E+00  0.74505805969E-08  0.10566000000E+00  0.10566000000E+00 0.  1.
     999900   -1    0    0    0    0 -0.00000000000E+00 -0.00000000000E+00 -0.74505805969E-08  0.93827000000E+00  0.93827000000E+00 0.  1.
     999903    2    1    2    0    0 -0.10089711531E+00 -0.77498963003E-01 -0.57843305336E-01  0.14092021969E+00  0.18064971661E-01 0.  0.
         14    1    1    2    0    0 -0.48958208941E-01  0.10617054473E-01  0.35755811473E-03  0.50097464170E-01  0.00000000000E+00 0. -1.
     999901    1    1    2    0    0  0.14985532425E+00  0.66881908530E-01  0.57485747221E-01  0.85291231614E+00  0.83500000000E+00 0.  1.
        -11    1    3    3    0    0 -0.33491326119E-01 -0.34548802937E-01 -0.27516553153E-01  0.55432035215E-01  0.51100000000E-03 0.  1.
         11    1    3    3    0    0 -0.67405789187E-01 -0.42950160065E-01 -0.30326752183E-01  0.85488184473E-01  0.51100000000E-03 0. -1.
</event>
<event>
 8    1  0.5616615E+005  0.1043930E+01  0.7957747E-01            NaN
         13   -1    0    0    0    0  0.00000000000E+00  0.00000000000E+00  0.74505805969E-08  0.10566000000E+00  0.10566000000E+00 0.  1.
     999900   -1    0    0    0    0 -0.00000000000E+00 -0.00000000000E+00 -0.74505805969E-08  0.93827000000E+00  0.93827000000E+00 0.  1.
     999902    2    1    2    0    0 -0.15585445776E-01 -0.19583614725E-01  0.47071709901E-02  0.10184627358E+01  0.10181442740E+01 0.  0.
     999903    2    3    3    0    0  0.15424985059E+00  0.21115676832E-01 -0.46810265917E-01  0.16384030075E+00  0.20336050253E-01 0.  0.
         14    1    1    2    0    0  0.15585445776E-01  0.19583614725E-01 -0.47071709901E-02  0.25467264173E-01  0.00000000000E+00 0.  1.
     999901    1    3    3    0    0 -0.16983529637E+00 -0.40699291556E-01  0.51517436907E-01  0.85462243507E+00  0.83500000000E+00 0. -1.
        -11    1    4    4    0    0  0.87002625516E-01  0.97751198641E-02 -0.36548406567E-01  0.94873900303E-01  0.51100000000E-03 0. -1.
         11    1    4    4    0    0  0.67247225076E-01  0.11340556967E-01 -0.10261859350E-01  0.68966400451E-01  0.51100000000E-03 0.  1.
</event>
<event>
 7    1  0.5616615E+005  0.1043930E+01  0.7957747E-01            NaN
         13   -1    0    0    0    0  0.00000000000E+00  0.00000000000E+00  0.74505805969E-08  0.10566000000E+00  0.10566000000E+00 0.  1.
     999900   -1    0    0    0    0 -0.00000000000E+00 -0.00000000000E+00 -0.74505805969E-08  0.93827000000E+00  0.93827000000E+00 0.  1.
     999902    2    1    2    0    0  0.60804711577E-02 -0.20912150055E-01  0.97005513008E-02  0.10200890511E+01  0.10198104144E+01 0.  0.
         14    1    1    2    0    0 -0.60804711577E-02  0.20912150055E-01 -0.97005513008E-02  0.23840948911E-01  0.00000000000E+00 0. -1.
     999901    1    3    3    0    0  0.20600172840E-01  0.13690233215E+00  0.62116969320E-01  0.84867551723E+00  0.83500000000E+00 0. -1.
        -11    1    3    3    0    0  0.76872967932E-03 -0.12832798230E+00 -0.31439375086E-01  0.13212629342E+00  0.51100000000E-03 0.  1.
         11    1    3    3    0    0 -0.15288431362E-01 -0.29486499900E-01 -0.20977042933E-01  0.39287240436E-01  0.51100000000E-03 0. -1.
</event>
<event>
 8    1  0.5616615E+005  0.1043930E+01  0.7957747E-01            NaN
         13   -1    0    0    0    0  0.00000000000E+00  0.00000000000E+00  0.74505805969E-08  0.10566000000E+00  0.10566000000E+00 0. -1.
     999900   -1    0    0    0    0 -0.00000000000E+00 -0.00000000000E+00 -0.74505805969E-08  0.93827000000E+00  0.93827000000E+00 0. -1.
     999902    2    1    2    0    0  0.50346491376E-02 -0.28853966250E-02 -0.23893884357E-01  0.10193415695E+01  0.10190449668E+01 0.  0.
     999903    2    3    3    0    0 -0.84364490663E-01  0.66073450756E-02 -0.14711915629E+00  0.17052369386E+00  0.16530569411E-01 0.  0.
         14    1    1    2    0    0 -0.50346491376E-02  0.28853966250E-02  0.23893884357E-01  0.24588430517E-01  0.00000000000E+00 0. -1.
     999901    1    3    3    0    0  0.89399139800E-01 -0.94927417007E-02  0.12322527193E+00  0.84881787563E+00  0.83500000000E+00 0.  1.
        -11    1    4    4    0    0 -0.36849174083E-01 -0.44441211194E-02 -0.56413542688E-01  0.67530443229E-01  0.51100000000E-03 0. -1.
         11    1    4    4    0    0 -0.47515316579E-01  0.11051466195E-01 -0.90705613601E-01  0.10299325063E+00  0.51100000000E-03 0.  1.
</event>
<event>
 8    1  0.5616615E+005  0.1043930E+01  0.7957747E-01            NaN
         13   -1    0    0    0    0  0.00000000000E+00  0.00000000000E+00  0.74505805969E-08  0.10566000000E+00  0.10566000000E+00 0.  1.
     999900   -1    0    0    0    0 -0.00000000000E+00 -0.00000000000E+00 -0.74505805969E-08  0.93827000000E+00  0.93827000000E+00 0. -1.
     999902    2    1    2    0    0  0.71972673925E-02 -0.19471367275E-01 -0.73179372033E-02  0.10219189345E+01  0.10216818593E+01 0.  0.
     999903    2    3    3    0    0  0.52081922038E-01 -0.15653996158E+00 -0.50072650075E-01  0.17347600930E+00  0.19218983972E-01 0.  0.
         14    1    1    2    0    0 -0.71972673925E-02  0.19471367275E-01  0.73179372033E-02  0.22011065544E-01  0.00000000000E+00 0.  1.
     999901    1    3    3    0    0 -0.44884654645E-01  0.13706859430E+00  0.42754712872E-01  0.84844292515E+00  0.83500000000E+00 0.  1.
        -11    1    4    4    0    0  0.72498499383E-02 -0.25696735187E-01 -0.15621596702E-01  0.30938292260E-01  0.51100000000E-03 0. -1.
         11    1    4    4    0    0  0.44832072099E-01 -0.13084322639E+00 -0.34451053373E-01  0.14253771704E+00  0.51100000000E-03 0.  1.
</event>
<event>
 8    1  0.5616615E+005  0.1043930E+01  0.7957747E-01            NaN
         13   -1    0    0    0    0  0.00000000000E+00  0.00000000000E+00  0.74505805969E-08  0.10566000000E+00  0.10566000000E+00 0.  1.
     999900   -1    0    0    0    0 -0.00000000000E+00 -0.00000000000E+00 -0.74505805969E-08  0.93827000000E+00  0.93827000000E+00 0. -1.
     999902    2    1    2    0    0  0.42211797799E-02  0.25913003908E-01 -0.82431612890E-03  0.10176624986E+01  0.10173234390E+01 0.  0.
     999903    2    3    3    0    0  0.14209365826E+00 -0.72231554115E-01  0.36734793556E-01  0.16485720943E+00  0.20504860837E-01 0.  0.
         14    1    1    2    0    0 -0.42211797799E-02 -0.25913003908E-01  0.82431612890E-03  0.26267501353E-01  0.00000000000E+00 0.  1.
     999901    1    3    3    0    0 -0.13787247848E+00  0.98144558023E-01 -0.37559109685E-01  0.85280528921E+00  0.83500000000E+00 0. -1.
        -11    1    4    4    0    0  0.10629450441E+00 -0.61447578171E-01  0.33823884916E-01  0.12735243556E+00  0.51100000000E-03 0.  1.
         11    1    4    4    0    0  0.35799153847E-01 -0.10783975944E-01  0.29109086394E-02  0.37504773875E-01  0.51100000000E-03 0. -1.
</event>
<event>
 8    1  0.5616615E+005  0.1043930E+01  0.7957747E-01            NaN
         13   -1    0    0    0    0  0.00000000000E+00  0.00000000000E+00  0.74505805969E-08  0.10566000000E+00  0.10566000000E+00 0.  1.
     999900   -1    0    0    0    0 -0.00000000000E+00 -0.00000000000E+00 -0.74505805969E-08  0.93827000000E+00  0.93827000000E+00 0.  1.
     999902    2    1    2    0    0  0.10833871703E-01 -0.20168778871E-01  0.69654301977E-02  0.10199994832E+01  0.10197187240E+01 0.  0.
     999903    2    3    3    0    0  0.74237402526E-01  0.37582743304E-01  0.14589831730E+00  0.16918658181E+00  0.20350084630E-01 0.  0.
         14    1    1    2    0    0 -0.10833871703E-01  0.20168778871E-01 -0.69654301977E-02  0.23930516815E-01  0.00000000000E+00 0.  1.
     999901    1    3    3    0    0 -0.63403530824E-01 -0.57751522175E-01 -0.13893288710E+00  0.85081290138E+00  0.83500000000E+00 0.  1.
        -11    1    4    4    0    0  0.46561626358E-01  0.15940194556E-01  0.99275520445E-01  0.11080597877E+00  0.51100000000E-03 0. -1.
         11    1    4    4    0    0  0.27675776168E-01  0.21642548748E-01  0.46622796854E-01  0.58380603031E-01  0.51100000000E-03 0.  1.
</event>
<event>
 8    1  0.5616615E+005  0.1043930E+01  0.7957747E-01            NaN
         13   -1    0    0    0    0  0.00000000000E+00  0.00000000000E+00  0.74505805969E-08  0.10566000000E+00  0.10566000000E+00 0. -1.
     999900   -1    0    0    0    0 -0.00000000000E+00 -0.00000000000E+00 -0.74505805969E-08  0.93827000000E+00  0.93827000000E+00 0.  1.
     999902    2    1    2    0    0 -0.12272865604E-01  0.20825841264E-03 -0.20016959931E-01  0.10204492571E+01  0.10201790730E+01 0.  0.
     999903    2    3    3    0    0 -0.20068017183E-01 -0.81065569493E-01 -0.14861750470E+00  0.17166819017E+00  0.20210218751E-01 0.  0.
         14    1    1    2    0    0  0.12272865604E-01 -0.20825841264E-03  0.20016959931E-01  0.23480742888E-01  0.00000000000E+00 0. -1.
     999901    1    3    3    0    0  0.77951515788E-02  0.81273827906E-01  0.12860054477E+00  0.84878106695E+00  0.83500000000E+00 0. -1.
        -11    1    4    4    0    0 -0.12770088153E-01 -0.38924874870E-01 -0.92010928174E-01  0.10071987420E+00  0.51100000000E-03 0. -1.
         11    1    4    4    0    0 -0.72979290304E-02 -0.42140694623E-01 -0.56606576522E-01  0.70948315963E-01  0.51100000000E-03 0.  1.
</event>
<event>
 8    1  0.5616615E+005  0.1043930E+01  0.7957747E-01            NaN
         13   -1    0    0    0    0  0.00000000000E+00  0.00000000000E+00  0.74505805969E-08  0.10566000000E+00  0.10566000000E+00 0. -1.
     999900   -1    0    0    0    0 -0.00000000000E+00 -0.00000000000E+00 -0.74505805969E-08  0.93827000000E+00  0.93827000000E+00 0. -1.
     999902    2    1    2    0    0  0.23432634750E-01  0.74239571068E-03 -0.27544002320E-02  0.10203243599E+01  0.10200512601E+01 0.  0.
     999903    2    3    3    0    0  0.60361189302E-01  0.33384857696E-01 -0.15437123210E+00  0.17024088628E+00  0.19835830258E-01 0.  0.
         14    1    1    2    0    0 -0.23432634750E-01 -0.74239571068E-03  0.27544002320E-02  0.23605640075E-01  0.00000000000E+00 0. -1.
     999901    1    3    3    0    0 -0.36928554552E-01 -0.32642461986E-01  0.15161683187E+00  0.85008347365E+00  0.83500000000E+00 0.  1.
        -11    1    4    4    0    0  0.16572900963E-01  0.17838709853E-01 -0.66853521315E-01  0.71151493651E-01  0.51100000000E-03 0. -1.
         11    1    4    4    0    0  0.43788288338E-01  0.15546147843E-01 -0.87517710786E-01  0.99089392624E-01  0.51100000000E-03 0.  1.
</event>
<event>
 7    1  0.5616615E+005  0.1043930E+01  0.7957747E-01            NaN
         13   -1    0    0    0    0  0.00000000000E+00  0.00000000000E+00  0.74505805969E-08  0.10566000000E+00  0.10566000000E+00 0.  1.
     999900   -1    0    0    0    0 -0.00000000000E+00 -0.00000000000E+00 -0.74505805969E-08  0.93827000000E+00  0.93827000000E+00 0.  1.
     999903    2    1    2    0    0  0.87804254737E-02 -0.13777525067E+00  0.20964393695E-01  0.14056241801E+00  0.16098819376E-01 0.  0.
         14    1    1    2    0    0  0.33225632252E-01 -0.21946271836E-01  0.31211685167E-01  0.50593979652E-01  0.00000000000E+00 0.  1.
     999901    1    1    2    0    0 -0.42006057726E-01  0.15972152251E+00 -0.52176078862E-01  0.85277360234E+00  0.83500000000E+00 0.  1.
        -11    1    3    3    0    0  0.13215759602E-01 -0.10637153980E+00  0.14166584574E-01  0.10812268041E+00  0.51100000000E-03 0. -1.
         11    1    3    3    0    0 -0.44353341284E-02 -0.31403710874E-01  0.67978091206E-02  0.32439737596E-01  0.51100000000E-03 0.  1.
</event>
<event>
 8    1  0.5616615E+005  0.1043930E+01  0.7957747E-01            NaN
         13   -1    0    0    0    0  0.00000000000E+00  0.00000000000E+00  0.74505805969E-08  0.10566000000E+00  0.10566000000E+00 0. -1.
     999900   -1    0    0    0    0 -0.00000000000E+00 -0.00000000000E+00 -0.74505805969E-08  0.93827000000E+00  0.93827000000E+00 0. -1.
     999902    2    1    2    0    0 -0.21763011475E-01 -0.29667730948E-02  0.28484425244E-02  0.10217817713E+01  0.10215416996E+01 0.  0.
     999903    2    3    3    0    0 -0.14081808611E+00 -0.92661674673E-01  0.32501471202E-01  0.17306297904E+00  0.21875322992E-01 0.  0.
         14    1    1    2    0    0  0.21763011475E-01  0.29667730948E-02 -0.28484425244E-02  0.22148228730E-01  0.00000000000E+00 0. -1.
     999901    1    3    3    0    0  0.11905507464E+00  0.89694901579E-01 -0.29653028678E-01  0.84871879222E+00  0.83500000000E+00 0.  1.
        -11    1    4    4    0    0 -0.75009344195E-01 -0.51735741620E-01  0.66409887039E-02  0.91363846950E-01  0.51100000000E-03 0. -1.
         11    1    4    4    0    0 -0.65808741917E-01 -0.40925933053E-01  0.25860482498E-01  0.81699132095E-01  0.51100000000E-03 0.  1.
</event>
<event>
 8    1  0.5616615E+005  0.1043930E+01  0.7957747E-01            NaN
         13   -1    0    0    0    0  0.00000000000E+00  0.00000000000E+00  0.74505805969E-08  0.10566000000E+00  0.10566000000E+00 0. -1.
     999900   -1    0    0    0    0 -0.00000000000E+00 -0.00000000000E+00 -0.74505805969E-08  0.93827000000E+00  0.93827000000E+00 0.  1.
     999902    2    1    2    0    0 -0.97377863762E-02  0.20496828594E-01  0.64338642854E-02  0.10203431588E+01  0.10200704989E+01 0.  0.
     999903    2    3    3    0    0  0.23882946678E-01 -0.13164004017E+00 -0.94588276718E-01  0.16494474086E+00  0.18982363557E-01 0.  0.
         14    1    1    2    0    0  0.97377863762E-02 -0.20496828594E-01 -0.64338642854E-02  0.23586841153E-01  0.00000000000E+00 0. -1.
     999901    1    3    3    0    0 -0.33620733054E-01  0.15213686876E+00  0.10102214100E+00  0.85539841799E+00  0.83500000000E+00 0. -1.
        -11    1    4    4    0    0  0.14609010522E-01 -0.33738281758E-01 -0.26965791970E-01  0.45597257615E-01  0.51100000000E-03 0. -1.
         11    1    4    4    0    0  0.92739361559E-02 -0.97901758410E-01 -0.67622484748E-01  0.11934748324E+00  0.51100000000E-03 0.  1.
</event>
<event>
 8    1  0.5616615E+005  0.1043930E+01  0.7957747E-01            NaN
         13   -1    0    0    0    0  0.00000000000E+00  0.00000000000E+00  0.74505805969E-08  0.10566000000E+00  0.10566000000E+00 0.  1.
     999900   -1    0    0    0    0 -0.00000000000E+00 -0.00000000000E+00 -0.74505805969E-08  0.93827000000E+00  0.93827000000E+00 0.  1.
     999902    2    1    2    0    0  0.24255513980E-02  0.80788259910E-02  0.23770596059E-01  0.10187071539E+01  0.10183948514E+01 0.  0.
     999903    2    3    3    0    0 -0.41508152234E-01  0.15353613406E+00 -0.46885601504E-01  0.16705857787E+00  0.20347915047E-01 0.  0.
         14    1    1    2    0    0 -0.24255513980E-02 -0.80788259910E-02 -0.23770596059E-01  0.25222846112E-01  0.00000000000E+00 0.  1.
     999901    1    3    3    0    0  0.43933703632E-01 -0.14545730807E+00  0.70656197563E-01  0.85164857602E+00  0.83500000000E+00 0. -1.
        -11    1    4    4    0    0 -0.43131953376E-01  0.13695962197E+00 -0.40289452579E-01  0.14913686520E+00  0.51100000000E-03 0. -1.
         11    1    4    4    0    0  0.16238011423E-02  0.16576512090E-01 -0.65961489245E-02  0.17921712665E-01  0.51100000000E-03 0.  1.
</event>
<event>
 8    1  0.5616615E+005  0.1043930E+01  0.7957747E-01            NaN
         13   -1    0    0    0    0  0.00000000000E+00  0.00000000000E+00  0.74505805969E-08  0.10566000000E+00  0.10566000000E+00 0. -1.
     999900   -1    0    0    0    0 -0.00000000000E+00 -0.00000000000E+00 -0.74505805969E-08  0.93827000000E+00  0.93827000000E+00 0. -1.
     999902    2    1    2    0    0 -0.13401514254E-01 -0.66088381666E-02  0.18107222770E-01  0.10204534406E+01  0.10201833539E+01 0.  0.
     999903    2    3    3    0    0 -0.11677470311E+00  0.30950781677E-01  0.12067793721E+00  0.17201812030E+00  0.20803533618E-01 0.  0.
         14    1    1    2    0    0  0.13401514254E-01  0.66088381666E-02 -0.18107222770E-01  0.23476559429E-01  0.00000000000E+00 0.  1.
     999901    1    3    3    0    0  0.10337318885E+00 -0.37559619844E-01 -0.10257071444E+00  0.84843532027E+00  0.83500000000E+00 0. -1.
        -11    1    4    4    0    0 -0.68738012614E-01  0.92834259152E-02  0.60656617679E-01  0.92144358287E-01  0.51100000000E-03 0.  1.
         11    1    4    4    0    0 -0.48036690491E-01  0.21667355762E-01  0.60021319534E-01  0.79873762016E-01  0.51100000000E-03 0. -1.
</event>
<event>
 8    1  0.5616615E+005  0.1043930E+01  0.7957747E-01            NaN
         13   -1    0    0    0    0  0.00000000000E+00  0.00000000000E+00  0.74505805969E-08  0.10566000000E+00  0.10566000000E+00 0.  1.
     999900   -1    0    0    0    0 -0.00000000000E+00 -0.00000000000E+00 -0.74505805969E-08  0.93827000000E+00  0.93827000000E+00 0. -1.
     999902    2    1    2    0    0  0.21608602900E-01 -0.82872683959E-02 -0.51782955199E-02  0.10202144928E+01  0.10199388149E+01 0.  0.
     999903    2    3    3    0    0  0.10001639171E+00 -0.28589723936E-01  0.13297729476E+00  0.16999573380E+00  0.19873038580E-01 0.  0.
         14    1    1    2    0    0 -0.21608602900E-01  0.82872683959E-02  0.51782955199E-02  0.23715507189E-01  0.00000000000E+00 0.  1.
     999901    1    3    3    0    0 -0.78407788815E-01  0.20302455540E-01 -0.13815559028E+00  0.85021875901E+00  0.83500000000E+00 0. -1.
        -11    1    4    4    0    0  0.42867882519E-01 -0.21320891068E-02  0.53407424402E-01  0.68518721951E-01  0.51100000000E-03 0. -1.
         11    1    4    4    0    0  0.57148509196E-01 -0.26457634829E-01  0.79569870357E-01  0.10147701185E+00  0.51100000000E-03 0.  1.
</event>
<event>
 8    1  0.5616615E+005  0.1043930E+01  0.7957747E-01            NaN
         13   -1    0    0    0    0  0.00000000000E+00  0.00000000000E+00  0.74505805969E-08  0.10566000000E+00  0.10566000000E+00 0. -1.
     999900   -1    0    0    0    0 -0.00000000000E+00 -0.00000000000E+00 -0.74505805969E-08  0.93827000000E+00  0.93827000000E+00 0.  1.
     999902    2    1    2    0    0  0.16837634635E-01  0.23577929846E-01 -0.68686443598E-02  0.10141541206E+01  0.10137169119E+01 0.  0.
     999903    2    3    3    0    0  0.14868539134E+00  0.70131618497E-01  0.21615359476E-01  0.16704880526E+00  0.20304927111E-01 0.  0.
         14    1    1    2    0    0 -0.16837634635E-01 -0.23577929846E-01  0.68686443598E-02  0.29775879353E-01  0.00000000000E+00 0.  1.
     999901    1    3    3    0    0 -0.13184775670E+00 -0.46553688651E-01 -0.28484003836E-01  0.84710531538E+00  0.83500000000E+00 0.  1.
        -11    1    4    4    0    0  0.81853351821E-01  0.47235547141E-01  0.18719671776E-01  0.96342386054E-01  0.51100000000E-03 0.  1.
         11    1    4    4    0    0  0.66832039516E-01  0.22896071356E-01  0.28956877001E-02  0.70706419211E-01  0.51100000000E-03 0. -1.
</event>
<event>
 8    1  0.5616615E+005  0.1043930E+01  0.7957747E-01            NaN
         13   -1    0    0    0    0  0.00000000000E+00  0.00000000000E+00  0.74505805969E-08  0.10566000000E+00  0.10566000000E+00 0. -1.
     999900   -1    0    0    0    0 -0.00000000000E+00 -0.00000000000E+00 -0.74505805969E-08  0.93827000000E+00  0.93827000000E+00 0. -1.
     999902    2    1    2    0    0  0.34174683192E-02 -0.22556908950E-01 -0.83636236505E-02  0.10196309582E+01  0.10193413793E+01 0.  0.
     999903    2    3    3    0    0  0.74260990030E-01 -0.15055255001E+00 -0.29910692265E-01  0.17163864406E+00  0.19606368037E-01 0.  0.
         14    1    1    2    0    0 -0.34174683192E-02  0.22556908950E-01  0.83636236505E-02  0.24299041785E-01  0.00000000000E+00 0.  1.
     999901    1    3    3    0    0 -0.70843521711E-01  0.12799564106E+00  0.21547068614E-01  0.84799231415E+00  0.83500000000E+00 0. -1.
        -11    1    4    4    0    0  0.66285167605E-01 -0.13886417837E+00 -0.22057232781E-01  0.15544698813E+00  0.51100000000E-03 0.  1.
         11    1    4    4    0    0  0.79758224252E-02 -0.11688371644E-01 -0.78534594836E-02  0.16191655935E-01  0.51100000000E-03 0. -1.
</event>
<event>
 8    1  0.5616615E+005  0.1043930E+01  0.7957747E-01            NaN
         13   -1    0    0    0    0  0.00000000000E+00  0.00000000000E+00  0.74505805969E-08  0.10566000000E+00  0.10566000000E+00 0. -1.
     999900   -1    0    0    0    0 -0.00000000000E+00 -0.00000000000E+00 -0.74505805969E-08  0.93827000000E+00  0.93827000000E+00 0. -1.
     999902    2    1    2    0    0  0.55754033583E-02  0.12921564351E-01 -0.18980118496E-01  0.10203016940E+01  0.10200280633E+01 0.  0.
     999903    2    3    3    0    0  0.85656510428E-02 -0.65621748961E-01 -0.15583931805E+00  0.17051734829E+00  0.20265455924E-01 0.  0.
         14    1    1    2    0    0 -0.55754033583E-02 -0.12921564351E-01  0.18980118496E-01  0.23628306034E-01  0.00000000000E+00 0. -1.
     999901    1    3    3    0    0 -0.29902476845E-02  0.78543313312E-01  0.13685919956E+00  0.84978434567E+00  0.83500000000E+00 0.  1.
        -11    1    4    4    0    0 -0.43134586941E-02 -0.20013428043E-01 -0.63572732012E-01  0.66789943887E-01  0.51100000000E-03 0.  1.
         11    1    4    4    0    0  0.12879109737E-01 -0.45608320918E-01 -0.92266586039E-01  0.10372740441E+00  0.51100000000E-03 0. -1.
</event>
<event>
 8    1  0.5616615E+005  0.1043930E+01  0.7957747E-01            NaN
         13   -1    0    0    0    0  0.00000000000E+00  0.00000000000E+00  0.74505805969E-08  0.10566000000E+00  0.10566000000E+00 0. -1.
     999900   -1    0    0    0    0 -0.00000000000E+00 -0.00000000000E+00 -0.74505805969E-08  0.93827000000E+00  0.93827000000E+00 0.  1.
     999902    2    1    2    0    0 -0.99762903188E-02 -0.15167572432E-01 -0.50070935045E-02  0.10250977774E+01  0.10249247781E+01 0.  0.
     999903    2    3    3    0    0 -0.12104033540E+00  0.11112885566E+00 -0.47621593303E-01  0.17226308919E+00  0.20158630728E-01 0.  0.
         14    1    1    2    0    0  0.99762903188E-02  0.15167572432E-01  0.50070935045E-02  0.18832222581E-01  0.00000000000E+00 0. -1.
     999901    1    3    3    0    0  0.11106404508E+00 -0.12629642809E+00  0.42614499798E-01  0.85283468823E+00  0.83500000000E+00 0. -1.
        -11    1    4    4    0    0 -0.49162599906E-01  0.40141423452E-01 -0.89897277959E-02  0.64104379204E-01  0.51100000000E-03 0.  1.
         11    1    4    4    0    0 -0.71877735493E-01  0.70987432211E-01 -0.38631865507E-01  0.10815870998E+00  0.51100000000E-03 0. -1.
</event>
<event>
 8    1  0.5839104E+005  0.1043930E+01  0.7957747E-01            NaN
         13   -1    0    0    0    0  0.00000000000E+00  0.00000000000E+00  0.74505805969E-08  0.10566000000E+00  0.10566000000E+00 0.  1.
     999900   -1    0    0    0    0 -0.00000000000E+00 -0.00000000000E+00 -0.74505805969E-08  0.93827000000E+00  0.93827000000E+00 0.  1.
     999902    2    1    2    0    0  0.49660529450E-02 -0.14034136916E-01 -0.17593146699E-01  0.10208835796E+01  0.10206234103E+01 0.  0.
     999903    2    3    3    0    0  0.15534693839E+00 -0.21560593166E-01 -0.65415761318E-01  0.17107003496E+00  0.19702908106E-01 0.  0.
         14    1    1    2    0    0 -0.49660529450E-02  0.14034136916E-01  0.17593146699E-01  0.23046420364E-01  0.00000000000E+00 0.  1.
     999901    1    3    3    0    0 -0.15038088544E+00  0.75264562498E-02  0.47822614619E-01  0.84981354468E+00  0.83500000000E+00 0. -1.
        -11    1    4    4    0    0  0.78802874907E-01 -0.11019125841E-02 -0.34107775640E-01  0.85876124651E-01  0.51100000000E-03 0. -1.
         11    1    4    4    0    0  0.76544063479E-01 -0.20458680582E-01 -0.31307985678E-01  0.85193910306E-01  0.51100000000E-03 0.  1.
</event>
<event>
 8    1  0.5616615E+005  0.1043930E+01  0.7957747E-01            NaN
         13   -1    0    0    0    0  0.00000000000E+00  0.00000000000E+00  0.74505805969E-08  0.10566000000E+00  0.10566000000E+00 0. -1.
     999900   -1    0    0    0    0 -0.00000000000E+00 -0.00000000000E+00 -0.74505805969E-08  0.93827000000E+00  0.93827000000E+00 0. -1.
     999902    2    1    2    0    0 -0.16376909963E-01 -0.11572710420E-01  0.11595716251E-01  0.10207655565E+01  0.10205026849E+01 0.  0.
     999903    2    3    3    0    0  0.72918939565E-01 -0.87495954133E-01  0.12476296238E+00  0.17001887667E+00  0.19180925589E-01 0.  0.
         14    1    1    2    0    0  0.16376909963E-01  0.11572710420E-01 -0.11595716251E-01  0.23164443481E-01  0.00000000000E+00 0.  1.
     999901    1    3    3    0    0 -0.89295849528E-01  0.75923243713E-01 -0.11316724612E+00  0.85074667985E+00  0.83500000000E+00 0. -1.
        -11    1    4    4    0    0  0.10595754949E-01 -0.25124018875E-01  0.31745772970E-01  0.41851422554E-01  0.51100000000E-03 0.  1.
         11    1    4    4    0    0  0.62323184616E-01 -0.62371935258E-01  0.93017189407E-01  0.12816745412E+00  0.51100000000E-03 0. -1.
</event>
<event>
 8    1  0.5616615E+005  0.1043930E+01  0.7957747E-01            NaN
         13   -1    0    0    0    0  0.00000000000E+00  0.00000000000E+00  0.74505805969E-08  0.10566000000E+00  0.10566000000E+00 0.  1.
     999900   -1    0    0    0    0 -0.00000000000E+00 -0.00000000000E+00 -0.74505805969E-08  0.93827000000E+00  0.93827000000E+00 0. -1.
     999902    2    1    2    0    0  0.10672594632E-01 -0.17664431988E-01  0.58059088321E-02  0.10224906667E+01  0.10222658747E+01 0.  0.
     999903    2    3    3    0    0  0.16386463048E+00  0.45623712471E-02 -0.46452573720E-01  0.17165708745E+00  0.20877780396E-01 0.  0.
         14    1    1    2    0    0 -0.10672594632E-01  0.17664431988E-01 -0.58059088321E-02  0.21439333268E-01  0.00000000000E+00 0.  1.
     999901    1    3    3    0    0 -0.15319203585E+00 -0.22226803235E-01  0.52258482552E-01  0.85083357928E+00  0.83500000000E+00 0.  1.
        -11    1    4    4    0    0  0.10007345753E+00  0.18468045629E-02 -0.17758580830E-01  0.10165498464E+00  0.51100000000E-03 0. -1.
         11    1    4    4    0    0  0.63791172953E-01  0.27155666842E-02 -0.28693992889E-01  0.70002102812E-01  0.51100000000E-03 0.  1.
</event>
<event>
 8    1  0.5616615E+005  0.1043930E+01  0.7957747E-01            NaN
         13   -1    0    0    0    0  0.00000000000E+00  0.00000000000E+00  0.74505805969E-08  0.10566000000E+00  0.10566000000E+00 0. -1.
     999900   -1    0    0    0    0 -0.00000000000E+00 -0.00000000000E+00 -0.74505805969E-08  0.93827000000E+00  0.93827000000E+00 0. -1.
     999902    2    1    2    0    0 -0.23103561131E-01 -0.24904098881E-02 -0.19184794543E-02  0.10206135414E+01  0.10203471682E+01 0.  0.
     999903    2    3    3    0    0 -0.61484048417E-01  0.15228986844E+00  0.37178273227E-01  0.16962379267E+00  0.20433178974E-01 0.  0.
         14    1    1    2    0    0  0.23103561131E-01  0.24904098881E-02  0.19184794543E-02  0.23316458602E-01  0.00000000000E+00 0. -1.
     999901    1    3    3    0    0  0.38380487287E-01 -0.15478027832E+00 -0.39096752681E-01  0.85098974872E+00  0.83500000000E+00 0. -1.
        -11    1    4    4    0    0 -0.11886029184E-01  0.19918049159E-01  0.11709992840E-01  0.25988294006E-01  0.51100000000E-03 0.  1.
         11    1    4    4    0    0 -0.49598019233E-01  0.13237181928E+00  0.25468280387E-01  0.14363549867E+00  0.51100000000E-03 0. -1.
</event>
<event>
 8    1  0.5616615E+005  0.1043930E+01  0.7957747E-01            NaN
         13   -1    0    0    0    0  0.00000000000E+00  0.00000000000E+00  0.74505805969E-08  0.10566000000E+00  0.10566000000E+00 0.  1.
     999900   -1    0    0    0    0 -0.00000000000E+00 -0.00000000000E+00 -0.74505805969E-08  0.93827000000E+00  0.93827000000E+00 0. -1.
     999902    2    1    2    0    0 -0.25286215877E-02  0.21708309932E-01 -0.68254335357E-02  0.10210339045E+01  0.10207771563E+01 0.  0.
     999903    2    3    3    0    0 -0.64169596835E-01  0.27339862652E-01 -0.15456569768E+00  0.17080834037E+00  0.20487288517E-01 0.  0.
         14    1    1    2    0    0  0.25286215877E-02 -0.21708309932E-01  0.68254335357E-02  0.22896095523E-01  0.00000000000E+00 0.  1.
     999901    1    3    3    0    0  0.61640975247E-01 -0.56315527195E-02  0.14774026415E+00  0.85022556411E+00  0.83500000000E+00 0. -1.
        -11    1    4    4    0    0 -0.34039551186E-01  0.21448585549E-01 -0.10566766910E+00  0.11306922783E+00  0.51100000000E-03 0.  1.
         11    1    4    4    0    0 -0.30130045649E-01  0.58912771027E-02 -0.48898028581E-01  0.57739112540E-01  0.51100000000E-03 0. -1.
</event>
<event>
 8    1  0.5616615E+005  0.1043930E+01  0.7957747E-01            NaN
         13   -1    0    0    0    0  0.00000000000E+00  0.00000000000E+00  0.74505805969E-08  0.10566000000E+00  0.10566000000E+00 0.  1.
     999900   -1    0    0    0    0 -0.00000000000E+00 -0.00000000000E+00 -0.74505805969E-08  0.93827000000E+00  0.93827000000E+00 0.  1.
     999902    2    1    2    0    0  0.12397759389E-01  0.14391070821E-01 -0.13071007653E-01  0.10208722768E+01  0.10206118493E+01 0.  0.
     999903    2    3    3    0    0  0.94127630649E-01  0.10475553998E+00 -0.98179260421E-01  0.17274851001E+00  0.19213186227E-01 0.  0.
         14    1    1    2    0    0 -0.12397759389E-01 -0.14391070821E-01  0.13071007653E-01  0.23057723181E-01  0.00000000000E+00 0. -1.
     999901    1    3    3    0    0 -0.81729871259E-01 -0.90364469158E-01  0.85108252768E-01  0.84812376681E+00  0.83500000000E+00 0. -1.
        -11    1    4    4    0    0  0.77785196086E-01  0.86212774355E-01 -0.89282229722E-01  0.14647442390E+00  0.51100000000E-03 0.  1.
         11    1    4    4    0    0  0.16342434563E-01  0.18542765624E-01 -0.88970306991E-02  0.26274086106E-01  0.51100000000E-03 0. -1.
</event>
<event>
 8    1  0.5616615E+005  0.1043930E+01  0.7957747E-01            NaN
         13   -1    0    0    0    0  0.00000000000E+00  0.00000000000E+00  0.74505805969E-08  0.10566000000E+00  0.10566000000E+00 0. -1.
     999900   -1    0    0    0    0 -0.00000000000E+00 -0.00000000000E+00 -0.74505805969E-08  0.93827000000E+00  0.93827000000E+00 0.  1.
     999902    2    1    2    0    0  0.94562273723E-02  0.14221521951E-02  0.24011866594E-01  0.10180840624E+01  0.10177559362E+01 0.  0.
     999903    2    3    3    0    0  0.89675591125E-01  0.13834531923E+00  0.26274552582E-01  0.16813511115E+00  0.19948044786E-01 0.  0.
         14    1    1    2    0    0 -0.94562273723E-02 -0.14221521951E-02 -0.24011866594E-01  0.25845937597E-01  0.00000000000E+00 0.  1.
     999901    1    3    3    0    0 -0.80219363753E-01 -0.13692316703E+00 -0.22626859888E-02  0.84994895126E+00  0.83500000000E+00 0. -1.
        -11    1    4    4    0    0  0.81392761646E-01  0.11463533390E+00  0.26208916923E-01  0.14301471908E+00  0.51100000000E-03 0. -1.
         11    1    4    4    0    0  0.82828294792E-02  0.23709985328E-01  0.65635659440E-04  0.25120392065E-01  0.51100000000E-03 0.  1.
</event>
<event>
 8    1  0.5616615E+005  0.1043930E+01  0.7957747E-01            NaN
         13   -1    0    0    0    0  0.00000000000E+00  0.00000000000E+00  0.74505805969E-08  0.10566000000E+00  0.10566000000E+00 0.  1.
     999900   -1    0    0    0    0 -0.00000000000E+00 -0.00000000000E+00 -0.74505805969E-08  0.93827000000E+00  0.93827000000E+00 0.  1.
     999902    2    1    2    0    0 -0.14844366425E-01 -0.18079132939E-01 -0.74915444572E-02  0.10193671520E+01  0.10190711737E+01 0.  0.
     999903    2    3    3    0    0  0.15503264342E+00  0.37726405788E-01  0.33396992601E-01  0.16445819249E+00  0.21742487014E-01 0.  0.
         14    1    1    2    0    0  0.14844366425E-01  0.18079132939E-01  0.74915444572E-02  0.24562847977E-01  0.00000000000E+00 0.  1.
     999901    1    3    3    0    0 -0.16987700985E+00 -0.55805538728E-01 -0.40888537058E-01  0.85490895953E+00  0.83500000000E+00 0.  1.
        -11    1    4    4    0    0  0.22798629773E-01  0.13086071391E-01  0.87321750442E-02  0.27704418167E-01  0.51100000000E-03 0.  1.
         11    1    4    4    0    0  0.13223401365E+00  0.24640334398E-01  0.24664817556E-01  0.13675377432E+00  0.51100000000E-03 0. -1.
</event>
<event>
 8    1  0.5616615E+005  0.1043930E+01  0.7957747E-01            NaN
         13   -1    0    0    0    0  0.00000000000E+00  0.00000000000E+00  0.74505805969E-08  0.10566000000E+00  0.10566000000E+00 0.  1.
     999900   -1    0    0    0    0 -0.00000000000E+00 -0.00000000000E+00 -0.74505805969E-08  0.93827000000E+00  0.93827000000E+00 0.  1.
     999902    2    1    2    0    0  0.15436740810E-01 -0.15476492144E-01  0.13933272845E-01  0.10180079849E+01  0.10176778991E+01 0.  0.
     999903    2    3    3    0    0  0.23965488233E-01  0.13779442935E+00 -0.82285099385E-01  0.16357970230E+00  0.20635698118E-01 0.  0.
         14    1    1    2    0    0 -0.15436740810E-01  0.15476492144E-01 -0.13933272845E-01  0.25922015124E-01  0.00000000000E+00 0.  1.
     999901    1    3    3    0    0 -0.85287474233E-02 -0.15327092150E+00  0.96218372229E-01  0.85442828257E+00  0.83500000000E+00 0. -1.
        -11    1    4    4    0    0  0.25715811387E-01  0.12220175821E+00 -0.67219761106E-01  0.14182147252E+00  0.51100000000E-03 0.  1.
         11    1    4    4    0    0 -0.17503231536E-02  0.15592671145E-01 -0.15065338279E-01  0.21758229777E-01  0.51100000000E-03 0. -1.
</event>
<event>
 8    1  0.5616615E+005  0.1043930E+01  0.7957747E-01            NaN
         13   -1    0    0    0    0  0.00000000000E+00  0.00000000000E+00  0.74505805969E-08  0.10566000000E+00  0.10566000000E+00 0.  1.
     999900   -1    0    0    0    0 -0.00000000000E+00 -0.00000000000E+00 -0.74505805969E-08  0.93827000000E+00  0.93827000000E+00 0.  1.
     999902    2    1    2    0    0 -0.10368031206E-01  0.65624133303E-02  0.20087602597E-01  0.10203912422E+01  0.10201197058E+01 0.  0.
     999903    2    3    3    0    0  0.73169843295E-01  0.68832923672E-01 -0.13018973676E+00  0.16560210351E+00  0.19567620677E-01 0.  0.
         14    1    1    2    0    0  0.10368031206E-01 -0.65624133303E-02 -0.20087602597E-01  0.23538757782E-01  0.00000000000E+00 0. -1.
     999901    1    3    3    0    0 -0.83537874501E-01 -0.62270510341E-01  0.15027733936E+00  0.85478913871E+00  0.83500000000E+00 0. -1.
        -11    1    4    4    0    0  0.69364592152E-01  0.61500611803E-01 -0.11045762499E+00  0.14420443799E+00  0.51100000000E-03 0. -1.
         11    1    4    4    0    0  0.38052511432E-02  0.73323118686E-02 -0.19732111776E-01  0.21397665521E-01  0.51100000000E-03 0.  1.
</event>
<event>
 8    1  0.5616615E+005  0.1043930E+01  0.7957747E-01            NaN
         13   -1    0    0    0    0  0.00000000000E+00  0.00000000000E+00  0.74505805969E-08  0.10566000000E+00  0.10566000000E+00 0. -1.
     999900   -1    0    0    0    0 -0.00000000000E+00 -0.00000000000E+00 -0.74505805969E-08  0.93827000000E+00  0.93827000000E+00 0. -1.
     999902    2    1    2    0    0 -0.81191629777E-02  0.19196798403E-01 -0.94188719043E-02  0.10210574613E+01  0.10208012472E+01 0.  0.
     999903    2    3    3    0    0  0.13351498906E+00 -0.75081128727E-01  0.60733562307E-01  0.16601657075E+00  0.20236303496E-01 0.  0.
         14    1    1    2    0    0  0.81191629777E-02 -0.19196798403E-01  0.94188719043E-02  0.22872538651E-01  0.00000000000E+00 0. -1.
     999901    1    3    3    0    0 -0.14163415204E+00  0.94277927130E-01 -0.70152434212E-01  0.85504089060E+00  0.83500000000E+00 0. -1.
        -11    1    4    4    0    0  0.12736153132E+00 -0.73910030524E-01  0.54098459495E-01  0.15687752138E+00  0.51100000000E-03 0.  1.
         11    1    4    4    0    0  0.61534577348E-02 -0.11710982025E-02  0.66351028126E-02  0.91390493722E-02  0.51100000000E-03 0. -1.
</event>
<event>
 8    1  0.5616615E+005  0.1043930E+01  0.7957747E-01            NaN
         13   -1    0    0    0    0  0.00000000000E+00  0.00000000000E+00  0.74505805969E-08  0.10566000000E+00  0.10566000000E+00 0.  1.
     999900   -1    0    0    0    0 -0.00000000000E+00 -0.00000000000E+00 -0.74505805969E-08  0.93827000000E+00  0.93827000000E+00 0.  1.
     999902    2    1    2    0    0  0.64932135613E-03  0.16060308104E-01  0.17263942357E-01  0.10203418924E+01  0.10200692028E+01 0.  0.
     999903    2    3    3    0    0 -0.13765179191E+00  0.82914289195E-01 -0.47901691588E-01  0.16883251924E+00  0.19673645532E-01 0.  0.
         14    1    1    2    0    0 -0.64932135613E-03 -0.16060308104E-01 -0.17263942357E-01  0.23588107604E-01  0.00000000000E+00 0. -1.
     999901    1    3    3    0    0  0.13830111327E+00 -0.66853981091E-01  0.65165633945E-01  0.85150937315E+00  0.83500000000E+00 0. -1.
        -11    1    4    4    0    0 -0.49528999348E-01  0.31800957431E-01 -0.27350455471E-01  0.64905556044E-01  0.51100000000E-03 0.  1.
         11    1    4    4    0    0 -0.88122792563E-01  0.51113331764E-01 -0.20551236116E-01  0.10392696320E+00  0.51100000000E-03 0. -1.
</event>
<event>
 8    1  0.5616615E+005  0.1043930E+01  0.7957747E-01            NaN
         13   -1    0    0    0    0  0.00000000000E+00  0.00000000000E+00  0.74505805969E-08  0.10566000000E+00  0.10566000000E+00 0. -1.
     999900   -1    0    0    0    0 -0.00000000000E+00 -0.00000000000E+00 -0.74505805969E-08  0.93827000000E+00  0.93827000000E+00 0.  1.
     999902    2    1    2    0    0 -0.12175891817E-01  0.72314430876E-02  0.18890838958E-01  0.10203204700E+01  0.10200472791E+01 0.  0.
     999903    2    3    3    0    0  0.13054926177E-01 -0.10305269133E+00  0.13302270212E+00  0.16999684532E+00  0.20337154508E-01 0.  0.
         14    1    1    2    0    0  0.12175891817E-01 -0.72314430876E-02 -0.18890838958E-01  0.23609530008E-01  0.00000000000E+00 0.  1.
     999901    1    3    3    0    0 -0.25230817994E-01  0.11028413442E+00 -0.11413186316E+00  0.85032362467E+00  0.83500000000E+00 0.  1.
        -11    1    4    4    0    0  0.13412404250E-01 -0.31747448257E-01  0.40433884461E-01  0.53131470826E-01  0.51100000000E-03 0. -1.
         11    1    4    4    0    0 -0.35747807267E-03 -0.71305243075E-01  0.92588817655E-01  0.11686537450E+00  0.51100000000E-03 0.  1.
</event>
<event>
 8    1  0.5616615E+005  0.1043930E+01  0.7957747E-01            NaN
         13   -1    0    0    0    0  0.00000000000E+00  0.00000000000E+00  0.74505805969E-08  0.10566000000E+00  0.10566000000E+00 0. -1.
     999900   -1    0    0    0    0 -0.00000000000E+00 -0.00000000000E+00 -0.74505805969E-08  0.93827000000E+00  0.93827000000E+00 0.  1.
     999902    2    1    2    0    0  0.27884923882E-01  0.59644346124E-02  0.69316546731E-02  0.10145839390E+01  0.10141594441E+01 0.  0.
     999903    2    3    3    0    0 -0.66720161255E-01 -0.35268177720E-01 -0.14013251309E+00  0.16047439105E+00  0.20481325128E-01 0.  0.
         14    1    1    2    0    0 -0.27884923882E-01 -0.59644346124E-02 -0.69316546731E-02  0.29346061008E-01  0.00000000000E+00 0. -1.
     999901    1    3    3    0    0  0.94605085137E-01  0.41232612333E-01  0.14706416776E+00  0.85410954795E+00  0.83500000000E+00 0.  1.
        -11    1    4    4    0    0 -0.46230364741E-01 -0.23132851373E-01 -0.11365040819E+00  0.12485612456E+00  0.51100000000E-03 0.  1.
         11    1    4    4    0    0 -0.20489796514E-01 -0.12135326347E-01 -0.26482104902E-01  0.35618266490E-01  0.51100000000E-03 0. -1.
</event>
<event>
 8    1  0.5616615E+005  0.1043930E+01  0.7957747E-01            NaN
         13   -1    0    0    0    0  0.00000000000E+00  0.00000000000E+00  0.74505805969E-08  0.10566000000E+00  0.10566000000E+00 0. -1.
     999900   -1    0    0    0    0 -0.00000000000E+00 -0.00000000000E+00 -0.74505805969E-08  0.93827000000E+00  0.93827000000E+00 0. -1.
     999902    2    1    2    0    0 -0.11561760587E-01  0.46155223297E-02  0.21812905062E-01  0.10188146624E+01  0.10185050497E+01 0.  0.
     999903    2    3    3    0    0  0.12777364247E+00 -0.64372625609E-01 -0.77086113872E-01  0.16372417888E+00  0.19834292537E-01 0.  0.
         14    1    1    2    0    0  0.11561760587E-01 -0.46155223297E-02 -0.21812905062E-01  0.25115337575E-01  0.00000000000E+00 0.  1.
     999901    1    3    3    0    0 -0.13933540306E+00  0.68988147939E-01  0.98899018934E-01  0.85509048354E+00  0.83500000000E+00 0. -1.
        -11    1    4    4    0    0  0.12958871636E-01 -0.10727118125E-01 -0.35383338740E-02  0.17198382044E-01  0.51100000000E-03 0. -1.
         11    1    4    4    0    0  0.11481477083E+00 -0.53645507484E-01 -0.73547779998E-01  0.14652579684E+00  0.51100000000E-03 0.  1.
</event>
<event>
 8    1  0.5616615E+005  0.1043930E+01  0.7957747E-01            NaN
         13   -1    0    0    0    0  0.00000000000E+00  0.00000000000E+00  0.74505805969E-08  0.10566000000E+00  0.10566000000E+00 0.  1.
     999900   -1    0    0    0    0 -0.00000000000E+00 -0.00000000000E+00 -0.74505805969E-08  0.93827000000E+00  0.93827000000E+00 0.  1.
     999902    2    1    2    0    0  0.19752326173E-01  0.11945759353E-01  0.33451558619E-02  0.10206052144E+01  0.10203386487E+01 0.  0.
     999903    2    3    3    0    0  0.15893535907E+00 -0.39173560584E-01  0.46745077931E-01  0.17143287926E+00  0.20226556045E-01 0.  0.
         14    1    1    2    0    0 -0.19752326173E-01 -0.11945759353E-01 -0.33451558619E-02  0.23324785605E-01  0.00000000000E+00 0.  1.
     999901    1    3    3    0    0 -0.13918303290E+00  0.51119319937E-01 -0.43399922069E-01  0.84917233513E+00  0.83500000000E+00 0.  1.
        -11    1    4    4    0    0  0.12875727386E+00 -0.25170684719E-01  0.32012896167E-01  0.13504475401E+00  0.51100000000E-03 0.  1.
         11    1    4    4    0    0  0.30178085207E-01 -0.14002875864E-01  0.14732181764E-01  0.36388125258E-01  0.51100000000E-03 0. -1.
</event>
<event>
 8    1  0.5616615E+005  0.1043930E+01  0.7957747E-01            NaN
         13   -1    0    0    0    0  0.00000000000E+00  0.00000000000E+00  0.74505805969E-08  0.10566000000E+00  0.10566000000E+00 0.  1.
     999900   -1    0    0    0    0 -0.00000000000E+00 -0.00000000000E+00 -0.74505805969E-08  0.93827000000E+00  0.93827000000E+00 0.  1.
     999902    2    1    2    0    0  0.11530480065E-01 -0.15476100198E-01 -0.12385164826E-01  0.10209984943E+01  0.10207409423E+01 0.  0.
     999903    2    3    3    0    0 -0.40034878112E-01 -0.47960833482E-01  0.15437542545E+00  0.16733091345E+00  0.16273585931E-01 0.  0.
         14    1    1    2    0    0 -0.11530480065E-01  0.15476100198E-01  0.12385164826E-01  0.22931505743E-01  0.00000000000E+00 0.  1.
     999901    1    3    3    0    0  0.51565358177E-01  0.32484733284E-01 -0.16676059027E+00  0.85366758081E+00  0.83500000000E+00 0.  1.
        -11    1    4    4    0    0 -0.85067882502E-02 -0.16919596522E-01  0.63330772546E-01  0.66103601000E-01  0.51100000000E-03 0. -1.
         11    1    4    4    0    0 -0.31528089862E-01 -0.31041236960E-01  0.91044652900E-01  0.10122731245E+00  0.51100000000E-03 0.  1.
</event>
<event>
 8    1  0.5616615E+005  0.1043930E+01  0.7957747E-01            NaN
         13   -1    0    0    0    0  0.00000000000E+00  0.00000000000E+00  0.74505805969E-08  0.10566000000E+00  0.10566000000E+00 0. -1.
     999900   -1    0    0    0    0 -0.00000000000E+00 -0.00000000000E+00 -0.74505805969E-08  0.93827000000E+00  0.93827000000E+00 0. -1.
     999902    2    1    2    0    0 -0.47656826304E-02 -0.20731428851E-01 -0.13535835303E-02  0.10226148396E+01  0.10223926712E+01 0.  0.
     999903    2    3    3    0    0  0.14912389404E+00  0.27135663489E-01  0.72115165727E-01  0.16903653774E+00  0.19961812531E-01 0.  0.
         14    1    1    2    0    0  0.47656826304E-02  0.20731428851E-01  0.13535835303E-02  0.21315160368E-01  0.00000000000E+00 0. -1.
     999901    1    3    3    0    0 -0.15388957667E+00 -0.47867092340E-01 -0.73468749258E-01  0.85357830189E+00  0.83500000000E+00 0. -1.
        -11    1    4    4    0    0  0.90316055922E-01  0.24331133022E-01  0.37777125135E-01  0.10087797726E+00  0.51100000000E-03 0. -1.
         11    1    4    4    0    0  0.58807838113E-01  0.28045304666E-02  0.34338040592E-01  0.68158560485E-01  0.51100000000E-03 0.  1.
</event>
<event>
 8    1  0.5616615E+005  0.1043930E+01  0.7957747E-01            NaN
         13   -1    0    0    0    0  0.00000000000E+00  0.00000000000E+00  0.74505805969E-08  0.10566000000E+00  0.10566000000E+00 0.  1.
     999900   -1    0    0    0    0 -0.00000000000E+00 -0.00000000000E+00 -0.74505805969E-08  0.93827000000E+00  0.93827000000E+00 0. -1.
     999902    2    1    2    0    0 -0.22563353905E-01  0.27849210775E-02 -0.98020244616E-02  0.10191723667E+01  0.10188716173E+01 0.  0.
     999903    2    3    3    0    0  0.11299996272E+00  0.16925024903E-01  0.11575430982E+00  0.16385561339E+00  0.19853305881E-01 0.  0.
         14    1    1    2    0    0  0.22563353905E-01 -0.27849210775E-02  0.98020244616E-02  0.24757633336E-01  0.00000000000E+00 0.  1.
     999901    1    3    3    0    0 -0.13556331663E+00 -0.14140103826E-01 -0.12555633428E+00  0.85531675327E+00  0.83500000000E+00 0.  1.
        -11    1    4    4    0    0  0.37858080951E-01  0.74750558392E-03  0.49868101618E-01  0.62616944495E-01  0.51100000000E-03 0.  1.
         11    1    4    4    0    0  0.75141881773E-01  0.16177519319E-01  0.65886208202E-01  0.10123866890E+00  0.51100000000E-03 0. -1.
</event>
<event>
 8    1  0.5616615E+005  0.1043930E+01  0.7957747E-01            NaN
         13   -1    0    0    0    0  0.00000000000E+00  0.00000000000E+00  0.74505805969E-08  0.10566000000E+00  0.10566000000E+00 0. -1.
     999900   -1    0    0    0    0 -0.00000000000E+00 -0.00000000000E+00 -0.74505805969E-08  0.93827000000E+00  0.93827000000E+00 0.  1.
     999902    2    1    2    0    0 -0.58016021628E-03 -0.14901327352E-02 -0.23596465737E-01  0.10202794128E+01  0.10200052597E+01 0.  0.
     999903    2    3    3    0    0 -0.64173817293E-01  0.76727437355E-01  0.13014719347E+00  0.16527984888E+00  0.19332822089E-01 0.  0.
         14    1    1    2    0    0  0.58016021628E-03  0.14901327352E-02  0.23596465737E-01  0.23650587239E-01  0.00000000000E+00 0. -1.
     999901    1    3    3    0    0  0.63593657077E-01 -0.78217570090E-01 -0.15374365920E+00  0.85499956388E+00  0.83500000000E+00 0.  1.
        -11    1    4    4    0    0 -0.26586888146E-01  0.29289791339E-01  0.67019109737E-01  0.77824011005E-01  0.51100000000E-03 0. -1.
         11    1    4    4    0    0 -0.37586929148E-01  0.47437646016E-01  0.63128083729E-01  0.87455837876E-01  0.51100000000E-03 0.  1.
</event>
<event>
 8    1  0.5616615E+005  0.1043930E+01  0.7957747E-01            NaN
         13   -1    0    0    0    0  0.00000000000E+00  0.00000000000E+00  0.74505805969E-08  0.10566000000E+00  0.10566000000E+00 0. -1.
     999900   -1    0    0    0    0 -0.00000000000E+00 -0.00000000000E+00 -0.74505805969E-08  0.93827000000E+00  0.93827000000E+00 0.  1.
     999902    2    1    2    0    0 -0.17035810259E-01  0.15268229096E-01 -0.32128589954E-02  0.10208289153E+01  0.10205674962E+01 0.  0.
     999903    2    3    3    0    0  0.97129785888E-01  0.13369435632E+00  0.29116027397E-01  0.16916660673E+00  0.21476069563E-01 0.  0.
         14    1    1    2    0    0  0.17035810259E-01 -0.15268229096E-01  0.32128589954E-02  0.23101084690E-01  0.00000000000E+00 0. -1.
     999901    1    3    3    0    0 -0.11416559615E+00 -0.11842612723E+00 -0.32328886392E-01  0.85166230858E+00  0.83500000000E+00 0.  1.
        -11    1    4    4    0    0  0.42459514297E-01  0.42965504817E-01  0.15516464253E-01  0.62368796224E-01  0.51100000000E-03 0. -1.
         11    1    4    4    0    0  0.54670271591E-01  0.90728851505E-01  0.13599563144E-01  0.10679781051E+00  0.51100000000E-03 0.  1.
</event>
<event>
 8    1  0.5616615E+005  0.1043930E+01  0.7957747E-01            NaN
         13   -1    0    0    0    0  0.00000000000E+00  0.00000000000E+00  0.74505805969E-08  0.10566000000E+00  0.10566000000E+00 0. -1.
     999900   -1    0    0    0    0 -0.00000000000E+00 -0.00000000000E+00 -0.74505805969E-08  0.93827000000E+00  0.93827000000E+00 0.  1.
     999902    2    1    2    0    0  0.16483374674E-01  0.10971660043E-02 -0.17204987906E-01  0.10200780185E+01  0.10197991208E+01 0.  0.
     999903    2    3    3    0    0  0.65285561359E-01 -0.59695547333E-01  0.14018143356E+00  0.16680614323E+00  0.18646506674E-01 0.  0.
         14    1    1    2    0    0 -0.16483374674E-01 -0.10971660043E-02  0.17204987906E-01  0.23851981526E-01  0.00000000000E+00 0. -1.
     999901    1    3    3    0    0 -0.48802186685E-01  0.60792713337E-01 -0.15738642147E+00  0.85327187524E+00  0.83500000000E+00 0.  1.
        -11    1    4    4    0    0  0.15149151233E-01 -0.56892440488E-02  0.32689839987E-01  0.36479460527E-01  0.51100000000E-03 0. -1.
         11    1    4    4    0    0  0.50136410127E-01 -0.54006303284E-01  0.10749159357E+00  0.13032668270E+00  0.51100000000E-03 0.  1.
</event>
<event>
 8    1  0.5616615E+005  0.1043930E+01  0.7957747E-01            NaN
         13   -1    0    0    0    0  0.00000000000E+00  0.00000000000E+00  0.74505805969E-08  0.10566000000E+00  0.10566000000E+00 0. -1.
     999900   -1    0    0    0    0 -0.00000000000E+00 -0.00000000000E+00 -0.74505805969E-08  0.93827000000E+00  0.93827000000E+00 0.  1.
     999902    2    1    2    0    0 -0.90329329685E-02  0.55025149861E-02 -0.22382444439E-01  0.10191742861E+01  0.10188735840E+01 0.  0.
     999903    2    3    3    0    0  0.12644302090E+00 -0.69993338493E-01  0.75396927082E-01  0.16428296939E+00  0.20427737311E-01 0.  0.
         14    1    1    2    0    0  0.90329329685E-02 -0.55025149861E-02  0.22382444439E-01  0.24755713851E-01  0.00000000000E+00 0. -1.
     999901    1    3    3    0    0 -0.13547595387E+00  0.75495853480E-01 -0.97779371522E-01  0.85489131676E+00  0.83500000000E+00 0.  1.
        -11    1    4    4    0    0  0.75515357028E-01 -0.34843027928E-01  0.52219282959E-01  0.98202445876E-01  0.51100000000E-03 0.  1.
         11    1    4    4    0    0  0.50927663872E-01 -0.35150310565E-01  0.23177644123E-01  0.66080523518E-01  0.51100000000E-03 0. -1.
</event>
<event>
 8    1  0.5616615E+005  0.1043930E+01  0.7957747E-01            NaN
         13   -1    0    0    0    0  0.00000000000E+00  0.00000000000E+00  0.74505805969E-08  0.10566000000E+00  0.10566000000E+00 0.  1.
     999900   -1    0    0    0    0 -0.00000000000E+00 -0.00000000000E+00 -0.74505805969E-08  0.93827000000E+00  0.93827000000E+00 0.  1.
     999902    2    1    2    0    0  0.15263871890E-01  0.17408348984E-01  0.14924705937E-02  0.10207294856E+01  0.10204657853E+01 0.  0.
     999903    2    3    3    0    0  0.63937466892E-01 -0.66247490206E-01  0.14010805871E+00  0.16878658873E+00  0.19542640238E-01 0.  0.
         14    1    1    2    0    0 -0.15263871890E-01 -0.17408348984E-01 -0.14924705937E-02  0.23200514389E-01  0.00000000000E+00 0. -1.
     999901    1    3    3    0    0 -0.48673595002E-01  0.83655839189E-01 -0.13861558812E+00  0.85194289688E+00  0.83500000000E+00 0.  1.
        -11    1    4    4    0    0  0.38292213359E-01 -0.25637331827E-01  0.69258430071E-01  0.83189889073E-01  0.51100000000E-03 0. -1.
         11    1    4    4    0    0  0.25645253533E-01 -0.40610158379E-01  0.70849628641E-01  0.85596699655E-01  0.51100000000E-03 0.  1.
</event>
<event>
 8    1  0.5616615E+005  0.1043930E+01  0.7957747E-01            NaN
         13   -1    0    0    0    0  0.00000000000E+00  0.00000000000E+00  0.74505805969E-08  0.10566000000E+00  0.10566000000E+00 0.  1.
     999900   -1    0    0    0    0 -0.00000000000E+00 -0.00000000000E+00 -0.74505805969E-08  0.93827000000E+00  0.93827000000E+00 0.  1.
     999902    2    1    2    0    0 -0.14413580600E-01 -0.56738215955E-02  0.15901631504E-01  0.10217307784E+01  0.10214895878E+01 0.  0.
     999903    2    3    3    0    0 -0.15207263227E+00  0.76373472184E-01 -0.51065812192E-03  0.17133314420E+00  0.19894541736E-01 0.  0.
         14    1    1    2    0    0  0.14413580600E-01  0.56738215955E-02 -0.15901631504E-01  0.22199221646E-01  0.00000000000E+00 0. -1.
     999901    1    3    3    0    0  0.13765905167E+00 -0.82047293779E-01  0.16412289626E-01  0.85039763415E+00  0.83500000000E+00 0. -1.
        -11    1    4    4    0    0 -0.79805364527E-01  0.38069029782E-01  0.94976171742E-02  0.88930383384E-01  0.51100000000E-03 0. -1.
         11    1    4    4    0    0 -0.72267267743E-01  0.38304442401E-01 -0.10008275296E-01  0.82402760816E-01  0.51100000000E-03 0.  1.
</event>
<event>
 8    1  0.5616615E+005  0.1043930E+01  0.7957747E-01            NaN
         13   -1    0    0    0    0  0.00000000000E+00  0.00000000000E+00  0.74505805969E-08  0.10566000000E+00  0.10566000000E+00 0.  1.
     999900   -1    0    0    0    0 -0.00000000000E+00 -0.00000000000E+00 -0.74505805969E-08  0.93827000000E+00  0.93827000000E+00 0.  1.
     999902    2    1    2    0    0 -0.12663793432E-01  0.45895889236E-03 -0.19082781321E-01  0.10210229083E+01  0.10207659107E+01 0.  0.
     999903    2    3    3    0    0  0.88363584438E-01 -0.13401983432E+00 -0.48031210174E-01  0.16875881282E+00  0.20077368028E-01 0.  0.
         14    1    1    2    0    0  0.12663793432E-01 -0.45895889236E-03  0.19082781321E-01  0.22907091703E-01  0.00000000000E+00 0. -1.
     999901    1    3    3    0    0 -0.10102737787E+00  0.13447879322E+00  0.28948428853E-01  0.85226409548E+00  0.83500000000E+00 0. -1.
        -11    1    4    4    0    0  0.48433026143E-01 -0.55765049726E-01 -0.19629964354E-01  0.76427059434E-01  0.51100000000E-03 0. -1.
         11    1    4    4    0    0  0.39930558296E-01 -0.78254784598E-01 -0.28401245820E-01  0.92331753387E-01  0.51100000000E-03 0.  1.
</event>
<event>
 8    1  0.5616615E+005  0.1043930E+01  0.7957747E-01            NaN
         13   -1    0    0    0    0  0.00000000000E+00  0.00000000000E+00  0.74505805969E-08  0.10566000000E+00  0.10566000000E+00 0.  1.
     999900   -1    0    0    0    0 -0.00000000000E+00 -0.00000000000E+00 -0.74505805969E-08  0.93827000000E+00  0.93827000000E+00 0.  1.
     999902    2    1    2    0    0  0.82955140943E-02  0.19938865010E-01 -0.10447312741E-01  0.10199399972E+01  0.10196578238E+01 0.  0.
     999903    2    3    3    0    0  0.67789777136E-01  0.14732205348E+00 -0.53146022269E-01  0.17211087298E+00  0.22325133587E-01 0.  0.
         14    1    1    2    0    0 -0.82955140943E-02 -0.19938865010E-01  0.10447312741E-01  0.23990002824E-01  0.00000000000E+00 0. -1.
     999901    1    3    3    0    0 -0.59494263042E-01 -0.12738318847E+00  0.42698709528E-01  0.84782912420E+00  0.83500000000E+00 0. -1.
        -11    1    4    4    0    0  0.10589174476E-01  0.86198165501E-02 -0.42400628116E-02  0.14306331014E-01  0.51100000000E-03 0.  1.
         11    1    4    4    0    0  0.57200602660E-01  0.13870223693E+00 -0.48905959457E-01  0.15780454197E+00  0.51100000000E-03 0. -1.
</event>
<event>
 8    1  0.5616615E+005  0.1043930E+01  0.7957747E-01            NaN
         13   -1    0    0    0    0  0.00000000000E+00  0.00000000000E+00  0.74505805969E-08  0.10566000000E+00  0.10566000000E+00 0. -1.
     999900   -1    0    0    0    0 -0.00000000000E+00 -0.00000000000E+00 -0.74505805969E-08  0.93827000000E+00  0.93827000000E+00 0.  1.
     999902    2    1    2    0    0  0.15544200720E-01 -0.12560514067E-01  0.13024671018E-01  0.10200756347E+01  0.10197966806E+01 0.  0.
     999903    2    3    3    0    0 -0.54444844190E-01  0.40993912688E-01 -0.14887266221E+00  0.16497196287E+00  0.20197451467E-01 0.  0.
         14    1    1    2    0    0 -0.15544200720E-01  0.12560514067E-01 -0.13024671018E-01  0.23854365320E-01  0.00000000000E+00 0.  1.
     999901    1    3    3    0    0  0.69989044911E-01 -0.53554426756E-01  0.16189733322E+00  0.85510367181E+00  0.83500000000E+00 0. -1.
        -11    1    4    4    0    0 -0.58186048214E-02  0.74165761062E-03 -0.45299697974E-02  0.74288603059E-02  0.51100000000E-03 0. -1.
         11    1    4    4    0    0 -0.48626239369E-01  0.40252255078E-01 -0.14434269241E+00  0.15754310257E+00  0.51100000000E-03 0.  1.
</event>
<event>
 8    1  0.5616615E+005  0.1043930E+01  0.7957747E-01            NaN
         13   -1    0    0    0    0  0.00000000000E+00  0.00000000000E+00  0.74505805969E-08  0.10566000000E+00  0.10566000000E+00 0. -1.
     999900   -1    0    0    0    0 -0.00000000000E+00 -0.00000000000E+00 -0.74505805969E-08  0.93827000000E+00  0.93827000000E+00 0.  1.
     999902    2    1    2    0    0 -0.44838967394E-02 -0.75765710582E-02  0.20628888178E-01  0.10215009834E+01  0.10212547176E+01 0.  0.
     999903    2    3    3    0    0  0.83234295639E-01 -0.34658651571E-01 -0.13837876241E+00  0.16655282513E+00  0.21493989180E-01 0.  0.
         14    1    1    2    0    0  0.44838967394E-02  0.75765710582E-02 -0.20628888178E-01  0.22429016618E-01  0.00000000000E+00 0.  1.
     999901    1    3    3    0    0 -0.87718192379E-01  0.27082080513E-01  0.15900765059E+00  0.85494815826E+00  0.83500000000E+00 0. -1.
        -11    1    4    4    0    0  0.55903791228E-01 -0.13190460099E-01 -0.77743864977E-01  0.96662256201E-01  0.51100000000E-03 0.  1.
         11    1    4    4    0    0  0.27330504411E-01 -0.21468191472E-01 -0.60634897437E-01  0.69890568925E-01  0.51100000000E-03 0. -1.
</event>
<event>
 8    1  0.5616615E+005  0.1043930E+01  0.7957747E-01            NaN
         13   -1    0    0    0    0  0.00000000000E+00  0.00000000000E+00  0.74505805969E-08  0.10566000000E+00  0.10566000000E+00 0. -1.
     999900   -1    0    0    0    0 -0.00000000000E+00 -0.00000000000E+00 -0.74505805969E-08  0.93827000000E+00  0.93827000000E+00 0.  1.
     999902    2    1    2    0    0  0.17902638181E-01  0.34201322308E-02  0.12749304717E-01  0.10216871016E+01  0.10214449506E+01 0.  0.
     999903    2    3    3    0    0 -0.15950557219E+00  0.41640740233E-01  0.19154458894E-01  0.16716939319E+00  0.20068231570E-01 0.  0.
         14    1    1    2    0    0 -0.17902638181E-01 -0.34201322308E-02 -0.12749304717E-01  0.22242898397E-01  0.00000000000E+00 0.  1.
     999901    1    3    3    0    0  0.17740821037E+00 -0.38220608002E-01 -0.64051541779E-02  0.85451770841E+00  0.83500000000E+00 0.  1.
        -11    1    4    4    0    0 -0.59209237959E-01  0.83559749799E-02  0.15306387065E-03  0.59798333815E-01  0.51100000000E-03 0. -1.
         11    1    4    4    0    0 -0.10029633423E+00  0.33284765253E-01  0.19001395024E-01  0.10737105938E+00  0.51100000000E-03 0.  1.
</event>
<event>
 8    1  0.5616615E+005  0.1043930E+01  0.7957747E-01            NaN
         13   -1    0    0    0    0  0.00000000000E+00  0.00000000000E+00  0.74505805969E-08  0.10566000000E+00  0.10566000000E+00 0.  1.
     999900   -1    0    0    0    0 -0.00000000000E+00 -0.00000000000E+00 -0.74505805969E-08  0.93827000000E+00  0.93827000000E+00 0.  1.
     999902    2    1    2    0    0  0.12767301209E-01 -0.84076833565E-02 -0.18273768741E-01  0.10201051444E+01  0.10198268882E+01 0.  0.
     999903    2    3    3    0    0 -0.14911620288E+00 -0.73061757466E-02 -0.73643074788E-01  0.16775648203E+00  0.20734334641E-01 0.  0.
         14    1    1    2    0    0 -0.12767301209E-01  0.84076833565E-02  0.18273768741E-01  0.23824855584E-01  0.00000000000E+00 0.  1.
     999901    1    3    3    0    0  0.16188350409E+00 -0.11015076099E-02  0.55369306046E-01  0.85234866238E+00  0.83500000000E+00 0.  1.
        -11    1    4    4    0    0 -0.56333294967E-01 -0.59115092118E-02 -0.38689754943E-01  0.68596970207E-01  0.51100000000E-03 0.  1.
         11    1    4    4    0    0 -0.92782907916E-01 -0.13946665348E-02 -0.34953319845E-01  0.99159511825E-01  0.51100000000E-03 0. -1.
</event>
<event>
 8    1  0.5616615E+005  0.1043930E+01  0.7957747E-01            NaN
         13   -1    0    0    0    0  0.00000000000E+00  0.00000000000E+00  0.74505805969E-08  0.10566000000E+00  0.10566000000E+00 0. -1.
     999900   -1    0    0    0    0 -0.00000000000E+00 -0.00000000000E+00 -0.74505805969E-08  0.93827000000E+00  0.93827000000E+00 0. -1.
     999902    2    1    2    0    0 -0.46812600631E-02 -0.21093123156E-01 -0.67130177580E-02  0.10213048227E+01  0.10210541818E+01 0.  0.
     999903    2    3    3    0    0 -0.76570961867E-02  0.66691608655E-04  0.16664525943E+00  0.16823115318E+00  0.21735750319E-01 0.  0.
         14    1    1    2    0    0  0.46812600631E-02  0.21093123156E-01  0.67130177580E-02  0.22625177296E-01  0.00000000000E+00 0.  1.
     999901    1    3    3    0    0  0.29758361236E-02 -0.21159814765E-01 -0.17335827718E+00  0.85307366952E+00  0.83500000000E+00 0. -1.
        -11    1    4    4    0    0  0.48025524642E-02 -0.40723240748E-02  0.10555674934E+00  0.10574562301E+00  0.51100000000E-03 0.  1.
         11    1    4    4    0    0 -0.12459648651E-01  0.41390156835E-02  0.61088510087E-01  0.62485530172E-01  0.51100000000E-03 0. -1.
</event>
<event>
 8    1  0.5616615E+005  0.1043930E+01  0.7957747E-01            NaN
         13   -1    0    0    0    0  0.00000000000E+00  0.00000000000E+00  0.74505805969E-08  0.10566000000E+00  0.10566000000E+00 0. -1.
     999900   -1    0    0    0    0 -0.00000000000E+00 -0.00000000000E+00 -0.74505805969E-08  0.93827000000E+00  0.93827000000E+00 0.  1.
     999902    2    1    2    0    0  0.17213549508E-01  0.12190469356E-01 -0.10517550856E-01  0.10203602587E+01  0.10200879986E+01 0.  0.
     999903    2    3    3    0    0  0.91086488281E-01  0.15195254868E-01 -0.14333272214E+00  0.17163703552E+00  0.19681427941E-01 0.  0.
         14    1    1    2    0    0 -0.17213549508E-01 -0.12190469356E-01  0.10517550856E-01  0.23569741318E-01  0.00000000000E+00 0. -1.
     999901    1    3    3    0    0 -0.73872938773E-01 -0.30047855116E-02  0.13281517129E+00  0.84872322317E+00  0.83500000000E+00 0. -1.
        -11    1    4    4    0    0  0.68979360128E-01  0.16993966674E-01 -0.11990321246E+00  0.13936996988E+00  0.51100000000E-03 0.  1.
         11    1    4    4    0    0  0.22107128153E-01 -0.17987118058E-02 -0.23429509685E-01  0.32267065631E-01  0.51100000000E-03 0. -1.
</event>
<event>
 8    1  0.5616615E+005  0.1043930E+01  0.7957747E-01            NaN
         13   -1    0    0    0    0  0.00000000000E+00  0.00000000000E+00  0.74505805969E-08  0.10566000000E+00  0.10566000000E+00 0. -1.
     999900   -1    0    0    0    0 -0.00000000000E+00 -0.00000000000E+00 -0.74505805969E-08  0.93827000000E+00  0.93827000000E+00 0.  1.
     999902    2    1    2    0    0  0.18436219459E-01 -0.11127606744E-01  0.12426622562E-01  0.10190676033E+01  0.10187642717E+01 0.  0.
     999903    2    3    3    0    0  0.60705244655E-01  0.15394538917E+00 -0.16293979646E-02  0.16674235075E+00  0.20397230736E-01 0.  0.
         14    1    1    2    0    0 -0.18436219459E-01  0.11127606744E-01 -0.12426622562E-01  0.24862396668E-01  0.00000000000E+00 0.  1.
     999901    1    3    3    0    0 -0.42269025196E-01 -0.16507299591E+00  0.14056020527E-01  0.85232525258E+00  0.83500000000E+00 0.  1.
        -11    1    4    4    0    0  0.46566700594E-01  0.91763617172E-01 -0.31657175136E-02  0.10295291122E+00  0.51100000000E-03 0. -1.
         11    1    4    4    0    0  0.14138544061E-01  0.62181771997E-01  0.15363195491E-02  0.63789439531E-01  0.51100000000E-03 0.  1.
</event>
<event>
 8    1  0.5616615E+005  0.1043930E+01  0.7957747E-01            NaN
         13   -1    0    0    0    0  0.00000000000E+00  0.00000000000E+00  0.74505805969E-08  0.10566000000E+00  0.10566000000E+00 0.  1.
     999900   -1    0    0    0    0 -0.00000000000E+00 -0.00000000000E+00 -0.74505805969E-08  0.93827000000E+00  0.93827000000E+00 0.  1.
     999902    2    1    2    0    0  0.27387274517E-02 -0.72122626117E-03 -0.23696344758E-01  0.10200650141E+01  0.10197858086E+01 0.  0.
     999903    2    3    3    0    0 -0.10736702589E+00 -0.12471852351E+00  0.24320854524E-01  0.16740490714E+00  0.18721928708E-01 0.  0.
         14    1    1    2    0    0 -0.27387274517E-02  0.72122626117E-03  0.23696344758E-01  0.23864985863E-01  0.00000000000E+00 0.  1.
     999901    1    3    3    0    0  0.11010575334E+00  0.12399729724E+00 -0.48017199281E-01  0.85266010700E+00  0.83500000000E+00 0.  1.
        -11    1    4    4    0    0 -0.30980550868E-01 -0.33542246840E-01  0.15126779919E-01  0.48103611579E-01  0.51100000000E-03 0. -1.
         11    1    4    4    0    0 -0.76386475023E-01 -0.91176276665E-01  0.91940746047E-02  0.11930129556E+00  0.51100000000E-03 0.  1.
</event>
<event>
 8    1  0.5616615E+005  0.1043930E+01  0.7957747E-01            NaN
         13   -1    0    0    0    0  0.00000000000E+00  0.00000000000E+00  0.74505805969E-08  0.10566000000E+00  0.10566000000E+00 0. -1.
     999900   -1    0    0    0    0 -0.00000000000E+00 -0.00000000000E+00 -0.74505805969E-08  0.93827000000E+00  0.93827000000E+00 0.  1.
     999902    2    1    2    0    0 -0.20195697394E-02  0.10794889817E-01  0.20597111987E-01  0.10205879922E+01  0.10203210281E+01 0.  0.
     999903    2    3    3    0    0 -0.35016920170E-01 -0.56757311624E-01  0.15642973231E+00  0.17127790402E+00  0.20451946968E-01 0.  0.
         14    1    1    2    0    0  0.20195697394E-02 -0.10794889817E-01 -0.20597111987E-01  0.23342007847E-01  0.00000000000E+00 0.  1.
     999901    1    3    3    0    0  0.32997350430E-01  0.67552201440E-01 -0.13583262032E+00  0.84931008813E+00  0.83500000000E+00 0.  1.
        -11    1    4    4    0    0 -0.62164690322E-02 -0.21781292441E-01  0.71687978224E-01  0.75183086731E-01  0.51100000000E-03 0. -1.
         11    1    4    4    0    0 -0.28800451138E-01 -0.34976019183E-01  0.84741754088E-01  0.96094817292E-01  0.51100000000E-03 0.  1.
</event>
<event>
 8    1  0.5616615E+005  0.1043930E+01  0.7957747E-01            NaN
         13   -1    0    0    0    0  0.00000000000E+00  0.00000000000E+00  0.74505805969E-08  0.10566000000E+00  0.10566000000E+00 0. -1.
     999900   -1    0    0    0    0 -0.00000000000E+00 -0.00000000000E+00 -0.74505805969E-08  0.93827000000E+00  0.93827000000E+00 0.  1.
     999902    2    1    2    0    0 -0.96302901116E-03 -0.16573724425E-01  0.16250152676E-01  0.10206989168E+01  0.10204345131E+01 0.  0.
     999903    2    3    3    0    0 -0.14324908500E+00 -0.50838082982E-01  0.75397975558E-01  0.17090904100E+00  0.20499623005E-01 0.  0.
         14    1    1    2    0    0  0.96302901116E-03  0.16573724425E-01 -0.16250152676E-01  0.23231083233E-01  0.00000000000E+00 0.  1.
     999901    1    3    3    0    0  0.14228605599E+00  0.34264358557E-01 -0.59147822882E-01  0.84978987576E+00  0.83500000000E+00 0. -1.
        -11    1    4    4    0    0 -0.91945106927E-01 -0.42395311838E-01  0.53156522014E-01  0.11435533266E+00  0.51100000000E-03 0. -1.
         11    1    4    4    0    0 -0.51303978076E-01 -0.84427711441E-02  0.22241453544E-01  0.56553708346E-01  0.51100000000E-03 0.  1.
</event>
<event>
 8    1  0.5616615E+005  0.1043930E+01  0.7957747E-01            NaN
         13   -1    0    0    0    0  0.00000000000E+00  0.00000000000E+00  0.74505805969E-08  0.10566000000E+00  0.10566000000E+00 0.  1.
     999900   -1    0    0    0    0 -0.00000000000E+00 -0.00000000000E+00 -0.74505805969E-08  0.93827000000E+00  0.93827000000E+00 0. -1.
     999902    2    1    2    0    0 -0.22520695710E-01 -0.55610730979E-02 -0.51024770212E-02  0.10201783150E+01  0.10199017854E+01 0.  0.
     999903    2    3    3    0    0 -0.43332251683E-01  0.13868704537E+00 -0.83649011635E-01  0.16892324238E+00  0.20642772992E-01 0.  0.
         14    1    1    2    0    0  0.22520695710E-01  0.55610730979E-02  0.51024770212E-02  0.23751685014E-01  0.00000000000E+00 0.  1.
     999901    1    3    3    0    0  0.20811555973E-01 -0.14424811847E+00  0.78546534614E-01  0.85125507261E+00  0.83500000000E+00 0. -1.
        -11    1    4    4    0    0 -0.29717416034E-01  0.10816644945E+00 -0.73029699214E-01  0.13385329167E+00  0.51100000000E-03 0. -1.
         11    1    4    4    0    0 -0.13614835649E-01  0.30520595922E-01 -0.10619312422E-01  0.35069950706E-01  0.51100000000E-03 0.  1.
</event>
<event>
 8    1  0.5616615E+005  0.1043930E+01  0.7957747E-01            NaN
         13   -1    0    0    0    0  0.00000000000E+00  0.00000000000E+00  0.74505805969E-08  0.10566000000E+00  0.10566000000E+00 0.  1.
     999900   -1    0    0    0    0 -0.00000000000E+00 -0.00000000000E+00 -0.74505805969E-08  0.93827000000E+00  0.93827000000E+00 0. -1.
     999902    2    1    2    0    0  0.13110648476E-01  0.18852994785E-01 -0.20968068349E-03  0.10209654952E+01  0.10207071930E+01 0.  0.
     999903    2    3    3    0    0 -0.15462816950E+00  0.31658562132E-01 -0.53051490679E-01  0.16755026769E+00  0.18614407890E-01 0.  0.
         14    1    1    2    0    0 -0.13110648476E-01 -0.18852994785E-01  0.20968068349E-03  0.22964504824E-01  0.00000000000E+00 0.  1.
     999901    1    3    3    0    0  0.16773881798E+00 -0.12805567346E-01  0.52841809995E-01  0.85341522748E+00  0.83500000000E+00 0.  1.
        -11    1    4    4    0    0 -0.12711042628E+00  0.31664508816E-01 -0.39180364565E-01  0.13672989313E+00  0.51100000000E-03 0.  1.
         11    1    4    4    0    0 -0.27517743227E-01 -0.59466847010E-05 -0.13871126114E-01  0.30820374565E-01  0.51100000000E-03 0. -1.
</event>
<event>
 8    1  0.5616615E+005  0.1043930E+01  0.7957747E-01            NaN
         13   -1    0    0    0    0  0.00000000000E+00  0.00000000000E+00  0.74505805969E-08  0.10566000000E+00  0.10566000000E+00 0.  1.
     999900   -1    0    0    0    0 -0.00000000000E+00 -0.00000000000E+00 -0.74505805969E-08  0.93827000000E+00  0.93827000000E+00 0.  1.
     999902    2    1    2    0    0  0.73726249552E-02 -0.80116384922E-02  0.21056420585E-01  0.10202252579E+01  0.10199498331E+01 0.  0.
     999903    2    3    3    0    0  0.98699273685E-01 -0.37979633232E-01 -0.12739985085E+00  0.16670144335E+00  0.19355878991E-01 0.  0.
         14    1    1    2    0    0 -0.73726249552E-02  0.80116384922E-02 -0.21056420585E-01  0.23704742098E-01  0.00000000000E+00 0. -1.
     999901    1    3    3    0    0 -0.91326648730E-01  0.29967994740E-01  0.14845627144E+00  0.85352381455E+00  0.83500000000E+00 0. -1.
        -11    1    4    4    0    0  0.32822409198E-01 -0.22304013635E-01 -0.50684090433E-01  0.64373268628E-01  0.51100000000E-03 0.  1.
         11    1    4    4    0    0  0.65876864486E-01 -0.15675619598E-01 -0.76715760419E-01  0.10232817472E+00  0.51100000000E-03 0. -1.
</event>
<event>
 8    1  0.5616615E+005  0.1043930E+01  0.7957747E-01            NaN
         13   -1    0    0    0    0  0.00000000000E+00  0.00000000000E+00  0.74505805969E-08  0.10566000000E+00  0.10566000000E+00 0. -1.
     999900   -1    0    0    0    0 -0.00000000000E+00 -0.00000000000E+00 -0.74505805969E-08  0.93827000000E+00  0.93827000000E+00 0.  1.
     999902    2    1    2    0    0  0.19839452163E-01  0.73521941195E-02 -0.10180832711E-01  0.10204500516E+01  0.10201798861E+01 0.  0.
     999903    2    3    3    0    0 -0.98759566382E-01 -0.12771572950E+00 -0.32854712585E-01  0.16602148469E+00  0.20468065992E-01 0.  0.
         14    1    1    2    0    0 -0.19839452163E-01 -0.73521941195E-02  0.10180832711E-01  0.23479948365E-01  0.00000000000E+00 0. -1.
     999901    1    3    3    0    0  0.11859901855E+00  0.13506792362E+00  0.22673879874E-01  0.85442856695E+00  0.83500000000E+00 0. -1.
        -11    1    4    4    0    0 -0.72755253059E-01 -0.92937546966E-01 -0.33134868530E-01  0.12259239421E+00  0.51100000000E-03 0.  1.
         11    1    4    4    0    0 -0.26004313323E-01 -0.34778182531E-01  0.28015594486E-03  0.43429090480E-01  0.51100000000E-03 0. -1.
</event>
<event>
 8    1  0.5616615E+005  0.1043930E+01  0.7957747E-01            NaN
         13   -1    0    0    0    0  0.00000000000E+00  0.00000000000E+00  0.74505805969E-08  0.10566000000E+00  0.10566000000E+00 0.  1.
     999900   -1    0    0    0    0 -0.00000000000E+00 -0.00000000000E+00 -0.74505805969E-08  0.93827000000E+00  0.93827000000E+00 0.  1.
     999902    2    1    2    0    0  0.28582400712E-02 -0.17932059608E-01 -0.70536439799E-02  0.10244496973E+01  0.10242644679E+01 0.  0.
     999903    2    3    3    0    0 -0.12504426804E+00 -0.10540032603E+00 -0.55536219994E-01  0.17381151963E+00  0.19516017231E-01 0.  0.
         14    1    1    2    0    0 -0.28582400712E-02  0.17932059608E-01  0.70536439799E-02  0.19480302654E-01  0.00000000000E+00 0. -1.
     999901    1    3    3    0    0  0.12790250811E+00  0.87468266417E-01  0.48482576014E-01  0.85063817772E+00  0.83500000000E+00 0.  1.
        -11    1    4    4    0    0 -0.11249357055E+00 -0.91414092362E-01 -0.54899876107E-01  0.15500192649E+00  0.51100000000E-03 0. -1.
         11    1    4    4    0    0 -0.12550697488E-01 -0.13986233663E-01 -0.63634388693E-03  0.18809593139E-01  0.51100000000E-03 0.  1.
</event>
<event>
 8    1  0.5616615E+005  0.1043930E+01  0.7957747E-01            NaN
         13   -1    0    0    0    0  0.00000000000E+00  0.00000000000E+00  0.74505805969E-08  0.10566000000E+00  0.10566000000E+00 0. -1.
     999900   -1    0    0    0    0 -0.00000000000E+00 -0.00000000000E+00 -0.74505805969E-08  0.93827000000E+00  0.93827000000E+00 0. -1.
     999902    2    1    2    0    0  0.20861874300E-01  0.98978026806E-02 -0.73728776190E-02  0.10196907009E+01  0.10194025612E+01 0.  0.
     999903    2    3    3    0    0  0.10944520644E+00 -0.15511961435E-01  0.12636920145E+00  0.16904118048E+00  0.19669048369E-01 0.  0.
         14    1    1    2    0    0 -0.20861874300E-01 -0.98978026806E-02  0.73728776190E-02  0.24239299115E-01  0.00000000000E+00 0. -1.
     999901    1    3    3    0    0 -0.88583332141E-01  0.25409764116E-01 -0.13374207907E+00  0.85064952040E+00  0.83500000000E+00 0. -1.
        -11    1    4    4    0    0  0.57451308867E-01  0.72299166453E-03  0.71479995969E-01  0.91710558564E-01  0.51100000000E-03 0. -1.
         11    1    4    4    0    0  0.51993897575E-01 -0.16234953100E-01  0.54889205481E-01  0.77330621919E-01  0.51100000000E-03 0.  1.
</event>
<event>
 8    1  0.5616615E+005  0.1043930E+01  0.7957747E-01            NaN
         13   -1    0    0    0    0  0.00000000000E+00  0.00000000000E+00  0.74505805969E-08  0.10566000000E+00  0.10566000000E+00 0. -1.
     999900   -1    0    0    0    0 -0.00000000000E+00 -0.00000000000E+00 -0.74505805969E-08  0.93827000000E+00  0.93827000000E+00 0.  1.
     999902    2    1    2    0    0  0.19412207870E-01 -0.86571385540E-02 -0.10540557750E-01  0.10202048399E+01  0.10199289349E+01 0.  0.
     999903    2    3    3    0    0  0.16155512944E+00  0.14281241274E-01 -0.53494455436E-01  0.17179408049E+00  0.18642307491E-01 0.  0.
         14    1    1    2    0    0 -0.19412207870E-01  0.86571385540E-02  0.10540557750E-01  0.23725160063E-01  0.00000000000E+00 0. -1.
     999901    1    3    3    0    0 -0.14214292157E+00 -0.22938379828E-01  0.42953897685E-01  0.84841075945E+00  0.83500000000E+00 0.  1.
        -11    1    4    4    0    0  0.76919255609E-01 -0.22251119912E-02 -0.22753986720E-01  0.80246669959E-01  0.51100000000E-03 0.  1.
         11    1    4    4    0    0  0.84635873829E-01  0.16506353265E-01 -0.30740468715E-01  0.91547410530E-01  0.51100000000E-03 0. -1.
</event>
<event>
 8    1  0.5616615E+005  0.1043930E+01  0.7957747E-01            NaN
         13   -1    0    0    0    0  0.00000000000E+00  0.00000000000E+00  0.74505805969E-08  0.10566000000E+00  0.10566000000E+00 0. -1.
     999900   -1    0    0    0    0 -0.00000000000E+00 -0.00000000000E+00 -0.74505805969E-08  0.93827000000E+00  0.93827000000E+00 0.  1.
     999902    2    1    2    0    0 -0.18668415296E-01 -0.93370850039E-02  0.10849099708E-01  0.10204056753E+01  0.10201344757E+01 0.  0.
     999903    2    3    3    0    0  0.12489925554E+00  0.80784047949E-01  0.71278530810E-01  0.16623343811E+00  0.20664959581E-01 0.  0.
         14    1    1    2    0    0  0.18668415296E-01  0.93370850039E-02 -0.10849099708E-01  0.23524324656E-01  0.00000000000E+00 0.  1.
     999901    1    3    3    0    0 -0.14356767084E+00 -0.90121132952E-01 -0.60429431103E-01  0.85417223723E+00  0.83500000000E+00 0.  1.
        -11    1    4    4    0    0  0.10562460063E+00  0.60696936136E-01  0.63201488207E-01  0.13724198901E+00  0.51100000000E-03 0. -1.
         11    1    4    4    0    0  0.19274654914E-01  0.20087111813E-01  0.80770426035E-02  0.28991449106E-01  0.51100000000E-03 0.  1.
</event>
<event>
 8    1  0.5616615E+005  0.1043930E+01  0.7957747E-01            NaN
         13   -1    0    0    0    0  0.00000000000E+00  0.00000000000E+00  0.74505805969E-08  0.10566000000E+00  0.10566000000E+00 0.  1.
     999900   -1    0    0    0    0 -0.00000000000E+00 -0.00000000000E+00 -0.74505805969E-08  0.93827000000E+00  0.93827000000E+00 0. -1.
     999902    2    1    2    0    0 -0.25910710900E-02 -0.21931736379E-01 -0.73414000202E-02  0.10206574655E+01  0.10203921065E+01 0.  0.
     999903    2    3    3    0    0 -0.84131070094E-01 -0.14091905098E+00 -0.48587874978E-01  0.17228665963E+00  0.19639134640E-01 0.  0.
         14    1    1    2    0    0  0.25910710900E-02  0.21931736379E-01  0.73414000202E-02  0.23272534547E-01  0.00000000000E+00 0.  1.
     999901    1    3    3    0    0  0.81539999004E-01  0.11898731460E+00  0.41246474958E-01  0.84837080582E+00  0.83500000000E+00 0.  1.
        -11    1    4    4    0    0 -0.65888313295E-01 -0.12176281775E+00 -0.36376323758E-01  0.14314660899E+00  0.51100000000E-03 0.  1.
         11    1    4    4    0    0 -0.18242756799E-01 -0.19156233224E-01 -0.12211551219E-01  0.29140050637E-01  0.51100000000E-03 0. -1.
</event>
<event>
 8    1  0.5616615E+005  0.1043930E+01  0.7957747E-01            NaN
         13   -1    0    0    0    0  0.00000000000E+00  0.00000000000E+00  0.74505805969E-08  0.10566000000E+00  0.10566000000E+00 0. -1.
     999900   -1    0    0    0    0 -0.00000000000E+00 -0.00000000000E+00 -0.74505805969E-08  0.93827000000E+00  0.93827000000E+00 0.  1.
     999902    2    1    2    0    0  0.23237656991E-01 -0.61045082646E-02  0.15460394815E-01  0.10153594289E+01  0.10149573845E+01 0.  0.
     999903    2    3    3    0    0 -0.29874788171E-01 -0.50017903185E-01 -0.14961318494E+00  0.16141352618E+00  0.16611072129E-01 0.  0.
         14    1    1    2    0    0 -0.23237656991E-01  0.61045082646E-02 -0.15460394815E-01  0.28570571073E-01  0.00000000000E+00 0.  1.
     999901    1    3    3    0    0  0.53112445161E-01  0.43913394921E-01  0.16507357976E+00  0.85394590275E+00  0.83500000000E+00 0. -1.
        -11    1    4    4    0    0 -0.22824161064E-01 -0.22239625852E-01 -0.81939083262E-01  0.87919382238E-01  0.51100000000E-03 0. -1.
         11    1    4    4    0    0 -0.70506271069E-02 -0.27778277333E-01 -0.67674101683E-01  0.73494143942E-01  0.51100000000E-03 0.  1.
</event>
<event>
 8    1  0.5616615E+005  0.1043930E+01  0.7957747E-01            NaN
         13   -1    0    0    0    0  0.00000000000E+00  0.00000000000E+00  0.74505805969E-08  0.10566000000E+00  0.10566000000E+00 0.  1.
     999900   -1    0    0    0    0 -0.00000000000E+00 -0.00000000000E+00 -0.74505805969E-08  0.93827000000E+00  0.93827000000E+00 0. -1.
     999902    2    1    2    0    0  0.10075535376E-01  0.20598952459E-01  0.66272198260E-02  0.10200604944E+01  0.10197811819E+01 0.  0.
     999903    2    3    3    0    0  0.80196579650E-01 -0.76408728912E-01  0.12476690932E+00  0.16829207673E+00  0.22037608467E-01 0.  0.
         14    1    1    2    0    0 -0.10075535376E-01 -0.20598952459E-01 -0.66272198260E-02  0.23869505612E-01  0.00000000000E+00 0. -1.
     999901    1    3    3    0    0 -0.70121044274E-01  0.97007681371E-01 -0.11813968949E+00  0.85176841766E+00  0.83500000000E+00 0. -1.
        -11    1    4    4    0    0  0.36483283403E-01 -0.20178534239E-01  0.47621389270E-01  0.63295031787E-01  0.51100000000E-03 0.  1.
         11    1    4    4    0    0  0.43713296247E-01 -0.56230194673E-01  0.77145520045E-01  0.10499704494E+00  0.51100000000E-03 0. -1.
</event>
<event>
 8    1  0.5616615E+005  0.1043930E+01  0.7957747E-01            NaN
         13   -1    0    0    0    0  0.00000000000E+00  0.00000000000E+00  0.74505805969E-08  0.10566000000E+00  0.10566000000E+00 0.  1.
     999900   -1    0    0    0    0 -0.00000000000E+00 -0.00000000000E+00 -0.74505805969E-08  0.93827000000E+00  0.93827000000E+00 0.  1.
     999902    2    1    2    0    0 -0.94584925279E-02  0.14102281897E-01 -0.17193206345E-01  0.10197650713E+01  0.10194787182E+01 0.  0.
     999903    2    3    3    0    0  0.36515854240E-02 -0.10590108354E+00  0.12407608230E+00  0.16433845621E+00  0.19592866482E-01 0.  0.
         14    1    1    2    0    0  0.94584925279E-02 -0.14102281897E-01  0.17193206345E-01  0.24164928720E-01  0.00000000000E+00 0.  1.
     999901    1    3    3    0    0 -0.13110077952E-01  0.12000336544E+00 -0.14126928865E+00  0.85542661507E+00  0.83500000000E+00 0.  1.
        -11    1    4    4    0    0  0.10640073384E-01 -0.40893562579E-01  0.52491845554E-01  0.67388052299E-01  0.51100000000E-03 0.  1.
         11    1    4    4    0    0 -0.69884879600E-02 -0.65007520963E-01  0.71584236750E-01  0.96950403907E-01  0.51100000000E-03 0. -1.
</event>
<event>
 7    1  0.5616615E+005  0.1043930E+01  0.7957747E-01            NaN
         13   -1    0    0    0    0  0.00000000000E+00  0.00000000000E+00  0.74505805969E-08  0.10566000000E+00  0.10566000000E+00 0.  1.
     999900   -1    0    0    0    0 -0.00000000000E+00 -0.00000000000E+00 -0.74505805969E-08  0.93827000000E+00  0.93827000000E+00 0.  1.
     999902    2    1    2    0    0  0.19722836438E-01  0.93185083478E-02  0.71690226325E-02  0.10209687335E+01  0.10207105050E+01 0.  0.
         14    1    1    2    0    0 -0.19722836438E-01 -0.93185083478E-02 -0.71690226325E-02  0.22961266526E-01  0.00000000000E+00 0.  1.
     999901    1    3    3    0    0  0.97855027150E-01  0.13906543214E+00 -0.32550354451E-01  0.85275982922E+00  0.83500000000E+00 0. -1.
        -11    1    3    3    0    0 -0.45938407924E-02 -0.87660992324E-02  0.23747343097E-01  0.25732184014E-01  0.51100000000E-03 0. -1.
         11    1    3    3    0    0 -0.73538349920E-01 -0.12098082456E+00  0.15972033987E-01  0.14247672024E+00  0.51100000000E-03 0.  1.
</event>
<event>
 8    1  0.5616615E+005  0.1043930E+01  0.7957747E-01            NaN
         13   -1    0    0    0    0  0.00000000000E+00  0.00000000000E+00  0.74505805969E-08  0.10566000000E+00  0.10566000000E+00 0. -1.
     999900   -1    0    0    0    0 -0.00000000000E+00 -0.00000000000E+00 -0.74505805969E-08  0.93827000000E+00  0.93827000000E+00 0. -1.
     999902    2    1    2    0    0  0.11291790768E-01  0.26194699446E-02 -0.16310263055E-01  0.10239202313E+01  0.10237246941E+01 0.  0.
     999903    2    3    3    0    0 -0.71473525105E-01  0.85990533348E-01  0.12488358086E+00  0.16895734717E+00  0.21162225250E-01 0.  0.
         14    1    1    2    0    0 -0.11291790768E-01 -0.26194699446E-02  0.16310263055E-01  0.20009768676E-01  0.00000000000E+00 0. -1.
     999901    1    3    3    0    0  0.82765315873E-01 -0.83371063403E-01 -0.14119384391E+00  0.85496288416E+00  0.83500000000E+00 0.  1.
        -11    1    4    4    0    0 -0.45243993291E-01  0.54115482002E-01  0.63055881486E-01  0.94614003362E-01  0.51100000000E-03 0.  1.
         11    1    4    4    0    0 -0.26229531815E-01  0.31875051346E-01  0.61827699374E-01  0.74343343807E-01  0.51100000000E-03 0. -1.
</event>
<event>
 8    1  0.5616615E+005  0.1043930E+01  0.7957747E-01            NaN
         13   -1    0    0    0    0  0.00000000000E+00  0.00000000000E+00  0.74505805969E-08  0.10566000000E+00  0.10566000000E+00 0. -1.
     999900   -1    0    0    0    0 -0.00000000000E+00 -0.00000000000E+00 -0.74505805969E-08  0.93827000000E+00  0.93827000000E+00 0. -1.
     999902    2    1    2    0    0  0.20087706675E-02 -0.99502939807E-02 -0.23298463596E-01  0.10185161865E+01  0.10181990769E+01 0.  0.
     999903    2    3    3    0    0 -0.13256644061E+00  0.97163343720E-01 -0.21570155280E-02  0.16572325755E+00  0.21094284450E-01 0.  0.
         14    1    1    2    0    0 -0.20087706675E-02  0.99502939807E-02  0.23298463596E-01  0.25413813484E-01  0.00000000000E+00 0. -1.
     999901    1    3    3    0    0  0.13457521128E+00 -0.10711363770E+00 -0.21141448068E-01  0.85279292897E+00  0.83500000000E+00 0. -1.
        -11    1    4    4    0    0 -0.87589332565E-01  0.53950155342E-01 -0.73376917075E-02  0.10313395794E+00  0.51100000000E-03 0.  1.
         11    1    4    4    0    0 -0.44977108048E-01  0.43213188378E-01  0.51806761795E-02  0.62589299603E-01  0.51100000000E-03 0. -1.
</event>
<event>
 8    1  0.5616615E+005  0.1043930E+01  0.7957747E-01            NaN
         13   -1    0    0    0    0  0.00000000000E+00  0.00000000000E+00  0.74505805969E-08  0.10566000000E+00  0.10566000000E+00 0. -1.
     999900   -1    0    0    0    0 -0.00000000000E+00 -0.00000000000E+00 -0.74505805969E-08  0.93827000000E+00  0.93827000000E+00 0.  1.
     999902    2    1    2    0    0  0.10285693846E-01 -0.12982079285E-01 -0.17334024567E-01  0.10199550487E+01  0.10196732335E+01 0.  0.
     999903    2    3    3    0    0 -0.16032601202E+00 -0.12359105723E-01  0.36254251252E-01  0.16601977860E+00  0.19774188406E-01 0.  0.
         14    1    1    2    0    0 -0.10285693846E-01  0.12982079285E-01  0.17334024567E-01  0.23974951265E-01  0.00000000000E+00 0. -1.
     999901    1    3    3    0    0  0.17061170587E+00 -0.62297356159E-03 -0.53588275820E-01  0.85393527014E+00  0.83500000000E+00 0.  1.
        -11    1    4    4    0    0 -0.59711548812E-01 -0.69793611823E-02  0.41242749604E-02  0.60261524284E-01  0.51100000000E-03 0.  1.
         11    1    4    4    0    0 -0.10061446321E+00 -0.53797445408E-02  0.32129976292E-01  0.10575825432E+00  0.51100000000E-03 0. -1.
</event>
<event>
 7    1  0.1079633E+006  0.1043930E+01  0.7957747E-01            NaN
         13   -1    0    0    0    0  0.00000000000E+00  0.00000000000E+00  0.74505805969E-08  0.10566000000E+00  0.10566000000E+00 0. -1.
     999900   -1    0    0    0    0 -0.00000000000E+00 -0.00000000000E+00 -0.74505805969E-08  0.93827000000E+00  0.93827000000E+00 0.  1.
     999903    2    1    2    0    0 -0.62930787409E-01  0.54107988856E-01 -0.11655304228E+00  0.14457867181E+00  0.20746619371E-01 0.  0.
         14    1    1    2    0    0  0.40917656412E-01  0.20832366400E-01 -0.19239698457E-01  0.49783612693E-01  0.00000000000E+00 0. -1.
     999901    1    1    2    0    0  0.22013130997E-01 -0.74940355256E-01  0.13579274074E+00  0.84956771550E+00  0.83500000000E+00 0. -1.
        -11    1    3    3    0    0 -0.35670525070E-01  0.33713826178E-01 -0.51441487840E-01  0.71102012817E-01  0.51100000000E-03 0. -1.
         11    1    3    3    0    0 -0.27260262339E-01  0.20394162677E-01 -0.65111554438E-01  0.73476658991E-01  0.51100000000E-03 0.  1.
</event>
<event>
 8    1  0.5909161E+005  0.1043930E+01  0.7957747E-01            NaN
         13   -1    0    0    0    0  0.00000000000E+00  0.00000000000E+00  0.74505805969E-08  0.10566000000E+00  0.10566000000E+00 0. -1.
     999900   -1    0    0    0    0 -0.00000000000E+00 -0.00000000000E+00 -0.74505805969E-08  0.93827000000E+00  0.93827000000E+00 0.  1.
     999902    2    1    2    0    0 -0.16874715351E-01  0.38357450026E-02  0.14797000800E-01  0.10211611575E+01  0.10209072873E+01 0.  0.
     999903    2    3    3    0    0 -0.90381442056E-01  0.59424423726E-01 -0.12837455924E+00  0.16897782292E+00  0.19323818826E-01 0.  0.
         14    1    1    2    0    0  0.16874715351E-01 -0.38357450026E-02 -0.14797000800E-01  0.22768842539E-01  0.00000000000E+00 0.  1.
     999901    1    3    3    0    0  0.73506726704E-01 -0.55588678723E-01  0.14317156004E+00  0.85218333455E+00  0.83500000000E+00 0. -1.
        -11    1    4    4    0    0 -0.55726367298E-01  0.31553942188E-01 -0.62421576051E-01  0.89430383861E-01  0.51100000000E-03 0.  1.
         11    1    4    4    0    0 -0.34655074758E-01  0.27870481537E-01 -0.65952983189E-01  0.79547439054E-01  0.51100000000E-03 0. -1.
</event>
<event>
 8    1  0.5616615E+005  0.1043930E+01  0.7957747E-01            NaN
         13   -1    0    0    0    0  0.00000000000E+00  0.00000000000E+00  0.74505805969E-08  0.10566000000E+00  0.10566000000E+00 0.  1.
     999900   -1    0    0    0    0 -0.00000000000E+00 -0.00000000000E+00 -0.74505805969E-08  0.93827000000E+00  0.93827000000E+00 0. -1.
     999902    2    1    2    0    0  0.21552924798E-01 -0.51929315730E-02 -0.86152634216E-02  0.10201451756E+01  0.10198678647E+01 0.  0.
     999903    2    3    3    0    0  0.53682620880E-01  0.76355328686E-01  0.13815511826E+00  0.16782541109E+00  0.19146067504E-01 0.  0.
         14    1    1    2    0    0 -0.21552924798E-01  0.51929315730E-02  0.86152634216E-02  0.23784824353E-01  0.00000000000E+00 0.  1.
     999901    1    3    3    0    0 -0.32129696082E-01 -0.81548260259E-01 -0.14677038168E+00  0.85231976456E+00  0.83500000000E+00 0. -1.
        -11    1    4    4    0    0  0.36720973463E-01  0.36131580953E-01  0.70830086894E-01  0.87584721068E-01  0.51100000000E-03 0.  1.
         11    1    4    4    0    0  0.16961647418E-01  0.40223747733E-01  0.67325031368E-01  0.80240690018E-01  0.51100000000E-03 0. -1.
</event>
<event>
 8    1  0.5616615E+005  0.1043930E+01  0.7957747E-01            NaN
         13   -1    0    0    0    0  0.00000000000E+00  0.00000000000E+00  0.74505805969E-08  0.10566000000E+00  0.10566000000E+00 0.  1.
     999900   -1    0    0    0    0 -0.00000000000E+00 -0.00000000000E+00 -0.74505805969E-08  0.93827000000E+00  0.93827000000E+00 0. -1.
     999902    2    1    2    0    0  0.19522782562E-01 -0.50565246497E-02  0.10939244290E-01  0.10209871461E+01  0.10207293363E+01 0.  0.
     999903    2    3    3    0    0 -0.10178658540E+00 -0.26286638787E-02  0.13271325385E+00  0.16847569943E+00  0.20095639058E-01 0.  0.
         14    1    1    2    0    0 -0.19522782562E-01  0.50565246497E-02 -0.10939244290E-01  0.22942853923E-01  0.00000000000E+00 0. -1.
     999901    1    3    3    0    0  0.12130936796E+00 -0.24278607710E-02 -0.12177400956E+00  0.85251144665E+00  0.83500000000E+00 0. -1.
        -11    1    4    4    0    0 -0.16846626454E-01  0.36546545276E-02  0.13201633263E-01  0.21718875763E-01  0.51100000000E-03 0.  1.
         11    1    4    4    0    0 -0.84939958942E-01 -0.62833184063E-02  0.11951162059E+00  0.14675682366E+00  0.51100000000E-03 0. -1.
</event>
<event>
 8    1  0.5616615E+005  0.1043930E+01  0.7957747E-01            NaN
         13   -1    0    0    0    0  0.00000000000E+00  0.00000000000E+00  0.74505805969E-08  0.10566000000E+00  0.10566000000E+00 0. -1.
     999900   -1    0    0    0    0 -0.00000000000E+00 -0.00000000000E+00 -0.74505805969E-08  0.93827000000E+00  0.93827000000E+00 0. -1.
     999902    2    1    2    0    0  0.15528260559E-01 -0.90867443264E-02 -0.10086236439E-01  0.10233040948E+01  0.10230962040E+01 0.  0.
     999903    2    3    3    0    0 -0.32203174423E-01  0.88101120720E-01 -0.14181736825E+00  0.17107063968E+00  0.18818764803E-01 0.  0.
         14    1    1    2    0    0 -0.15528260559E-01  0.90867443264E-02  0.10086236439E-01  0.20625905167E-01  0.00000000000E+00 0. -1.
     999901    1    3    3    0    0  0.47731434982E-01 -0.97187865047E-01  0.13173113181E+00  0.85223345515E+00  0.83500000000E+00 0.  1.
        -11    1    4    4    0    0 -0.19636374266E-01  0.61637566559E-01 -0.81856116421E-01  0.10433341613E+00  0.51100000000E-03 0.  1.
         11    1    4    4    0    0 -0.12566800157E-01  0.26463554161E-01 -0.59961251825E-01  0.66737223545E-01  0.51100000000E-03 0. -1.
</event>
<event>
 8    1  0.5616615E+005  0.1043930E+01  0.7957747E-01            NaN
         13   -1    0    0    0    0  0.00000000000E+00  0.00000000000E+00  0.74505805969E-08  0.10566000000E+00  0.10566000000E+00 0.  1.
     999900   -1    0    0    0    0 -0.00000000000E+00 -0.00000000000E+00 -0.74505805969E-08  0.93827000000E+00  0.93827000000E+00 0.  1.
     999902    2    1    2    0    0 -0.17903979337E-01 -0.47967775429E-02 -0.15131008757E-01  0.10200028402E+01  0.10197221607E+01 0.  0.
     999903    2    3    3    0    0  0.38677796545E-01 -0.15353131199E+00 -0.55209730053E-01  0.16903000689E+00  0.21335257895E-01 0.  0.
         14    1    1    2    0    0  0.17903979337E-01  0.47967775429E-02  0.15131008757E-01  0.23927159817E-01  0.00000000000E+00 0.  1.
     999901    1    3    3    0    0 -0.56581775881E-01  0.14873453445E+00  0.40078721295E-01  0.85097283329E+00  0.83500000000E+00 0. -1.
        -11    1    4    4    0    0  0.18756878152E-01 -0.11326553687E+00 -0.38387952018E-01  0.12105700435E+00  0.51100000000E-03 0. -1.
         11    1    4    4    0    0  0.19920918392E-01 -0.40265775124E-01 -0.16821778035E-01  0.47973002545E-01  0.51100000000E-03 0.  1.
</event>
<event>
 8    1  0.5616615E+005  0.1043930E+01  0.7957747E-01            NaN
         13   -1    0    0    0    0  0.00000000000E+00  0.00000000000E+00  0.74505805969E-08  0.10566000000E+00  0.10566000000E+00 0.  1.
     999900   -1    0    0    0    0 -0.00000000000E+00 -0.00000000000E+00 -0.74505805969E-08  0.93827000000E+00  0.93827000000E+00 0. -1.
     999902    2    1    2    0    0  0.30357611464E-01 -0.11199025042E-02  0.55463112820E-02  0.10130495802E+01  0.10125788126E+01 0.  0.
     999903    2    3    3    0    0 -0.80417907928E-01 -0.13559908892E+00  0.18055503269E-01  0.15997435076E+00  0.20288885439E-01 0.  0.
         14    1    1    2    0    0 -0.30357611464E-01  0.11199025042E-02 -0.55463112820E-02  0.30880419755E-01  0.00000000000E+00 0.  1.
     999901    1    3    3    0    0  0.11077551939E+00  0.13447918641E+00 -0.12509191987E-01  0.85307522948E+00  0.83500000000E+00 0. -1.
        -11    1    4    4    0    0 -0.53061376695E-01 -0.10278210754E+00  0.72305181681E-02  0.11589742379E+00  0.51100000000E-03 0. -1.
         11    1    4    4    0    0 -0.27356531234E-01 -0.32816981381E-01  0.10824985101E-01  0.44076926975E-01  0.51100000000E-03 0.  1.
</event>
<event>
 8    1  0.5616615E+005  0.1043930E+01  0.7957747E-01            NaN
         13   -1    0    0    0    0  0.00000000000E+00  0.00000000000E+00  0.74505805969E-08  0.10566000000E+00  0.10566000000E+00 0.  1.
     999900   -1    0    0    0    0 -0.00000000000E+00 -0.00000000000E+00 -0.74505805969E-08  0.93827000000E+00  0.93827000000E+00 0.  1.
     999902    2    1    2    0    0 -0.35725981944E-02  0.22574137684E-01 -0.10308238960E-01  0.10188578054E+01  0.10185492687E+01 0.  0.
     999903    2    3    3    0    0  0.68149125487E-01  0.15195129276E+00 -0.31216285104E-01  0.17059805730E+00  0.19893265736E-01 0.  0.
         14    1    1    2    0    0  0.35725981944E-02 -0.22574137684E-01  0.10308238960E-01  0.25072194569E-01  0.00000000000E+00 0. -1.
     999901    1    3    3    0    0 -0.71721723681E-01 -0.12937715508E+00  0.20908046144E-01  0.84825974813E+00  0.83500000000E+00 0. -1.
        -11    1    4    4    0    0  0.12464159826E-01  0.14852513500E-01 -0.15748861572E-03  0.19396864724E-01  0.51100000000E-03 0. -1.
         11    1    4    4    0    0  0.55684965661E-01  0.13709877926E+00 -0.31058796488E-01  0.15120119258E+00  0.51100000000E-03 0.  1.
</event>
<event>
 8    1  0.5616615E+005  0.1043930E+01  0.7957747E-01            NaN
         13   -1    0    0    0    0  0.00000000000E+00  0.00000000000E+00  0.74505805969E-08  0.10566000000E+00  0.10566000000E+00 0. -1.
     999900   -1    0    0    0    0 -0.00000000000E+00 -0.00000000000E+00 -0.74505805969E-08  0.93827000000E+00  0.93827000000E+00 0. -1.
     999902    2    1    2    0    0 -0.19387684106E-01  0.93137870050E-02 -0.11411220065E-01  0.10195815942E+01  0.10192908232E+01 0.  0.
     999903    2    3    3    0    0 -0.13101145097E+00  0.61167435184E-01  0.86745122573E-01  0.16987085882E+00  0.20638240604E-01 0.  0.
         14    1    1    2    0    0  0.19387684106E-01 -0.93137870050E-02  0.11411220065E-01  0.24348405836E-01  0.00000000000E+00 0. -1.
     999901    1    3    3    0    0  0.11162376686E+00 -0.51853648179E-01 -0.98156342638E-01  0.84971073534E+00  0.83500000000E+00 0. -1.
        -11    1    4    4    0    0 -0.73240429375E-01  0.45371597799E-01  0.50722955657E-01  0.99979106485E-01  0.51100000000E-03 0. -1.
         11    1    4    4    0    0 -0.57771021591E-01  0.15795837385E-01  0.36022166916E-01  0.69891752336E-01  0.51100000000E-03 0.  1.
</event>
<event>
 8    1  0.5616615E+005  0.1043930E+01  0.7957747E-01            NaN
         13   -1    0    0    0    0  0.00000000000E+00  0.00000000000E+00  0.74505805969E-08  0.10566000000E+00  0.10566000000E+00 0.  1.
     999900   -1    0    0    0    0 -0.00000000000E+00 -0.00000000000E+00 -0.74505805969E-08  0.93827000000E+00  0.93827000000E+00 0. -1.
     999902    2    1    2    0    0 -0.20248425756E-01  0.14229293541E-02  0.12767116333E-01  0.10199503684E+01  0.10196684418E+01 0.  0.
     999903    2    3    3    0    0  0.14632445499E+00  0.15163475255E-01  0.74160606781E-01  0.16617669352E+00  0.21774314253E-01 0.  0.
         14    1    1    2    0    0  0.20248425756E-01 -0.14229293541E-02 -0.12767116333E-01  0.23979631627E-01  0.00000000000E+00 0.  1.
     999901    1    3    3    0    0 -0.16657288075E+00 -0.13740545901E-01 -0.61393490448E-01  0.85377367485E+00  0.83500000000E+00 0.  1.
        -11    1    4    4    0    0  0.43887153798E-01  0.10876687743E-01  0.31602262092E-01  0.55166554135E-01  0.51100000000E-03 0. -1.
         11    1    4    4    0    0  0.10243730119E+00  0.42867875120E-02  0.42558344688E-01  0.11101013939E+00  0.51100000000E-03 0.  1.
</event>
<event>
 8    1  0.5616615E+005  0.1043930E+01  0.7957747E-01            NaN
         13   -1    0    0    0    0  0.00000000000E+00  0.00000000000E+00  0.74505805969E-08  0.10566000000E+00  0.10566000000E+00 0. -1.
     999900   -1    0    0    0    0 -0.00000000000E+00 -0.00000000000E+00 -0.74505805969E-08  0.93827000000E+00  0.93827000000E+00 0. -1.
     999902    2    1    2    0    0  0.19898018696E-01  0.90707362535E-02  0.11522680762E-01  0.10192119585E+01  0.10189121821E+01 0.  0.
     999903    2    3    3    0    0 -0.11149004842E+00 -0.48383107071E-01  0.11175885260E+00  0.16607887483E+00  0.17921930247E-01 0.  0.
         14    1    1    2    0    0 -0.19898018696E-01 -0.90707362535E-02 -0.11522680762E-01  0.24718041512E-01  0.00000000000E+00 0. -1.
     999901    1    3    3    0    0  0.13138806711E+00  0.57453843324E-01 -0.10023617184E+00  0.85313308366E+00  0.83500000000E+00 0.  1.
        -11    1    4    4    0    0 -0.90233030767E-01 -0.39337107921E-01  0.80237280631E-01  0.12699484330E+00  0.51100000000E-03 0.  1.
         11    1    4    4    0    0 -0.21257017650E-01 -0.90459991493E-02  0.31521571969E-01  0.39084031527E-01  0.51100000000E-03 0. -1.
</event>
<event>
 8    1  0.5616615E+005  0.1043930E+01  0.7957747E-01            NaN
         13   -1    0    0    0    0  0.00000000000E+00  0.00000000000E+00  0.74505805969E-08  0.10566000000E+00  0.10566000000E+00 0. -1.
     999900   -1    0    0    0    0 -0.00000000000E+00 -0.00000000000E+00 -0.74505805969E-08  0.93827000000E+00  0.93827000000E+00 0.  1.
     999902    2    1    2    0    0 -0.11971140745E-01  0.43982057273E-03 -0.20088386847E-01  0.10205410082E+01  0.10202729558E+01 0.  0.
     999903    2    3    3    0    0  0.81809829299E-01  0.14420918069E+00 -0.19063638360E-01  0.16807954314E+00  0.19954311502E-01 0.  0.
         14    1    1    2    0    0  0.11971140745E-01 -0.43982057273E-03  0.20088386847E-01  0.23388991833E-01  0.00000000000E+00 0. -1.
     999901    1    3    3    0    0 -0.93780970044E-01 -0.14376936012E+00 -0.10247484872E-02  0.85246146503E+00  0.83500000000E+00 0. -1.
        -11    1    4    4    0    0  0.44771485451E-01  0.84347474887E-01 -0.20495995564E-01  0.97669490551E-01  0.51100000000E-03 0.  1.
         11    1    4    4    0    0  0.37038343848E-01  0.59861705805E-01  0.14323572042E-02  0.70410052585E-01  0.51100000000E-03 0. -1.
</event>
<event>
 7    1  0.1641893E+006  0.1043930E+01  0.7957747E-01            NaN
         13   -1    0    0    0    0  0.00000000000E+00  0.00000000000E+00  0.74505805969E-08  0.10566000000E+00  0.10566000000E+00 0. -1.
     999900   -1    0    0    0    0 -0.00000000000E+00 -0.00000000000E+00 -0.74505805969E-08  0.93827000000E+00  0.93827000000E+00 0. -1.
     999903    2    1    2    0    0  0.66680718457E-01 -0.67671852084E-02 -0.12765441716E+00  0.14570404203E+00  0.21021527851E-01 0.  0.
         14    1    1    2    0    0 -0.47396685846E-01  0.84651656768E-02 -0.16004252996E-01  0.50736978360E-01  0.00000000000E+00 0. -1.
     999901    1    1    2    0    0 -0.19284032611E-01 -0.16979804684E-02  0.14365867016E+00  0.84748897961E+00  0.83500000000E+00 0.  1.
        -11    1    3    3    0    0  0.40882978110E-01 -0.91254295631E-02 -0.59309159315E-01  0.72612181234E-01  0.51100000000E-03 0. -1.
         11    1    3    3    0    0  0.25797740347E-01  0.23582443547E-02 -0.68345257846E-01  0.73091860795E-01  0.51100000000E-03 0.  1.
</event>
<event>
 8    1  0.5616615E+005  0.1043930E+01  0.7957747E-01            NaN
         13   -1    0    0    0    0  0.00000000000E+00  0.00000000000E+00  0.74505805969E-08  0.10566000000E+00  0.10566000000E+00 0.  1.
     999900   -1    0    0    0    0 -0.00000000000E+00 -0.00000000000E+00 -0.74505805969E-08  0.93827000000E+00  0.93827000000E+00 0.  1.
     999902    2    1    2    0    0 -0.13270073426E-01  0.69504746596E-02  0.17486956792E-01  0.10209039798E+01  0.10206442762E+01 0.  0.
     999903    2    3    3    0    0 -0.68392172150E-01 -0.99373974999E-01 -0.11393509981E+00  0.16718266036E+00  0.20399971557E-01 0.  0.
         14    1    1    2    0    0  0.13270073426E-01 -0.69504746596E-02 -0.17486956792E-01  0.23026020164E-01  0.00000000000E+00 0. -1.
     999901    1    3    3    0    0  0.55122098723E-01  0.10632444966E+00  0.13142205660E+00  0.85372131947E+00  0.83500000000E+00 0. -1.
        -11    1    4    4    0    0 -0.21549516629E-01 -0.23408988341E-01 -0.41147007453E-01  0.52016341139E-01  0.51100000000E-03 0.  1.
         11    1    4    4    0    0 -0.46842655521E-01 -0.75964986658E-01 -0.72788092353E-01  0.11516631922E+00  0.51100000000E-03 0. -1.
</event>
<event>
 8    1  0.5616615E+005  0.1043930E+01  0.7957747E-01            NaN
         13   -1    0    0    0    0  0.00000000000E+00  0.00000000000E+00  0.74505805969E-08  0.10566000000E+00  0.10566000000E+00 0.  1.
     999900   -1    0    0    0    0 -0.00000000000E+00 -0.00000000000E+00 -0.74505805969E-08  0.93827000000E+00  0.93827000000E+00 0.  1.
     999902    2    1    2    0    0 -0.16041174204E-01  0.50019744327E-02  0.16581455777E-01  0.10203231431E+01  0.10200500148E+01 0.  0.
     999903    2    3    3    0    0  0.67000431074E-01  0.94463804554E-01  0.12263997254E+00  0.16980992376E+00  0.19554518858E-01 0.  0.
         14    1    1    2    0    0  0.16041174204E-01 -0.50019744327E-02 -0.16581455777E-01  0.23606856923E-01  0.00000000000E+00 0.  1.
     999901    1    3    3    0    0 -0.83041605278E-01 -0.89461830121E-01 -0.10605851676E+00  0.85051321932E+00  0.83500000000E+00 0.  1.
        -11    1    4    4    0    0  0.47249372042E-01  0.78555760521E-01  0.89940796643E-01  0.12842553754E+00  0.51100000000E-03 0. -1.
         11    1    4    4    0    0  0.19751059032E-01  0.15908044032E-01  0.32699175897E-01  0.41384386224E-01  0.51100000000E-03 0.  1.
</event>
<event>
 8    1  0.5616615E+005  0.1043930E+01  0.7957747E-01            NaN
         13   -1    0    0    0    0  0.00000000000E+00  0.00000000000E+00  0.74505805969E-08  0.10566000000E+00  0.10566000000E+00 0. -1.
     999900   -1    0    0    0    0 -0.00000000000E+00 -0.00000000000E+00 -0.74505805969E-08  0.93827000000E+00  0.93827000000E+00 0.  1.
     999902    2    1    2    0    0  0.29508928818E-02 -0.24497545812E-01 -0.19793685892E-01  0.10122973030E+01  0.10118029463E+01 0.  0.
     999903    2    3    3    0    0 -0.10200699815E+00  0.63791835427E-01  0.99712436483E-01  0.15771091939E+00  0.21338654304E-01 0.  0.
         14    1    1    2    0    0 -0.29508928818E-02  0.24497545812E-01  0.19793685892E-01  0.31632697020E-01  0.00000000000E+00 0. -1.
     999901    1    3    3    0    0  0.10495789103E+00 -0.88289381239E-01 -0.11950612238E+00  0.85458638359E+00  0.83500000000E+00 0.  1.
        -11    1    4    4    0    0 -0.71944117447E-01  0.40022239784E-01  0.55969731621E-01  0.99552035094E-01  0.51100000000E-03 0.  1.
         11    1    4    4    0    0 -0.30062880701E-01  0.23769595643E-01  0.43742704863E-01  0.58158884298E-01  0.51100000000E-03 0. -1.
</event>
<event>
 8    1  0.5616615E+005  0.1043930E+01  0.7957747E-01            NaN
         13   -1    0    0    0    0  0.00000000000E+00  0.00000000000E+00  0.74505805969E-08  0.10566000000E+00  0.10566000000E+00 0.  1.
     999900   -1    0    0    0    0 -0.00000000000E+00 -0.00000000000E+00 -0.74505805969E-08  0.93827000000E+00  0.93827000000E+00 0.  1.
     999902    2    1    2    0    0 -0.10882841185E-01 -0.14982151398E-01  0.88802013425E-02  0.10233932264E+01  0.10231871465E+01 0.  0.
     999903    2    3    3    0    0 -0.15538604472E+00 -0.19955044644E-01  0.71849643507E-01  0.17363087368E+00  0.21030509335E-01 0.  0.
         14    1    1    2    0    0  0.10882841185E-01  0.14982151398E-01 -0.88802013425E-02  0.20536773570E-01  0.00000000000E+00 0. -1.
     999901    1    3    3    0    0  0.14450320354E+00  0.49728932461E-02 -0.62969442164E-01  0.84976235275E+00  0.83500000000E+00 0.  1.
        -11    1    4    4    0    0 -0.92481294956E-01 -0.31924354629E-02  0.35857768967E-01  0.99242240388E-01  0.51100000000E-03 0.  1.
         11    1    4    4    0    0 -0.62904749766E-01 -0.16762609181E-01  0.35991874539E-01  0.74388633295E-01  0.51100000000E-03 0. -1.
</event>
<event>
 8    1  0.5616615E+005  0.1043930E+01  0.7957747E-01            NaN
         13   -1    0    0    0    0  0.00000000000E+00  0.00000000000E+00  0.74505805969E-08  0.10566000000E+00  0.10566000000E+00 0.  1.
     999900   -1    0    0    0    0 -0.00000000000E+00 -0.00000000000E+00 -0.74505805969E-08  0.93827000000E+00  0.93827000000E+00 0.  1.
     999902    2    1    2    0    0  0.17247418461E-01  0.63081273117E-02  0.19658785379E-01  0.10170276998E+01  0.10166718293E+01 0.  0.
     999903    2    3    3    0    0 -0.46929541900E-01  0.12746468779E+00 -0.89354418841E-01  0.16385334887E+00  0.20348936857E-01 0.  0.
         14    1    1    2    0    0 -0.17247418461E-01 -0.63081273117E-02 -0.19658785379E-01  0.26902300205E-01  0.00000000000E+00 0. -1.
     999901    1    3    3    0    0  0.64176960361E-01 -0.12115656048E+00  0.10901320422E+00  0.85317435093E+00  0.83500000000E+00 0. -1.
        -11    1    4    4    0    0 -0.38313014467E-01  0.83745978723E-01 -0.67741687652E-01  0.11432617109E+00  0.51100000000E-03 0. -1.
         11    1    4    4    0    0 -0.86165274327E-02  0.43718709070E-01 -0.21612731189E-01  0.49527177774E-01  0.51100000000E-03 0.  1.
</event>
<event>
 8    1  0.5616615E+005  0.1043930E+01  0.7957747E-01            NaN
         13   -1    0    0    0    0  0.00000000000E+00  0.00000000000E+00  0.74505805969E-08  0.10566000000E+00  0.10566000000E+00 0.  1.
     999900   -1    0    0    0    0 -0.00000000000E+00 -0.00000000000E+00 -0.74505805969E-08  0.93827000000E+00  0.93827000000E+00 0.  1.
     999902    2    1    2    0    0 -0.64056843730E-02  0.17364129525E-01  0.14699678466E-01  0.10202947227E+01  0.10200209286E+01 0.  0.
     999903    2    3    3    0    0 -0.95943011120E-01  0.12331582429E+00  0.69447557867E-01  0.17208188100E+00  0.19425667894E-01 0.  0.
         14    1    1    2    0    0  0.64056843730E-02 -0.17364129525E-01 -0.14699678466E-01  0.23635277308E-01  0.00000000000E+00 0. -1.
     999901    1    3    3    0    0  0.89537326747E-01 -0.10595169477E+00 -0.54747879402E-01  0.84821284169E+00  0.83500000000E+00 0.  1.
        -11    1    4    4    0    0 -0.38928672021E-01  0.36721001099E-01  0.19100488796E-01  0.56823966953E-01  0.51100000000E-03 0. -1.
         11    1    4    4    0    0 -0.57014339099E-01  0.86594823191E-01  0.50347069071E-01  0.11525791405E+00  0.51100000000E-03 0.  1.
</event>
<event>
 8    1  0.5616615E+005  0.1043930E+01  0.7957747E-01            NaN
         13   -1    0    0    0    0  0.00000000000E+00  0.00000000000E+00  0.74505805969E-08  0.10566000000E+00  0.10566000000E+00 0. -1.
     999900   -1    0    0    0    0 -0.00000000000E+00 -0.00000000000E+00 -0.74505805969E-08  0.93827000000E+00  0.93827000000E+00 0.  1.
     999902    2    1    2    0    0 -0.22435436304E-01  0.86911650886E-02  0.19033356754E-02  0.10197948008E+01  0.10195091603E+01 0.  0.
     999903    2    3    3    0    0 -0.69332530148E-02 -0.14380882765E-01 -0.16580905972E+00  0.16766506619E+00  0.19080103405E-01 0.  0.
         14    1    1    2    0    0  0.22435436304E-01 -0.86911650886E-02 -0.19033356754E-02  0.24135199180E-01  0.00000000000E+00 0. -1.
     999901    1    3    3    0    0 -0.15502183289E-01  0.23072047854E-01  0.16771239540E+00  0.85212973464E+00  0.83500000000E+00 0. -1.
        -11    1    4    4    0    0 -0.52718738181E-02 -0.18973027607E-01 -0.12175076118E+00  0.12333400747E+00  0.51100000000E-03 0.  1.
         11    1    4    4    0    0 -0.16613791967E-02  0.45921448419E-02 -0.44058298544E-01  0.44331058713E-01  0.51100000000E-03 0. -1.
</event>
<event>
 8    1  0.5616615E+005  0.1043930E+01  0.7957747E-01            NaN
         13   -1    0    0    0    0  0.00000000000E+00  0.00000000000E+00  0.74505805969E-08  0.10566000000E+00  0.10566000000E+00 0. -1.
     999900   -1    0    0    0    0 -0.00000000000E+00 -0.00000000000E+00 -0.74505805969E-08  0.93827000000E+00  0.93827000000E+00 0. -1.
     999902    2    1    2    0    0 -0.16071810587E-01  0.14787901510E-01  0.11768266349E-01  0.10191211867E+01  0.10188191772E+01 0.  0.
     999903    2    3    3    0    0 -0.11243560570E+00  0.11776225572E+00 -0.45914274118E-01  0.17033265345E+00  0.19884113291E-01 0.  0.
         14    1    1    2    0    0  0.16071810587E-01 -0.14787901510E-01 -0.11768266349E-01  0.24808813343E-01  0.00000000000E+00 0.  1.
     999901    1    3    3    0    0  0.96363795112E-01 -0.10297435421E+00  0.57682540467E-01  0.84878853321E+00  0.83500000000E+00 0. -1.
        -11    1    4    4    0    0 -0.23223219656E-01  0.29138605623E-01 -0.18604641095E-01  0.41650570946E-01  0.51100000000E-03 0.  1.
         11    1    4    4    0    0 -0.89212386043E-01  0.88623650098E-01 -0.27309633023E-01  0.12868208250E+00  0.51100000000E-03 0. -1.
</event>
<event>
 8    1  0.5616615E+005  0.1043930E+01  0.7957747E-01            NaN
         13   -1    0    0    0    0  0.00000000000E+00  0.00000000000E+00  0.74505805969E-08  0.10566000000E+00  0.10566000000E+00 0.  1.
     999900   -1    0    0    0    0 -0.00000000000E+00 -0.00000000000E+00 -0.74505805969E-08  0.93827000000E+00  0.93827000000E+00 0. -1.
     999902    2    1    2    0    0 -0.17944972240E-01  0.10044145561E-01  0.10982390375E-01  0.10206164892E+01  0.10203501841E+01 0.  0.
     999903    2    3    3    0    0  0.85382741481E-01  0.50713047221E-01  0.13538611198E+00  0.16912846111E+00  0.20322680390E-01 0.  0.
         14    1    1    2    0    0  0.17944972240E-01 -0.10044145561E-01 -0.10982390375E-01  0.23313510828E-01  0.00000000000E+00 0. -1.
     999901    1    3    3    0    0 -0.10332771372E+00 -0.40668901660E-01 -0.12440372161E+00  0.85148802806E+00  0.83500000000E+00 0. -1.
        -11    1    4    4    0    0  0.41365530785E-01  0.27700832296E-01  0.84093739303E-01  0.97726461913E-01  0.51100000000E-03 0.  1.
         11    1    4    4    0    0  0.44017210695E-01  0.23012214924E-01  0.51292372680E-01  0.71401999197E-01  0.51100000000E-03 0. -1.
</event>
<event>
 8    1  0.5616615E+005  0.1043930E+01  0.7957747E-01            NaN
         13   -1    0    0    0    0  0.00000000000E+00  0.00000000000E+00  0.74505805969E-08  0.10566000000E+00  0.10566000000E+00 0.  1.
     999900   -1    0    0    0    0 -0.00000000000E+00 -0.00000000000E+00 -0.74505805969E-08  0.93827000000E+00  0.93827000000E+00 0. -1.
     999902    2    1    2    0    0 -0.92664776322E-03  0.15249268004E-01 -0.17405550110E-01  0.10207707249E+01  0.10205079719E+01 0.  0.
     999903    2    3    3    0    0  0.30439284024E-01  0.71536836086E-01  0.14666893595E+00  0.16736721597E+00  0.21352734675E-01 0.  0.
         14    1    1    2    0    0  0.92664776322E-03 -0.15249268004E-01  0.17405550110E-01  0.23159275148E-01  0.00000000000E+00 0.  1.
     999901    1    3    3    0    0 -0.31365931787E-01 -0.56287568082E-01 -0.16407448606E+00  0.85340350888E+00  0.83500000000E+00 0.  1.
        -11    1    4    4    0    0  0.21243861553E-01  0.33500318702E-01  0.91469510111E-01  0.99702083267E-01  0.51100000000E-03 0.  1.
         11    1    4    4    0    0  0.91954224712E-02  0.38036517384E-01  0.55199425843E-01  0.67665132702E-01  0.51100000000E-03 0. -1.
</event>
<event>
 8    1  0.5616615E+005  0.1043930E+01  0.7957747E-01            NaN
         13   -1    0    0    0    0  0.00000000000E+00  0.00000000000E+00  0.74505805969E-08  0.10566000000E+00  0.10566000000E+00 0.  1.
     999900   -1    0    0    0    0 -0.00000000000E+00 -0.00000000000E+00 -0.74505805969E-08  0.93827000000E+00  0.93827000000E+00 0.  1.
     999902    2    1    2    0    0  0.17234100774E-01 -0.43786874501E-02  0.14423342878E-01  0.10210341499E+01  0.10207774073E+01 0.  0.
     999903    2    3    3    0    0 -0.62317380833E-01  0.47122424474E-01  0.14963492504E+00  0.16986555629E+00  0.18966222092E-01 0.  0.
         14    1    1    2    0    0 -0.17234100774E-01  0.43786874501E-02 -0.14423342878E-01  0.22895850127E-01  0.00000000000E+00 0. -1.
     999901    1    3    3    0    0  0.79551481607E-01 -0.51501111924E-01 -0.13521158216E+00  0.85116859358E+00  0.83500000000E+00 0.  1.
        -11    1    4    4    0    0 -0.12295342719E-01  0.17562490851E-01  0.52002317596E-01  0.56250499498E-01  0.51100000000E-03 0. -1.
         11    1    4    4    0    0 -0.50022038114E-01  0.29559933623E-01  0.97632607440E-01  0.11361505679E+00  0.51100000000E-03 0.  1.
</event>
<event>
 8    1  0.5616615E+005  0.1043930E+01  0.7957747E-01            NaN
         13   -1    0    0    0    0  0.00000000000E+00  0.00000000000E+00  0.74505805969E-08  0.10566000000E+00  0.10566000000E+00 0. -1.
     999900   -1    0    0    0    0 -0.00000000000E+00 -0.00000000000E+00 -0.74505805969E-08  0.93827000000E+00  0.93827000000E+00 0. -1.
     999902    2    1    2    0    0  0.20412001126E-01  0.90816378610E-02  0.81373850504E-02  0.10201530580E+01  0.10198759330E+01 0.  0.
     999903    2    3    3    0    0 -0.92813540333E-01  0.96134371707E-01 -0.97308017823E-01  0.16648922796E+00  0.19840413305E-01 0.  0.
         14    1    1    2    0    0 -0.20412001126E-01 -0.90816378610E-02 -0.81373850504E-02  0.23776942017E-01  0.00000000000E+00 0.  1.
     999901    1    3    3    0    0  0.11322554146E+00 -0.87052733846E-01  0.10544540287E+00  0.85366383003E+00  0.83500000000E+00 0.  1.
        -11    1    4    4    0    0 -0.36333390096E-01  0.37595667095E-01 -0.50224219515E-01  0.72500225980E-01  0.51100000000E-03 0.  1.
         11    1    4    4    0    0 -0.56480150237E-01  0.58538704612E-01 -0.47083798308E-01  0.93989001976E-01  0.51100000000E-03 0. -1.
</event>
<event>
 8    1  0.5616615E+005  0.1043930E+01  0.7957747E-01            NaN
         13   -1    0    0    0    0  0.00000000000E+00  0.00000000000E+00  0.74505805969E-08  0.10566000000E+00  0.10566000000E+00 0.  1.
     999900   -1    0    0    0    0 -0.00000000000E+00 -0.00000000000E+00 -0.74505805969E-08  0.93827000000E+00  0.93827000000E+00 0. -1.
     999902    2    1    2    0    0 -0.23573754096E-01 -0.60629360117E-02  0.22299451659E-02  0.10194871333E+01  0.10191940744E+01 0.  0.
     999903    2    3    3    0    0 -0.15176589401E+00 -0.69090139537E-02 -0.76076642139E-01  0.17108224049E+00  0.20021400388E-01 0.  0.
         14    1    1    2    0    0  0.23573754096E-01  0.60629360117E-02 -0.22299451659E-02  0.24442866663E-01  0.00000000000E+00 0. -1.
     999901    1    3    3    0    0  0.12819213992E+00  0.84607794195E-03  0.78306587305E-01  0.84840489284E+00  0.83500000000E+00 0.  1.
        -11    1    4    4    0    0 -0.48839402862E-01 -0.14435617083E-02 -0.35097791225E-01  0.60162174264E-01  0.51100000000E-03 0.  1.
         11    1    4    4    0    0 -0.10292649115E+00 -0.54654522453E-02 -0.40978850914E-01  0.11092006623E+00  0.51100000000E-03 0. -1.
</event>
<event>
 8    1  0.5616615E+005  0.1043930E+01  0.7957747E-01            NaN
         13   -1    0    0    0    0  0.00000000000E+00  0.00000000000E+00  0.74505805969E-08  0.10566000000E+00  0.10566000000E+00 0.  1.
     999900   -1    0    0    0    0 -0.00000000000E+00 -0.00000000000E+00 -0.74505805969E-08  0.93827000000E+00  0.93827000000E+00 0. -1.
     999902    2    1    2    0    0 -0.23262116585E-01  0.60388531133E-02  0.56422228128E-02  0.10192433945E+01  0.10189443894E+01 0.  0.
     999903    2    3    3    0    0  0.14001942239E-01  0.15263805333E+00  0.66765683669E-01  0.16845492894E+00  0.20614966891E-01 0.  0.
         14    1    1    2    0    0  0.23262116585E-01 -0.60388531133E-02 -0.56422228128E-02  0.24686605543E-01  0.00000000000E+00 0. -1.
     999901    1    3    3    0    0 -0.37264058824E-01 -0.14659920021E+00 -0.61123460856E-01  0.85078846551E+00  0.83500000000E+00 0. -1.
        -11    1    4    4    0    0  0.12374659019E-01  0.96802747941E-01  0.32212179141E-01  0.10277056875E+00  0.51100000000E-03 0. -1.
         11    1    4    4    0    0  0.16272832197E-02  0.55835305386E-01  0.34553504528E-01  0.65684360196E-01  0.51100000000E-03 0.  1.
</event>
<event>
 8    1  0.5616615E+005  0.1043930E+01  0.7957747E-01            NaN
         13   -1    0    0    0    0  0.00000000000E+00  0.00000000000E+00  0.74505805969E-08  0.10566000000E+00  0.10566000000E+00 0.  1.
     999900   -1    0    0    0    0 -0.00000000000E+00 -0.00000000000E+00 -0.74505805969E-08  0.93827000000E+00  0.93827000000E+00 0. -1.
     999902    2    1    2    0    0 -0.13422945972E-01 -0.15299397503E-01  0.11629341570E-01  0.10204888262E+01  0.10202195626E+01 0.  0.
     999903    2    3    3    0    0 -0.14594871928E+00  0.16525140673E-01  0.85580230588E-01  0.17121289003E+00  0.20390412218E-01 0.  0.
         14    1    1    2    0    0  0.13422945972E-01  0.15299397503E-01 -0.11629341570E-01  0.23441173773E-01  0.00000000000E+00 0. -1.
     999901    1    3    3    0    0  0.13252577331E+00 -0.31824538176E-01 -0.73950889018E-01  0.84927593620E+00  0.83500000000E+00 0. -1.
        -11    1    4    4    0    0 -0.89857262777E-01  0.51414420169E-02  0.42275532979E-01  0.99439649584E-01  0.51100000000E-03 0. -1.
         11    1    4    4    0    0 -0.56091456502E-01  0.11383698656E-01  0.43304697610E-01  0.71773240443E-01  0.51100000000E-03 0.  1.
</event>
<event>
 8    1  0.5616615E+005  0.1043930E+01  0.7957747E-01            NaN
         13   -1    0    0    0    0  0.00000000000E+00  0.00000000000E+00  0.74505805969E-08  0.10566000000E+00  0.10566000000E+00 0. -1.
     999900   -1    0    0    0    0 -0.00000000000E+00 -0.00000000000E+00 -0.74505805969E-08  0.93827000000E+00  0.93827000000E+00 0.  1.
     999902    2    1    2    0    0 -0.37116036911E-02  0.16654097383E-01 -0.22570820124E-01  0.10156355326E+01  0.10152413301E+01 0.  0.
     999903    2    3    3    0    0 -0.97862549093E-01  0.27575493984E-01 -0.13229413224E+00  0.16814046916E+00  0.20784454774E-01 0.  0.
         14    1    1    2    0    0  0.37116036911E-02 -0.16654097383E-01  0.22570820124E-01  0.28294467351E-01  0.00000000000E+00 0. -1.
     999901    1    3    3    0    0  0.94150945402E-01 -0.10921396601E-01  0.10972331211E+00  0.84749506349E+00  0.83500000000E+00 0.  1.
        -11    1    4    4    0    0 -0.40858948150E-01  0.21394731257E-01 -0.65494025571E-01  0.80105659450E-01  0.51100000000E-03 0. -1.
         11    1    4    4    0    0 -0.57003600943E-01  0.61807627278E-02 -0.66800106666E-01  0.88034809706E-01  0.51100000000E-03 0.  1.
</event>
<event>
 8    1  0.5616615E+005  0.1043930E+01  0.7957747E-01            NaN
         13   -1    0    0    0    0  0.00000000000E+00  0.00000000000E+00  0.74505805969E-08  0.10566000000E+00  0.10566000000E+00 0. -1.
     999900   -1    0    0    0    0 -0.00000000000E+00 -0.00000000000E+00 -0.74505805969E-08  0.93827000000E+00  0.93827000000E+00 0. -1.
     999902    2    1    2    0    0  0.20620784359E-01  0.13115485211E-01  0.75161328092E-02  0.10183619545E+01  0.10180409350E+01 0.  0.
     999903    2    3    3    0    0  0.15754818468E+00  0.22609524171E-01  0.56514535002E-01  0.17073875212E+00  0.25004154283E-01 0.  0.
         14    1    1    2    0    0 -0.20620784359E-01 -0.13115485211E-01 -0.75161328092E-02  0.25568045531E-01  0.00000000000E+00 0.  1.
     999901    1    3    3    0    0 -0.13692740032E+00 -0.94940389599E-02 -0.48998402192E-01  0.84762320234E+00  0.83500000000E+00 0.  1.
        -11    1    4    4    0    0  0.86794592148E-01  0.30454837689E-02  0.39351641281E-01  0.95348775504E-01  0.51100000000E-03 0. -1.
         11    1    4    4    0    0  0.70753592532E-01  0.19564040402E-01  0.17162893720E-01  0.75389976621E-01  0.51100000000E-03 0.  1.
</event>
<event>
 8    1  0.5616615E+005  0.1043930E+01  0.7957747E-01            NaN
         13   -1    0    0    0    0  0.00000000000E+00  0.00000000000E+00  0.74505805969E-08  0.10566000000E+00  0.10566000000E+00 0. -1.
     999900   -1    0    0    0    0 -0.00000000000E+00 -0.00000000000E+00 -0.74505805969E-08  0.93827000000E+00  0.93827000000E+00 0.  1.
     999902    2    1    2    0    0  0.14481111419E-01  0.77940484814E-02 -0.16839208955E-01  0.10203926098E+01  0.10201211053E+01 0.  0.
     999903    2    3    3    0    0  0.19318087970E-01 -0.13721404996E+00  0.90554699332E-01  0.16610390186E+00  0.13764759862E-01 0.  0.
         14    1    1    2    0    0 -0.14481111419E-01 -0.77940484814E-02  0.16839208955E-01  0.23537390210E-01  0.00000000000E+00 0. -1.
     999901    1    3    3    0    0 -0.48369765511E-02  0.14500809844E+00 -0.10739390829E+00  0.85428870793E+00  0.83500000000E+00 0. -1.
        -11    1    4    4    0    0  0.81281658351E-02 -0.21541508567E-01  0.14409202508E-01  0.27165969689E-01  0.51100000000E-03 0.  1.
         11    1    4    4    0    0  0.11189922135E-01 -0.11567254139E+00  0.76145496824E-01  0.13893793217E+00  0.51100000000E-03 0. -1.
</event>
<event>
 8    1  0.5616615E+005  0.1043930E+01  0.7957747E-01            NaN
         13   -1    0    0    0    0  0.00000000000E+00  0.00000000000E+00  0.74505805969E-08  0.10566000000E+00  0.10566000000E+00 0.  1.
     999900   -1    0    0    0    0 -0.00000000000E+00 -0.00000000000E+00 -0.74505805969E-08  0.93827000000E+00  0.93827000000E+00 0. -1.
     999902    2    1    2    0    0  0.11519802839E-01 -0.20829442368E-01  0.20960468121E-02  0.10200351273E+01  0.10197552138E+01 0.  0.
     999903    2    3    3    0    0 -0.11934161066E+00 -0.38143824182E-01  0.10936342768E+00  0.16788737704E+00  0.22987837990E-01 0.  0.
         14    1    1    2    0    0 -0.11519802839E-01  0.20829442368E-01 -0.20960468121E-02  0.23894872652E-01  0.00000000000E+00 0.  1.
     999901    1    3    3    0    0  0.13086141350E+00  0.17314381814E-01 -0.10726738087E+00  0.85214775031E+00  0.83500000000E+00 0. -1.
        -11    1    4    4    0    0 -0.46737741145E-01 -0.26438629357E-01  0.42320426687E-01  0.68371757368E-01  0.51100000000E-03 0.  1.
         11    1    4    4    0    0 -0.72603869516E-01 -0.11705194825E-01  0.67043000996E-01  0.99515619669E-01  0.51100000000E-03 0. -1.
</event>
<event>
 8    1  0.5616615E+005  0.1043930E+01  0.7957747E-01            NaN
         13   -1    0    0    0    0  0.00000000000E+00  0.00000000000E+00  0.74505805969E-08  0.10566000000E+00  0.10566000000E+00 0.  1.
     999900   -1    0    0    0    0 -0.00000000000E+00 -0.00000000000E+00 -0.74505805969E-08  0.93827000000E+00  0.93827000000E+00 0. -1.
     999902    2    1    2    0    0  0.68810890880E-03 -0.22795509026E-01 -0.68020948281E-02  0.10201313190E+01  0.10198536810E+01 0.  0.
     999903    2    3    3    0    0  0.90544487826E-01  0.10810345772E-01 -0.14086594335E+00  0.16901344357E+00  0.20178262115E-01 0.  0.
         14    1    1    2    0    0 -0.68810890880E-03  0.22795509026E-01  0.68020948281E-02  0.23798681049E-01  0.00000000000E+00 0.  1.
     999901    1    3    3    0    0 -0.89856378917E-01 -0.33605854798E-01  0.13406384852E+00  0.85111787538E+00  0.83500000000E+00 0. -1.
        -11    1    4    4    0    0  0.68553543010E-01  0.16822196914E-01 -0.10672872366E+00  0.12796036942E+00  0.51100000000E-03 0.  1.
         11    1    4    4    0    0  0.21990944815E-01 -0.60118511422E-02 -0.34137219690E-01  0.41053074150E-01  0.51100000000E-03 0. -1.
</event>
<event>
 8    1  0.5616615E+005  0.1043930E+01  0.7957747E-01            NaN
         13   -1    0    0    0    0  0.00000000000E+00  0.00000000000E+00  0.74505805969E-08  0.10566000000E+00  0.10566000000E+00 0. -1.
     999900   -1    0    0    0    0 -0.00000000000E+00 -0.00000000000E+00 -0.74505805969E-08  0.93827000000E+00  0.93827000000E+00 0. -1.
     999902    2    1    2    0    0  0.92513072808E-02  0.89309347391E-03 -0.20358008937E-01  0.10215507053E+01  0.10213055423E+01 0.  0.
     999903    2    3    3    0    0  0.20317831310E-01 -0.12712107150E+00  0.10520495118E+00  0.16744230978E+00  0.19906387470E-01 0.  0.
         14    1    1    2    0    0 -0.92513072808E-02 -0.89309347391E-03  0.20358008937E-01  0.22379294677E-01  0.00000000000E+00 0. -1.
     999901    1    3    3    0    0 -0.11066524029E-01  0.12801416497E+00 -0.12556296012E+00  0.85410839555E+00  0.83500000000E+00 0. -1.
        -11    1    4    4    0    0  0.66553947290E-03 -0.62631399174E-01  0.45948432084E-01  0.77683039573E-01  0.51100000000E-03 0. -1.
         11    1    4    4    0    0  0.19652291837E-01 -0.64489672326E-01  0.59256519097E-01  0.89759270205E-01  0.51100000000E-03 0.  1.
</event>
<event>
 8    1  0.5616615E+005  0.1043930E+01  0.7957747E-01            NaN
         13   -1    0    0    0    0  0.00000000000E+00  0.00000000000E+00  0.74505805969E-08  0.10566000000E+00  0.10566000000E+00 0. -1.
     999900   -1    0    0    0    0 -0.00000000000E+00 -0.00000000000E+00 -0.74505805969E-08  0.93827000000E+00  0.93827000000E+00 0. -1.
     999902    2    1    2    0    0  0.21889167233E-01  0.72986840748E-02 -0.32114452453E-02  0.10206336524E+01  0.10203677438E+01 0.  0.
     999903    2    3    3    0    0 -0.24126170029E-01 -0.16261491904E+00  0.24356838156E-01  0.16683446403E+00  0.14656017489E-01 0.  0.
         14    1    1    2    0    0 -0.21889167233E-01 -0.72986840748E-02  0.32114452453E-02  0.23296347609E-01  0.00000000000E+00 0.  1.
     999901    1    3    3    0    0  0.46015337262E-01  0.16991360312E+00 -0.27568283401E-01  0.85379918836E+00  0.83500000000E+00 0. -1.
        -11    1    4    4    0    0 -0.75846560340E-02 -0.96547529605E-01  0.17039444981E-01  0.98333902019E-01  0.51100000000E-03 0. -1.
         11    1    4    4    0    0 -0.16541513995E-01 -0.66067389440E-01  0.73173931746E-02  0.68500562016E-01  0.51100000000E-03 0.  1.
</event>
<event>
 8    1  0.5616615E+005  0.1043930E+01  0.7957747E-01            NaN
         13   -1    0    0    0    0  0.00000000000E+00  0.00000000000E+00  0.74505805969E-08  0.10566000000E+00  0.10566000000E+00 0. -1.
     999900   -1    0    0    0    0 -0.00000000000E+00 -0.00000000000E+00 -0.74505805969E-08  0.93827000000E+00  0.93827000000E+00 0. -1.
     999902    2    1    2    0    0 -0.73762770017E-02 -0.27203799343E-03 -0.22573125550E-01  0.10201806955E+01  0.10199042220E+01 0.  0.
     999903    2    3    3    0    0 -0.33075600125E-01 -0.13369521480E-01  0.15969152878E+00  0.16503310385E+00  0.21489568962E-01 0.  0.
         14    1    1    2    0    0  0.73762770017E-02  0.27203799343E-03  0.22573125550E-01  0.23749304499E-01  0.00000000000E+00 0. -1.
     999901    1    3    3    0    0  0.25699323123E-01  0.13097483486E-01 -0.18226465433E+00  0.85514759165E+00  0.83500000000E+00 0. -1.
        -11    1    4    4    0    0 -0.15094342968E-01 -0.94305627910E-02  0.38102684145E-01  0.42057702793E-01  0.51100000000E-03 0.  1.
         11    1    4    4    0    0 -0.17981257157E-01 -0.39389586888E-02  0.12158884464E+00  0.12297540106E+00  0.51100000000E-03 0. -1.
</event>
<event>
 7    1  0.5616615E+005  0.1043930E+01  0.7957747E-01            NaN
         13   -1    0    0    0    0  0.00000000000E+00  0.00000000000E+00  0.74505805969E-08  0.10566000000E+00  0.10566000000E+00 0.  1.
     999900   -1    0    0    0    0 -0.00000000000E+00 -0.00000000000E+00 -0.74505805969E-08  0.93827000000E+00  0.93827000000E+00 0.  1.
     999903    2    1    2    0    0  0.13745797186E+00  0.12849745389E-01  0.39715711323E-01  0.14497811068E+00  0.19532149537E-01 0.  0.
         14    1    1    2    0    0  0.32379288714E-01  0.23797170842E-01 -0.22154426140E-01  0.45886188285E-01  0.00000000000E+00 0. -1.
     999901    1    1    2    0    0 -0.16983726057E+00 -0.36646916232E-01 -0.17561285183E-01  0.85306570104E+00  0.83500000000E+00 0. -1.
        -11    1    3    3    0    0  0.98915725203E-01  0.65782836321E-02  0.19619726839E-01  0.10105834607E+00  0.51100000000E-03 0.  1.
         11    1    3    3    0    0  0.38542246657E-01  0.62714617574E-02  0.20095984484E-01  0.43919764609E-01  0.51100000000E-03 0. -1.
</event>
<event>
 8    1  0.5616615E+005  0.1043930E+01  0.7957747E-01            NaN
         13   -1    0    0    0    0  0.00000000000E+00  0.00000000000E+00  0.74505805969E-08  0.10566000000E+00  0.10566000000E+00 0. -1.
     999900   -1    0    0    0    0 -0.00000000000E+00 -0.00000000000E+00 -0.74505805969E-08  0.93827000000E+00  0.93827000000E+00 0. -1.
     999902    2    1    2    0    0 -0.21373348066E-01 -0.81793348977E-02  0.16117743770E-02  0.10209883492E+01  0.10207305667E+01 0.  0.
     999903    2    3    3    0    0  0.10483719877E-01 -0.24120657290E-01 -0.16547515447E+00  0.16869025557E+00  0.19561724996E-01 0.  0.
         14    1    1    2    0    0  0.21373348066E-01  0.81793348977E-02 -0.16117743770E-02  0.22941650847E-01  0.00000000000E+00 0.  1.
     999901    1    3    3    0    0 -0.31857067943E-01  0.15941322392E-01  0.16708692885E+00  0.85229809359E+00  0.83500000000E+00 0.  1.
        -11    1    4    4    0    0  0.71528536481E-04 -0.17792288471E-01 -0.62175001648E-01  0.64672734566E-01  0.51100000000E-03 0.  1.
         11    1    4    4    0    0  0.10412191341E-01 -0.63283688190E-02 -0.10330015283E+00  0.10401752100E+00  0.51100000000E-03 0. -1.
</event>
<event>
 8    1  0.5616615E+005  0.1043930E+01  0.7957747E-01            NaN
         13   -1    0    0    0    0  0.00000000000E+00  0.00000000000E+00  0.74505805969E-08  0.10566000000E+00  0.10566000000E+00 0.  1.
     999900   -1    0    0    0    0 -0.00000000000E+00 -0.00000000000E+00 -0.74505805969E-08  0.93827000000E+00  0.93827000000E+00 0.  1.
     999902    2    1    2    0    0 -0.81439671419E-02  0.15047110970E-01  0.16750728620E-01  0.10199857594E+01  0.10197046743E+01 0.  0.
     999903    2    3    3    0    0  0.13128908098E+00 -0.26382391381E-01 -0.94635220696E-01  0.16512330947E+00  0.19417233916E-01 0.  0.
         14    1    1    2    0    0  0.81439671419E-02 -0.15047110970E-01 -0.16750728620E-01  0.23944240615E-01  0.00000000000E+00 0.  1.
     999901    1    3    3    0    0 -0.13943304812E+00  0.41429502352E-01  0.11138594932E+00  0.85486244992E+00  0.83500000000E+00 0. -1.
        -11    1    4    4    0    0  0.78205009663E-01 -0.72147281016E-02 -0.60748064359E-01  0.99290806636E-01  0.51100000000E-03 0.  1.
         11    1    4    4    0    0  0.53084071319E-01 -0.19167663280E-01 -0.33887156337E-01  0.65832502831E-01  0.51100000000E-03 0. -1.
</event>
<event>
 8    1  0.5616615E+005  0.1043930E+01  0.7957747E-01            NaN
         13   -1    0    0    0    0  0.00000000000E+00  0.00000000000E+00  0.74505805969E-08  0.10566000000E+00  0.10566000000E+00 0. -1.
     999900   -1    0    0    0    0 -0.00000000000E+00 -0.00000000000E+00 -0.74505805969E-08  0.93827000000E+00  0.93827000000E+00 0.  1.
     999902    2    1    2    0    0  0.69457396242E-02 -0.33656517353E-02 -0.23377728359E-01  0.10193111232E+01  0.10190137766E+01 0.  0.
     999903    2    3    3    0    0  0.71865256275E-01 -0.14355539388E+00 -0.53175040474E-01  0.16961671507E+00  0.13018407267E-01 0.  0.
         14    1    1    2    0    0 -0.69457396242E-02  0.33656517353E-02  0.23377728359E-01  0.24618876777E-01  0.00000000000E+00 0. -1.
     999901    1    3    3    0    0 -0.64919516651E-01  0.14018974215E+00  0.29797312115E-01  0.84969440816E+00  0.83500000000E+00 0. -1.
        -11    1    4    4    0    0  0.50312607869E-01 -0.11117721946E+00 -0.43265019868E-01  0.12947530924E+00  0.51100000000E-03 0. -1.
         11    1    4    4    0    0  0.21552648406E-01 -0.32378174423E-01 -0.99100206061E-02  0.40141405826E-01  0.51100000000E-03 0.  1.
</event>
<event>
 8    1  0.5616615E+005  0.1043930E+01  0.7957747E-01            NaN
         13   -1    0    0    0    0  0.00000000000E+00  0.00000000000E+00  0.74505805969E-08  0.10566000000E+00  0.10566000000E+00 0.  1.
     999900   -1    0    0    0    0 -0.00000000000E+00 -0.00000000000E+00 -0.74505805969E-08  0.93827000000E+00  0.93827000000E+00 0. -1.
     999902    2    1    2    0    0  0.94067388652E-03 -0.10290667372E-01  0.21463157604E-01  0.10201087944E+01  0.10198306244E+01 0.  0.
     999903    2    3    3    0    0  0.73604392568E-01 -0.65589959938E-01  0.13937620033E+00  0.17189507520E+00  0.20063454636E-01 0.  0.
         14    1    1    2    0    0 -0.94067388652E-03  0.10290667372E-01 -0.21463157604E-01  0.23821205609E-01  0.00000000000E+00 0. -1.
     999901    1    3    3    0    0 -0.72663718681E-01  0.55299292566E-01 -0.11791304272E+00  0.84821371919E+00  0.83500000000E+00 0. -1.
        -11    1    4    4    0    0  0.37662509177E-01 -0.42700501568E-01  0.67216158975E-01  0.88091262790E-01  0.51100000000E-03 0.  1.
         11    1    4    4    0    0  0.35941883391E-01 -0.22889458370E-01  0.72160041353E-01  0.83803812414E-01  0.51100000000E-03 0. -1.
</event>
<event>
 7    1  0.5616615E+005  0.1043930E+01  0.7957747E-01            NaN
         13   -1    0    0    0    0  0.00000000000E+00  0.00000000000E+00  0.74505805969E-08  0.10566000000E+00  0.10566000000E+00 0. -1.
     999900   -1    0    0    0    0 -0.00000000000E+00 -0.00000000000E+00 -0.74505805969E-08  0.93827000000E+00  0.93827000000E+00 0. -1.
     999903    2    1    2    0    0 -0.12848740028E+00 -0.41602882627E-01  0.31522030095E-01  0.14070022975E+00  0.23729820782E-01 0.  0.
         14    1    1    2    0    0 -0.24420807421E-01 -0.40021186017E-01  0.14823035259E-01  0.49171064048E-01  0.00000000000E+00 0. -1.
     999901    1    1    2    0    0  0.15290820770E+00  0.81624068645E-01 -0.46345065354E-01  0.85405870621E+00  0.83500000000E+00 0. -1.
        -11    1    3    3    0    0 -0.47637933064E-01 -0.99161824943E-02  0.21791225986E-01  0.53318120680E-01  0.51100000000E-03 0.  1.
         11    1    3    3    0    0 -0.80849467220E-01 -0.31686700133E-01  0.97308041092E-02  0.87382109065E-01  0.51100000000E-03 0. -1.
</event>
<event>
 8    1  0.5616615E+005  0.1043930E+01  0.7957747E-01            NaN
         13   -1    0    0    0    0  0.00000000000E+00  0.00000000000E+00  0.74505805969E-08  0.10566000000E+00  0.10566000000E+00 0.  1.
     999900   -1    0    0    0    0 -0.00000000000E+00 -0.00000000000E+00 -0.74505805969E-08  0.93827000000E+00  0.93827000000E+00 0.  1.
     999902    2    1    2    0    0 -0.21305042217E-01  0.36517977947E-02  0.11662190270E-01  0.10193689102E+01  0.10190729748E+01 0.  0.
     999903    2    3    3    0    0 -0.12537090735E+00  0.10196191544E+00 -0.48971788720E-01  0.17001853318E+00  0.19848650398E-01 0.  0.
         14    1    1    2    0    0  0.21305042217E-01 -0.36517977947E-02 -0.11662190270E-01  0.24561089815E-01  0.00000000000E+00 0. -1.
     999901    1    3    3    0    0  0.10406586513E+00 -0.98310117648E-01  0.60633978990E-01  0.84935037701E+00  0.83500000000E+00 0. -1.
        -11    1    4    4    0    0 -0.11684383449E+00  0.87408538907E-01 -0.44630916089E-01  0.15259395179E+00  0.51100000000E-03 0.  1.
         11    1    4    4    0    0 -0.85270728588E-02  0.14553376536E-01 -0.43408726306E-02  0.17424581382E-01  0.51100000000E-03 0. -1.
</event>
<event>
 8    1  0.5616615E+005  0.1043930E+01  0.7957747E-01            NaN
         13   -1    0    0    0    0  0.00000000000E+00  0.00000000000E+00  0.74505805969E-08  0.10566000000E+00  0.10566000000E+00 0. -1.
     999900   -1    0    0    0    0 -0.00000000000E+00 -0.00000000000E+00 -0.74505805969E-08  0.93827000000E+00  0.93827000000E+00 0. -1.
     999902    2    1    2    0    0  0.20926537731E-01  0.67229052760E-02 -0.14551100865E-02  0.10219019546E+01  0.10216645096E+01 0.  0.
     999903    2    3    3    0    0 -0.65002259349E-01  0.46306557628E-01  0.14708167441E+00  0.16853286682E+00  0.20017923257E-01 0.  0.
         14    1    1    2    0    0 -0.20926537731E-01 -0.67229052760E-02  0.14551100865E-02  0.22028045354E-01  0.00000000000E+00 0. -1.
     999901    1    3    3    0    0  0.85928797080E-01 -0.39583652352E-01 -0.14853678450E+00  0.85336908782E+00  0.83500000000E+00 0. -1.
        -11    1    4    4    0    0 -0.18647820061E-01  0.19240447963E-01  0.66620287199E-01  0.71808494054E-01  0.51100000000E-03 0. -1.
         11    1    4    4    0    0 -0.46354439288E-01  0.27066109664E-01  0.80461387215E-01  0.96724372769E-01  0.51100000000E-03 0.  1.
</event>
<event>
 8    1  0.5616615E+005  0.1043930E+01  0.7957747E-01            NaN
         13   -1    0    0    0    0  0.00000000000E+00  0.00000000000E+00  0.74505805969E-08  0.10566000000E+00  0.10566000000E+00 0. -1.
     999900   -1    0    0    0    0 -0.00000000000E+00 -0.00000000000E+00 -0.74505805969E-08  0.93827000000E+00  0.93827000000E+00 0.  1.
     999902    2    1    2    0    0  0.14892182381E-01  0.12234392797E-01  0.10292819036E-01  0.10220805243E+01  0.10218469546E+01 0.  0.
     999903    2    3    3    0    0 -0.12826795105E+00 -0.63437280689E-01 -0.82652592818E-01  0.16646093856E+00  0.20020917019E-01 0.  0.
         14    1    1    2    0    0 -0.14892182381E-01 -0.12234392797E-01 -0.10292819036E-01  0.21849475666E-01  0.00000000000E+00 0.  1.
     999901    1    3    3    0    0  0.14316013344E+00  0.75671673486E-01  0.92945411854E-01  0.85561958577E+00  0.83500000000E+00 0. -1.
        -11    1    4    4    0    0 -0.69657605516E-01 -0.23467958805E-01 -0.44056187746E-01  0.85697934026E-01  0.51100000000E-03 0.  1.
         11    1    4    4    0    0 -0.58610345538E-01 -0.39969321885E-01 -0.38596405072E-01  0.80763004535E-01  0.51100000000E-03 0. -1.
</event>
<event>
 8    1  0.5616615E+005  0.1043930E+01  0.7957747E-01            NaN
         13   -1    0    0    0    0  0.00000000000E+00  0.00000000000E+00  0.74505805969E-08  0.10566000000E+00  0.10566000000E+00 0. -1.
     999900   -1    0    0    0    0 -0.00000000000E+00 -0.00000000000E+00 -0.74505805969E-08  0.93827000000E+00  0.93827000000E+00 0.  1.
     999902    2    1    2    0    0  0.10398171110E-01 -0.22453354127E-01 -0.50500753744E-02  0.10186757264E+01  0.10183626354E+01 0.  0.
     999903    2    3    3    0    0  0.16774400186E-01 -0.13086088867E+00 -0.10620018419E+00  0.17059012084E+00  0.20409740855E-01 0.  0.
         14    1    1    2    0    0 -0.10398171110E-01  0.22453354127E-01  0.50500753744E-02  0.25254273604E-01  0.00000000000E+00 0.  1.
     999901    1    3    3    0    0 -0.63762290760E-02  0.10840753454E+00  0.10115010881E+00  0.84808560556E+00  0.83500000000E+00 0. -1.
        -11    1    4    4    0    0 -0.13889399716E-02 -0.58122970473E-01 -0.52854717405E-01  0.78575384974E-01  0.51100000000E-03 0.  1.
         11    1    4    4    0    0  0.18163340158E-01 -0.72737918194E-01 -0.53345466782E-01  0.92014735864E-01  0.51100000000E-03 0. -1.
</event>
<event>
 8    1  0.5616615E+005  0.1043930E+01  0.7957747E-01            NaN
         13   -1    0    0    0    0  0.00000000000E+00  0.00000000000E+00  0.74505805969E-08  0.10566000000E+00  0.10566000000E+00 0. -1.
     999900   -1    0    0    0    0 -0.00000000000E+00 -0.00000000000E+00 -0.74505805969E-08  0.93827000000E+00  0.93827000000E+00 0. -1.
     999902    2    1    2    0    0  0.22199617770E-02  0.21294497270E-01  0.84558393257E-02  0.10209107675E+01  0.10206512187E+01 0.  0.
     999903    2    3    3    0    0 -0.12875343079E+00 -0.78210228695E-01 -0.67688097147E-01  0.16646467848E+00  0.20845260243E-01 0.  0.
         14    1    1    2    0    0 -0.22199617770E-02 -0.21294497270E-01 -0.84558393257E-02  0.23019232458E-01  0.00000000000E+00 0.  1.
     999901    1    3    3    0    0  0.13097339256E+00  0.99504725965E-01  0.76143936473E-01  0.85444608906E+00  0.83500000000E+00 0. -1.
        -11    1    4    4    0    0 -0.82117177623E-01 -0.50568737209E-01 -0.32226078067E-01  0.10168190238E+00  0.51100000000E-03 0. -1.
         11    1    4    4    0    0 -0.46636253164E-01 -0.27641491486E-01 -0.35462019080E-01  0.64782776098E-01  0.51100000000E-03 0.  1.
</event>
<event>
 8    1  0.5616615E+005  0.1043930E+01  0.7957747E-01            NaN
         13   -1    0    0    0    0  0.00000000000E+00  0.00000000000E+00  0.74505805969E-08  0.10566000000E+00  0.10566000000E+00 0.  1.
     999900   -1    0    0    0    0 -0.00000000000E+00 -0.00000000000E+00 -0.74505805969E-08  0.93827000000E+00  0.93827000000E+00 0. -1.
     999902    2    1    2    0    0 -0.22643378461E-01  0.19682578413E-02 -0.66932124917E-02  0.10202362092E+01  0.10199610419E+01 0.  0.
     999903    2    3    3    0    0  0.13416756419E+00  0.90407505209E-01  0.28007604401E-01  0.16534421670E+00  0.19489274338E-01 0.  0.
         14    1    1    2    0    0  0.22643378461E-01 -0.19682578413E-02  0.66932124917E-02  0.23693790758E-01  0.00000000000E+00 0. -1.
     999901    1    3    3    0    0 -0.15681094265E+00 -0.88439247368E-01 -0.34700816892E-01  0.85489199254E+00  0.83500000000E+00 0. -1.
        -11    1    4    4    0    0  0.72470519735E-01  0.42442906356E-01  0.22776360260E-01  0.87019539405E-01  0.51100000000E-03 0.  1.
         11    1    4    4    0    0  0.61697044457E-01  0.47964598854E-01  0.52312441407E-02  0.78324677300E-01  0.51100000000E-03 0. -1.
</event>
<event>
 8    1  0.5616615E+005  0.1043930E+01  0.7957747E-01            NaN
         13   -1    0    0    0    0  0.00000000000E+00  0.00000000000E+00  0.74505805969E-08  0.10566000000E+00  0.10566000000E+00 0.  1.
     999900   -1    0    0    0    0 -0.00000000000E+00 -0.00000000000E+00 -0.74505805969E-08  0.93827000000E+00  0.93827000000E+00 0.  1.
     999902    2    1    2    0    0 -0.23614631425E-04  0.24668221848E-03 -0.24056202184E-01  0.10198725215E+01  0.10195887395E+01 0.  0.
     999903    2    3    3    0    0  0.14046454364E+00  0.57826114262E-01  0.65666705203E-01  0.16645145674E+00  0.17883617354E-01 0.  0.
         14    1    1    2    0    0  0.23614631424E-04 -0.24668221848E-03  0.24056202184E-01  0.24057478531E-01  0.00000000000E+00 0.  1.
     999901    1    3    3    0    0 -0.14048815827E+00 -0.57579432044E-01 -0.89722907387E-01  0.85342106473E+00  0.83500000000E+00 0.  1.
        -11    1    4    4    0    0  0.10433759634E+00  0.41071070841E-01  0.39910165512E-01  0.11902205385E+00  0.51100000000E-03 0. -1.
         11    1    4    4    0    0  0.36126947296E-01  0.16755043421E-01  0.25756539691E-01  0.47429402894E-01  0.51100000000E-03 0.  1.
</event>
<event>
 8    1  0.5616615E+005  0.1043930E+01  0.7957747E-01            NaN
         13   -1    0    0    0    0  0.00000000000E+00  0.00000000000E+00  0.74505805969E-08  0.10566000000E+00  0.10566000000E+00 0.  1.
     999900   -1    0    0    0    0 -0.00000000000E+00 -0.00000000000E+00 -0.74505805969E-08  0.93827000000E+00  0.93827000000E+00 0. -1.
     999902    2    1    2    0    0 -0.86909023607E-02 -0.20940474126E-01 -0.28016308993E-02  0.10210852112E+01  0.10208296254E+01 0.  0.
     999903    2    3    3    0    0  0.43208446282E-01 -0.15896867222E+00  0.44643037426E-01  0.17183770756E+00  0.19929585329E-01 0.  0.
         14    1    1    2    0    0  0.86909023607E-02  0.20940474126E-01  0.28016308993E-02  0.22844788819E-01  0.00000000000E+00 0. -1.
     999901    1    3    3    0    0 -0.51899348642E-01  0.13802819809E+00 -0.47444668325E-01  0.84924750362E+00  0.83500000000E+00 0. -1.
        -11    1    4    4    0    0  0.10456473822E-01 -0.15024476111E-01  0.47332237101E-02  0.18913943398E-01  0.51100000000E-03 0.  1.
         11    1    4    4    0    0  0.32751972460E-01 -0.14394419611E+00  0.39909813716E-01  0.15292376416E+00  0.51100000000E-03 0. -1.
</event>
<event>
 8    1  0.5616615E+005  0.1043930E+01  0.7957747E-01            NaN
         13   -1    0    0    0    0  0.00000000000E+00  0.00000000000E+00  0.74505805969E-08  0.10566000000E+00  0.10566000000E+00 0. -1.
     999900   -1    0    0    0    0 -0.00000000000E+00 -0.00000000000E+00 -0.74505805969E-08  0.93827000000E+00  0.93827000000E+00 0. -1.
     999902    2    1    2    0    0  0.88341381769E-02  0.18617121281E-01 -0.13968622289E-01  0.10190349882E+01  0.10187308504E+01 0.  0.
     999903    2    3    3    0    0 -0.10573261096E+00 -0.83942946014E-01  0.90234060588E-01  0.16362438126E+00  0.20123350735E-01 0.  0.
         14    1    1    2    0    0 -0.88341381769E-02 -0.18617121281E-01  0.13968622289E-01  0.24895011765E-01  0.00000000000E+00 0. -1.
     999901    1    3    3    0    0  0.11456674914E+00  0.10256006729E+00 -0.10420268288E+00  0.85541060698E+00  0.83500000000E+00 0. -1.
        -11    1    4    4    0    0 -0.34387053359E-01 -0.36596669564E-01  0.41151130897E-01  0.64926592064E-01  0.51100000000E-03 0. -1.
         11    1    4    4    0    0 -0.71345557604E-01 -0.47346276450E-01  0.49082929691E-01  0.98697789193E-01  0.51100000000E-03 0.  1.
</event>
<event>
 8    1  0.5616615E+005  0.1043930E+01  0.7957747E-01            NaN
         13   -1    0    0    0    0  0.00000000000E+00  0.00000000000E+00  0.74505805969E-08  0.10566000000E+00  0.10566000000E+00 0.  1.
     999900   -1    0    0    0    0 -0.00000000000E+00 -0.00000000000E+00 -0.74505805969E-08  0.93827000000E+00  0.93827000000E+00 0. -1.
     999902    2    1    2    0    0 -0.14114430796E-01  0.47789308570E-02 -0.18744779866E-01  0.10199837663E+01  0.10197026338E+01 0.  0.
     999903    2    3    3    0    0  0.14734229502E+00  0.42403151687E-01 -0.64320151830E-01  0.16746633489E+00  0.20002805190E-01 0.  0.
         14    1    1    2    0    0  0.14114430796E-01 -0.47789308570E-02  0.18744779866E-01  0.23946233713E-01  0.00000000000E+00 0. -1.
     999901    1    3    3    0    0 -0.16145672582E+00 -0.37624220830E-01  0.45575371964E-01  0.85251743140E+00  0.83500000000E+00 0. -1.
        -11    1    4    4    0    0  0.74709149327E-01  0.12825433309E-01 -0.37571944170E-01  0.84604141994E-01  0.51100000000E-03 0. -1.
         11    1    4    4    0    0  0.72633145693E-01  0.29577718377E-01 -0.26748207660E-01  0.82862192897E-01  0.51100000000E-03 0.  1.
</event>
<event>
 8    1  0.5616615E+005  0.1043930E+01  0.7957747E-01            NaN
         13   -1    0    0    0    0  0.00000000000E+00  0.00000000000E+00  0.74505805969E-08  0.10566000000E+00  0.10566000000E+00 0. -1.
     999900   -1    0    0    0    0 -0.00000000000E+00 -0.00000000000E+00 -0.74505805969E-08  0.93827000000E+00  0.93827000000E+00 0.  1.
     999902    2    1    2    0    0 -0.54281887836E-02  0.94899862519E-02  0.20648431259E-01  0.10205658654E+01  0.10202983891E+01 0.  0.
     999903    2    3    3    0    0  0.30522744635E-01 -0.14074481120E+00 -0.79298368068E-01  0.16553526554E+00  0.19311994767E-01 0.  0.
         14    1    1    2    0    0  0.54281887836E-02 -0.94899862519E-02 -0.20648431259E-01  0.23364134608E-01  0.00000000000E+00 0.  1.
     999901    1    3    3    0    0 -0.35950933419E-01  0.15023479745E+00  0.99946799327E-01  0.85503059985E+00  0.83500000000E+00 0.  1.
        -11    1    4    4    0    0  0.25095686269E-01 -0.92903699480E-01 -0.43911691357E-01  0.10577990643E+00  0.51100000000E-03 0.  1.
         11    1    4    4    0    0  0.54270583660E-02 -0.47841111717E-01 -0.35386676710E-01  0.59755359110E-01  0.51100000000E-03 0. -1.
</event>
<event>
 8    1  0.5616615E+005  0.1043930E+01  0.7957747E-01            NaN
         13   -1    0    0    0    0  0.00000000000E+00  0.00000000000E+00  0.74505805969E-08  0.10566000000E+00  0.10566000000E+00 0.  1.
     999900   -1    0    0    0    0 -0.00000000000E+00 -0.00000000000E+00 -0.74505805969E-08  0.93827000000E+00  0.93827000000E+00 0. -1.
     999902    2    1    2    0    0  0.18161772616E-01  0.62029729153E-02 -0.13365374500E-01  0.10205428220E+01  0.10202748118E+01 0.  0.
     999903    2    3    3    0    0 -0.93032285054E-01 -0.13278808171E+00  0.28083809314E-01  0.16577638226E+00  0.20135239353E-01 0.  0.
         14    1    1    2    0    0 -0.18161772616E-01 -0.62029729153E-02  0.13365374500E-01  0.23387177963E-01  0.00000000000E+00 0.  1.
     999901    1    3    3    0    0  0.11119405767E+00  0.13899105463E+00 -0.41449183814E-01  0.85476643978E+00  0.83500000000E+00 0.  1.
        -11    1    4    4    0    0 -0.58624499606E-01 -0.93970386894E-01  0.11695399192E-01  0.11137463378E+00  0.51100000000E-03 0.  1.
         11    1    4    4    0    0 -0.34407785448E-01 -0.38817694816E-01  0.16388410122E-01  0.54401748479E-01  0.51100000000E-03 0. -1.
</event>
<event>
 8    1  0.5616615E+005  0.1043930E+01  0.7957747E-01            NaN
         13   -1    0    0    0    0  0.00000000000E+00  0.00000000000E+00  0.74505805969E-08  0.10566000000E+00  0.10566000000E+00 0.  1.
     999900   -1    0    0    0    0 -0.00000000000E+00 -0.00000000000E+00 -0.74505805969E-08  0.93827000000E+00  0.93827000000E+00 0.  1.
     999902    2    1    2    0    0  0.55003068397E-02 -0.21904810700E-01  0.12569756497E-01  0.10180828941E+01  0.10177547378E+01 0.  0.
     999903    2    3    3    0    0  0.56176675581E-01 -0.15145290887E+00  0.51152375050E-01  0.17069607416E+00  0.20658697286E-01 0.  0.
         14    1    1    2    0    0 -0.55003068397E-02  0.21904810700E-01 -0.12569756497E-01  0.25847105941E-01  0.00000000000E+00 0. -1.
     999901    1    3    3    0    0 -0.50676368741E-01  0.12954809817E+00 -0.38582618553E-01  0.84738681990E+00  0.83500000000E+00 0.  1.
        -11    1    4    4    0    0  0.40725085483E-01 -0.12041230767E+00  0.31994572861E-01  0.13107848886E+00  0.51100000000E-03 0.  1.
         11    1    4    4    0    0  0.15451590098E-01 -0.31040601200E-01  0.19157802189E-01  0.39617585302E-01  0.51100000000E-03 0. -1.
</event>
<event>
 8    1  0.5616615E+005  0.1043930E+01  0.7957747E-01            NaN
         13   -1    0    0    0    0  0.00000000000E+00  0.00000000000E+00  0.74505805969E-08  0.10566000000E+00  0.10566000000E+00 0. -1.
     999900   -1    0    0    0    0 -0.00000000000E+00 -0.00000000000E+00 -0.74505805969E-08  0.93827000000E+00  0.93827000000E+00 0. -1.
     999902    2    1    2    0    0 -0.20442602922E-02  0.17763031343E-01 -0.14577302793E-01  0.10208604955E+01  0.10205997987E+01 0.  0.
     999903    2    3    3    0    0 -0.92784362740E-01 -0.13324895074E+00  0.30313134498E-01  0.16629713545E+00  0.19277714981E-01 0.  0.
         14    1    1    2    0    0  0.20442602922E-02 -0.17763031343E-01  0.14577302793E-01  0.23069504532E-01  0.00000000000E+00 0. -1.
     999901    1    3    3    0    0  0.90740102448E-01  0.15101198208E+00 -0.44890437290E-01  0.85456336002E+00  0.83500000000E+00 0. -1.
        -11    1    4    4    0    0 -0.54519392957E-01 -0.71993444628E-01  0.78095711787E-02  0.90645853742E-01  0.51100000000E-03 0.  1.
         11    1    4    4    0    0 -0.38264969783E-01 -0.61255506108E-01  0.22503563319E-01  0.75651281709E-01  0.51100000000E-03 0. -1.
</event>
<event>
 8    1  0.5616615E+005  0.1043930E+01  0.7957747E-01            NaN
         13   -1    0    0    0    0  0.00000000000E+00  0.00000000000E+00  0.74505805969E-08  0.10566000000E+00  0.10566000000E+00 0.  1.
     999900   -1    0    0    0    0 -0.00000000000E+00 -0.00000000000E+00 -0.74505805969E-08  0.93827000000E+00  0.93827000000E+00 0. -1.
     999902    2    1    2    0    0  0.15114439840E-01  0.12699330018E-02  0.19568758554E-01  0.10191712574E+01  0.10188704808E+01 0.  0.
     999903    2    3    3    0    0 -0.12926007475E+00 -0.10065870358E+00  0.14846870752E-01  0.16566042351E+00  0.19560286659E-01 0.  0.
         14    1    1    2    0    0 -0.15114439840E-01 -0.12699330018E-02 -0.19568758554E-01  0.24758742553E-01  0.00000000000E+00 0. -1.
     999901    1    3    3    0    0  0.14437451459E+00  0.10192863659E+00  0.47218878015E-02  0.85351083394E+00  0.83500000000E+00 0.  1.
        -11    1    4    4    0    0 -0.88568730306E-01 -0.66383706561E-01  0.18950549280E-01  0.11229693194E+00  0.51100000000E-03 0.  1.
         11    1    4    4    0    0 -0.40691344448E-01 -0.34274997022E-01 -0.41036785274E-02  0.53363491568E-01  0.51100000000E-03 0. -1.
</event>
<event>
 8    1  0.5616615E+005  0.1043930E+01  0.7957747E-01            NaN
         13   -1    0    0    0    0  0.00000000000E+00  0.00000000000E+00  0.74505805969E-08  0.10566000000E+00  0.10566000000E+00 0. -1.
     999900   -1    0    0    0    0 -0.00000000000E+00 -0.00000000000E+00 -0.74505805969E-08  0.93827000000E+00  0.93827000000E+00 0.  1.
     999902    2    1    2    0    0 -0.83073179562E-02 -0.21562236706E-01 -0.33039912544E-02  0.10205878077E+01  0.10203208394E+01 0.  0.
     999903    2    3    3    0    0 -0.97302527598E-01  0.51318970607E-01 -0.12625216110E+00  0.16878203747E+00  0.21126982005E-01 0.  0.
         14    1    1    2    0    0  0.83073179562E-02  0.21562236706E-01  0.33039912544E-02  0.23342192305E-01  0.00000000000E+00 0.  1.
     999901    1    3    3    0    0  0.88995209642E-01 -0.72881207313E-01  0.12294816985E+00  0.85180577022E+00  0.83500000000E+00 0. -1.
        -11    1    4    4    0    0 -0.90604082383E-02  0.12739226881E-01 -0.15663998448E-01  0.22135963212E-01  0.51100000000E-03 0. -1.
         11    1    4    4    0    0 -0.88242119360E-01  0.38579743726E-01 -0.11058816265E+00  0.14664607426E+00  0.51100000000E-03 0.  1.
</event>
<event>
 8    1  0.5616615E+005  0.1043930E+01  0.7957747E-01            NaN
         13   -1    0    0    0    0  0.00000000000E+00  0.00000000000E+00  0.74505805969E-08  0.10566000000E+00  0.10566000000E+00 0. -1.
     999900   -1    0    0    0    0 -0.00000000000E+00 -0.00000000000E+00 -0.74505805969E-08  0.93827000000E+00  0.93827000000E+00 0. -1.
     999902    2    1    2    0    0 -0.57235742101E-02  0.19830819956E-01  0.15523793853E-01  0.10181034846E+01  0.10177758577E+01 0.  0.
     999903    2    3    3    0    0  0.14968678696E+00  0.52686315650E-01  0.49334348055E-01  0.16745666158E+00  0.20636704247E-01 0.  0.
         14    1    1    2    0    0  0.57235742101E-02 -0.19830819956E-01 -0.15523793853E-01  0.25826515395E-01  0.00000000000E+00 0.  1.
     999901    1    3    3    0    0 -0.15541036117E+00 -0.32855495694E-01 -0.33810554202E-01  0.85064682303E+00  0.83500000000E+00 0. -1.
        -11    1    4    4    0    0  0.18255844425E-01  0.11904471333E-02  0.10290650663E-01  0.20996467134E-01  0.51100000000E-03 0.  1.
         11    1    4    4    0    0  0.13143094253E+00  0.51495868517E-01  0.39043697392E-01  0.14646019444E+00  0.51100000000E-03 0. -1.
</event>
<event>
 8    1  0.5616615E+005  0.1043930E+01  0.7957747E-01            NaN
         13   -1    0    0    0    0  0.00000000000E+00  0.00000000000E+00  0.74505805969E-08  0.10566000000E+00  0.10566000000E+00 0.  1.
     999900   -1    0    0    0    0 -0.00000000000E+00 -0.00000000000E+00 -0.74505805969E-08  0.93827000000E+00  0.93827000000E+00 0. -1.
     999902    2    1    2    0    0 -0.20181424529E-01  0.11471516876E-01 -0.45750309022E-02  0.10202695583E+01  0.10199951740E+01 0.  0.
     999903    2    3    3    0    0 -0.53923523708E-01 -0.15030495112E+00 -0.48229016260E-01  0.16795457817E+00  0.19580030053E-01 0.  0.
         14    1    1    2    0    0  0.20181424529E-01 -0.11471516876E-01  0.45750309022E-02  0.23660441738E-01  0.00000000000E+00 0. -1.
     999901    1    3    3    0    0  0.33742099179E-01  0.16177646800E+00  0.43653985358E-01  0.85231498009E+00  0.83500000000E+00 0. -1.
        -11    1    4    4    0    0 -0.14257456725E-02 -0.13508032649E-01 -0.88850045020E-02  0.16238969264E-01  0.51100000000E-03 0.  1.
         11    1    4    4    0    0 -0.52497778036E-01 -0.13679691847E+00 -0.39344011758E-01  0.15171560890E+00  0.51100000000E-03 0. -1.
</event>
<event>
 8    1  0.5616615E+005  0.1043930E+01  0.7957747E-01            NaN
         13   -1    0    0    0    0  0.00000000000E+00  0.00000000000E+00  0.74505805969E-08  0.10566000000E+00  0.10566000000E+00 0. -1.
     999900   -1    0    0    0    0 -0.00000000000E+00 -0.00000000000E+00 -0.74505805969E-08  0.93827000000E+00  0.93827000000E+00 0.  1.
     999902    2    1    2    0    0 -0.19464273986E-01 -0.12937243540E-01  0.60202825317E-02  0.10197955012E+01  0.10195098774E+01 0.  0.
     999903    2    3    3    0    0  0.21512948034E-01  0.16008510967E+00 -0.29064938678E-01  0.16535308638E+00  0.20169859794E-01 0.  0.
         14    1    1    2    0    0  0.19464273986E-01  0.12937243540E-01 -0.60202825317E-02  0.24134498834E-01  0.00000000000E+00 0.  1.
     999901    1    3    3    0    0 -0.40977222020E-01 -0.17302235321E+00  0.35085221210E-01  0.85444241478E+00  0.83500000000E+00 0. -1.
        -11    1    4    4    0    0  0.16417051178E-01  0.52140911227E-01 -0.79056758370E-02  0.55235450794E-01  0.51100000000E-03 0.  1.
         11    1    4    4    0    0  0.50958968560E-02  0.10794419844E+00 -0.21159262841E-01  0.11011763559E+00  0.51100000000E-03 0. -1.
</event>
<event>
 8    1  0.5616615E+005  0.1043930E+01  0.7957747E-01            NaN
         13   -1    0    0    0    0  0.00000000000E+00  0.00000000000E+00  0.74505805969E-08  0.10566000000E+00  0.10566000000E+00 0. -1.
     999900   -1    0    0    0    0 -0.00000000000E+00 -0.00000000000E+00 -0.74505805969E-08  0.93827000000E+00  0.93827000000E+00 0.  1.
     999902    2    1    2    0    0 -0.33917471416E-02 -0.21841390324E-01  0.65319000549E-03  0.10218171771E+01  0.10215778808E+01 0.  0.
     999903    2    3    3    0    0  0.83063596822E-02 -0.10236596684E+00 -0.13622391084E+00  0.17176929969E+00  0.19998791348E-01 0.  0.
         14    1    1    2    0    0  0.33917471416E-02  0.21841390324E-01 -0.65319000549E-03  0.22112822912E-01  0.00000000000E+00 0.  1.
     999901    1    3    3    0    0 -0.11698106824E-01  0.80524576516E-01  0.13687710084E+00  0.85004787739E+00  0.83500000000E+00 0. -1.
        -11    1    4    4    0    0  0.38045847637E-02 -0.60193469437E-02 -0.16838336350E-01  0.18289289076E-01  0.51100000000E-03 0. -1.
         11    1    4    4    0    0  0.45017749186E-02 -0.96346619897E-01 -0.11938557449E+00  0.15348001062E+00  0.51100000000E-03 0.  1.
</event>
<event>
 8    1  0.5616615E+005  0.1043930E+01  0.7957747E-01            NaN
         13   -1    0    0    0    0  0.00000000000E+00  0.00000000000E+00  0.74505805969E-08  0.10566000000E+00  0.10566000000E+00 0. -1.
     999900   -1    0    0    0    0 -0.00000000000E+00 -0.00000000000E+00 -0.74505805969E-08  0.93827000000E+00  0.93827000000E+00 0.  1.
     999902    2    1    2    0    0 -0.14790275932E-02  0.27771923211E-02  0.24004136969E-01  0.10197205202E+01  0.10194330976E+01 0.  0.
     999903    2    3    3    0    0 -0.10259163967E+00 -0.53864329119E-01 -0.11604010841E+00  0.16516249823E+00  0.19670627420E-01 0.  0.
         14    1    1    2    0    0  0.14790275932E-02 -0.27771923211E-02 -0.24004136969E-01  0.24209479784E-01  0.00000000000E+00 0.  1.
     999901    1    3    3    0    0  0.10111261207E+00  0.56641521441E-01  0.14004424537E+00  0.85455802198E+00  0.83500000000E+00 0. -1.
        -11    1    4    4    0    0 -0.78350386551E-01 -0.46682606150E-01 -0.99338015890E-01  0.13485678074E+00  0.51100000000E-03 0. -1.
         11    1    4    4    0    0 -0.24241253115E-01 -0.71817229695E-02 -0.16702092516E-01  0.30305717494E-01  0.51100000000E-03 0.  1.
</event>
<event>
 8    1  0.5616615E+005  0.1043930E+01  0.7957747E-01            NaN
         13   -1    0    0    0    0  0.00000000000E+00  0.00000000000E+00  0.74505805969E-08  0.10566000000E+00  0.10566000000E+00 0. -1.
     999900   -1    0    0    0    0 -0.00000000000E+00 -0.00000000000E+00 -0.74505805969E-08  0.93827000000E+00  0.93827000000E+00 0.  1.
     999902    2    1    2    0    0 -0.15310156051E-02  0.53678671893E-02 -0.22626252988E-01  0.10206253796E+01  0.10203592800E+01 0.  0.
     999903    2    3    3    0    0 -0.99710281661E-01 -0.11587568677E+00 -0.71071921192E-01  0.16979569606E+00  0.20249576869E-01 0.  0.
         14    1    1    2    0    0  0.15310156051E-02 -0.53678671893E-02  0.22626252988E-01  0.23304620383E-01  0.00000000000E+00 0. -1.
     999901    1    3    3    0    0  0.98179266056E-01  0.12124355396E+00  0.48445668204E-01  0.85082968356E+00  0.83500000000E+00 0. -1.
        -11    1    4    4    0    0 -0.36864570164E-01 -0.28913157058E-01 -0.19492632710E-01  0.50746340118E-01  0.51100000000E-03 0.  1.
         11    1    4    4    0    0 -0.62845711497E-01 -0.86962529714E-01 -0.51579288482E-01  0.11904935594E+00  0.51100000000E-03 0. -1.
</event>
<event>
 8    1  0.5616615E+005  0.1043930E+01  0.7957747E-01            NaN
         13   -1    0    0    0    0  0.00000000000E+00  0.00000000000E+00  0.74505805969E-08  0.10566000000E+00  0.10566000000E+00 0.  1.
     999900   -1    0    0    0    0 -0.00000000000E+00 -0.00000000000E+00 -0.74505805969E-08  0.93827000000E+00  0.93827000000E+00 0. -1.
     999902    2    1    2    0    0  0.48293226444E-02 -0.15001434882E-01  0.17978647609E-01  0.10200219015E+01  0.10197416743E+01 0.  0.
     999903    2    3    3    0    0 -0.53429664243E-01 -0.10901213914E-01  0.16059939834E+00  0.17091849204E+00  0.21151801041E-01 0.  0.
         14    1    1    2    0    0 -0.48293226444E-02  0.15001434882E-01 -0.17978647609E-01  0.23908098535E-01  0.00000000000E+00 0.  1.
     999901    1    3    3    0    0  0.58258986888E-01 -0.41002209680E-02 -0.14262075073E+00  0.84910340943E+00  0.83500000000E+00 0. -1.
        -11    1    4    4    0    0 -0.16671524436E-01 -0.13461206044E-01  0.52319175713E-01  0.56539376221E-01  0.51100000000E-03 0.  1.
         11    1    4    4    0    0 -0.36758139807E-01  0.25599921304E-02  0.10828022262E+00  0.11437911581E+00  0.51100000000E-03 0. -1.
</event>
<event>
 8    1  0.5616615E+005  0.1043930E+01  0.7957747E-01            NaN
         13   -1    0    0    0    0  0.00000000000E+00  0.00000000000E+00  0.74505805969E-08  0.10566000000E+00  0.10566000000E+00 0.  1.
     999900   -1    0    0    0    0 -0.00000000000E+00 -0.00000000000E+00 -0.74505805969E-08  0.93827000000E+00  0.93827000000E+00 0.  1.
     999902    2    1    2    0    0  0.12649573862E-01 -0.18097998930E-01  0.76907608280E-02  0.10205484456E+01  0.10202805657E+01 0.  0.
     999903    2    3    3    0    0 -0.12254933226E+00 -0.11421155785E+00  0.13159369811E-01  0.16921333760E+00  0.19934036871E-01 0.  0.
         14    1    1    2    0    0 -0.12649573862E-01  0.18097998930E-01 -0.76907608280E-02  0.23381554402E-01  0.00000000000E+00 0.  1.
     999901    1    3    3    0    0  0.13519890612E+00  0.96113558918E-01 -0.54686089827E-02  0.85133510800E+00  0.83500000000E+00 0. -1.
        -11    1    4    4    0    0 -0.10381318583E+00 -0.87692206472E-01  0.64144698857E-02  0.13604597448E+00  0.51100000000E-03 0.  1.
         11    1    4    4    0    0 -0.18736146431E-01 -0.26519351376E-01  0.67448999251E-02  0.33167363122E-01  0.51100000000E-03 0. -1.
</event>
<event>
 8    1  0.5616615E+005  0.1043930E+01  0.7957747E-01            NaN
         13   -1    0    0    0    0  0.00000000000E+00  0.00000000000E+00  0.74505805969E-08  0.10566000000E+00  0.10566000000E+00 0.  1.
     999900   -1    0    0    0    0 -0.00000000000E+00 -0.00000000000E+00 -0.74505805969E-08  0.93827000000E+00  0.93827000000E+00 0. -1.
     999902    2    1    2    0    0  0.28317978273E-02 -0.22910999143E-01  0.75738704058E-02  0.10196339824E+01  0.10193444764E+01 0.  0.
     999903    2    3    3    0    0  0.15927979929E-01 -0.16580563450E+00  0.38699151457E-01  0.17182258238E+00  0.16738175394E-01 0.  0.
         14    1    1    2    0    0 -0.28317978273E-02  0.22910999143E-01 -0.75738704058E-02  0.24296017649E-01  0.00000000000E+00 0. -1.
     999901    1    3    3    0    0 -0.13096182102E-01  0.14289463536E+00 -0.31125281051E-01  0.84781139997E+00  0.83500000000E+00 0.  1.
        -11    1    4    4    0    0  0.17688977948E-02 -0.10327540536E+00  0.24120266772E-01  0.10607066862E+00  0.51100000000E-03 0. -1.
         11    1    4    4    0    0  0.14159082134E-01 -0.62530229142E-01  0.14578884685E-01  0.65751913760E-01  0.51100000000E-03 0.  1.
</event>
<event>
 8    1  0.5616615E+005  0.1043930E+01  0.7957747E-01            NaN
         13   -1    0    0    0    0  0.00000000000E+00  0.00000000000E+00  0.74505805969E-08  0.10566000000E+00  0.10566000000E+00 0. -1.
     999900   -1    0    0    0    0 -0.00000000000E+00 -0.00000000000E+00 -0.74505805969E-08  0.93827000000E+00  0.93827000000E+00 0.  1.
     999902    2    1    2    0    0  0.19987363237E-01  0.18595378369E-02  0.14363481989E-01  0.10192467631E+01  0.10189478406E+01 0.  0.
     999903    2    3    3    0    0  0.14388445080E+00 -0.27349752223E-01 -0.82157251886E-01  0.16910270293E+00  0.19878782010E-01 0.  0.
         14    1    1    2    0    0 -0.19987363237E-01 -0.18595378369E-02 -0.14363481989E-01  0.24683236923E-01  0.00000000000E+00 0.  1.
     999901    1    3    3    0    0 -0.12389708756E+00  0.29209290060E-01  0.96520733876E-01  0.85014406014E+00  0.83500000000E+00 0. -1.
        -11    1    4    4    0    0  0.52655871905E-01 -0.22621875945E-02 -0.35998519369E-01  0.63827210941E-01  0.51100000000E-03 0.  1.
         11    1    4    4    0    0  0.91228578891E-01 -0.25087564629E-01 -0.46158732517E-01  0.10527549199E+00  0.51100000000E-03 0. -1.
</event>
<event>
 8    1  0.5616615E+005  0.1043930E+01  0.7957747E-01            NaN
         13   -1    0    0    0    0  0.00000000000E+00  0.00000000000E+00  0.74505805969E-08  0.10566000000E+00  0.10566000000E+00 0.  1.
     999900   -1    0    0    0    0 -0.00000000000E+00 -0.00000000000E+00 -0.74505805969E-08  0.93827000000E+00  0.93827000000E+00 0.  1.
     999902    2    1    2    0    0 -0.24459468050E-01 -0.11200695356E-01 -0.62481441662E-02  0.10163118817E+01  0.10159365533E+01 0.  0.
     999903    2    3    3    0    0  0.99536605838E-01  0.96570883811E-01  0.79366562015E-01  0.16100806576E+00  0.19775605502E-01 0.  0.
         14    1    1    2    0    0  0.24459468050E-01  0.11200695356E-01  0.62481441662E-02  0.27618118315E-01  0.00000000000E+00 0.  1.
     999901    1    3    3    0    0 -0.12399607389E+00 -0.10777157917E+00 -0.85614706182E-01  0.85530381592E+00  0.83500000000E+00 0.  1.
        -11    1    4    4    0    0  0.67331409043E-01  0.67910700915E-01  0.44118173503E-01  0.10531883163E+00  0.51100000000E-03 0.  1.
         11    1    4    4    0    0  0.32205196794E-01  0.28660182897E-01  0.35248388512E-01  0.55689234129E-01  0.51100000000E-03 0. -1.
</event>
<event>
 8    1  0.5616615E+005  0.1043930E+01  0.7957747E-01            NaN
         13   -1    0    0    0    0  0.00000000000E+00  0.00000000000E+00  0.74505805969E-08  0.10566000000E+00  0.10566000000E+00 0.  1.
     999900   -1    0    0    0    0 -0.00000000000E+00 -0.00000000000E+00 -0.74505805969E-08  0.93827000000E+00  0.93827000000E+00 0. -1.
     999902    2    1    2    0    0  0.14884590142E-01  0.15995469596E-01  0.53853272373E-02  0.10214264931E+01  0.10211785706E+01 0.  0.
     999903    2    3    3    0    0 -0.73593194055E-01 -0.22302085370E-01  0.14884567903E+00  0.16872438013E+00  0.19988473136E-01 0.  0.
         14    1    1    2    0    0 -0.14884590142E-01 -0.15995469596E-01 -0.53853272373E-02  0.22503506854E-01  0.00000000000E+00 0. -1.
     999901    1    3    3    0    0  0.88477784196E-01  0.38297554966E-01 -0.14346035180E+00  0.85270211302E+00  0.83500000000E+00 0. -1.
        -11    1    4    4    0    0 -0.34317712389E-01 -0.19870970520E-01  0.65832311130E-01  0.76855157034E-01  0.51100000000E-03 0. -1.
         11    1    4    4    0    0 -0.39275481665E-01 -0.24311148504E-02  0.83013367905E-01  0.91869223091E-01  0.51100000000E-03 0.  1.
</event>
<event>
 8    1  0.5616615E+005  0.1043930E+01  0.7957747E-01            NaN
         13   -1    0    0    0    0  0.00000000000E+00  0.00000000000E+00  0.74505805969E-08  0.10566000000E+00  0.10566000000E+00 0. -1.
     999900   -1    0    0    0    0 -0.00000000000E+00 -0.00000000000E+00 -0.74505805969E-08  0.93827000000E+00  0.93827000000E+00 0.  1.
     999902    2    1    2    0    0  0.21066392144E-01 -0.87535009687E-03 -0.13386135251E-01  0.10189550579E+01  0.10186489397E+01 0.  0.
     999903    2    3    3    0    0  0.20901893004E-01 -0.18117638413E-01  0.16201669152E+00  0.16555686526E+00  0.19862762946E-01 0.  0.
         14    1    1    2    0    0 -0.21066392144E-01  0.87535009687E-03  0.13386135251E-01  0.24974942096E-01  0.00000000000E+00 0. -1.
     999901    1    3    3    0    0  0.16449913989E-03  0.17242288316E-01 -0.17540282677E+00  0.85339819264E+00  0.83500000000E+00 0.  1.
        -11    1    4    4    0    0  0.18839872844E-01 -0.35533491867E-02  0.83708219817E-01  0.85877204689E-01  0.51100000000E-03 0. -1.
         11    1    4    4    0    0  0.20620201605E-02 -0.14564289226E-01  0.78308471701E-01  0.79679660572E-01  0.51100000000E-03 0.  1.
</event>
<event>
 8    1  0.5616615E+005  0.1043930E+01  0.7957747E-01            NaN
         13   -1    0    0    0    0  0.00000000000E+00  0.00000000000E+00  0.74505805969E-08  0.10566000000E+00  0.10566000000E+00 0. -1.
     999900   -1    0    0    0    0 -0.00000000000E+00 -0.00000000000E+00 -0.74505805969E-08  0.93827000000E+00  0.93827000000E+00 0. -1.
     999902    2    1    2    0    0  0.24046539044E-01  0.22134415224E-02  0.33915604872E-02  0.10195447986E+01  0.10192531375E+01 0.  0.
     999903    2    3    3    0    0  0.69356334696E-01  0.14306348856E+00 -0.55217228011E-01  0.16951438540E+00  0.20216865827E-01 0.  0.
         14    1    1    2    0    0 -0.24046539044E-01 -0.22134415224E-02 -0.33915604872E-02  0.24385201371E-01  0.00000000000E+00 0. -1.
     999901    1    3    3    0    0 -0.45309795653E-01 -0.14085004704E+00  0.58608788498E-01  0.85003041323E+00  0.83500000000E+00 0.  1.
        -11    1    4    4    0    0  0.53486310532E-01  0.12084764854E+00 -0.39157435549E-01  0.13783506612E+00  0.51100000000E-03 0.  1.
         11    1    4    4    0    0  0.15870024164E-01  0.22215840028E-01 -0.16059792462E-01  0.31679319280E-01  0.51100000000E-03 0. -1.
</event>
<event>
 8    1  0.5616615E+005  0.1043930E+01  0.7957747E-01            NaN
         13   -1    0    0    0    0  0.00000000000E+00  0.00000000000E+00  0.74505805969E-08  0.10566000000E+00  0.10566000000E+00 0. -1.
     999900   -1    0    0    0    0 -0.00000000000E+00 -0.00000000000E+00 -0.74505805969E-08  0.93827000000E+00  0.93827000000E+00 0.  1.
     999902    2    1    2    0    0 -0.90035873291E-02  0.11801815514E-02  0.21593739167E-01  0.10205046508E+01  0.10202357548E+01 0.  0.
     999903    2    3    3    0    0  0.94342674323E-01  0.13342991850E+00  0.36627375776E-01  0.16867048095E+00  0.20101819238E-01 0.  0.
         14    1    1    2    0    0  0.90035873291E-02 -0.11801815514E-02 -0.21593739167E-01  0.23425349186E-01  0.00000000000E+00 0.  1.
     999901    1    3    3    0    0 -0.10334626165E+00 -0.13224973695E+00 -0.15033636609E-01  0.85183416987E+00  0.83500000000E+00 0.  1.
        -11    1    4    4    0    0  0.75903691584E-01  0.91889575958E-01  0.27247840258E-01  0.12226107510E+00  0.51100000000E-03 0. -1.
         11    1    4    4    0    0  0.18438982738E-01  0.41540342546E-01  0.93795355179E-02  0.46409405844E-01  0.51100000000E-03 0.  1.
</event>
<event>
 8    1  0.5616615E+005  0.1043930E+01  0.7957747E-01            NaN
         13   -1    0    0    0    0  0.00000000000E+00  0.00000000000E+00  0.74505805969E-08  0.10566000000E+00  0.10566000000E+00 0. -1.
     999900   -1    0    0    0    0 -0.00000000000E+00 -0.00000000000E+00 -0.74505805969E-08  0.93827000000E+00  0.93827000000E+00 0.  1.
     999902    2    1    2    0    0  0.20188408881E-01 -0.48201200408E-02 -0.11866892999E-01  0.10200212451E+01  0.10197410024E+01 0.  0.
     999903    2    3    3    0    0 -0.39847724325E-01  0.15991067305E+00 -0.15851750595E-01  0.16680295502E+00  0.20314608452E-01 0.  0.
         14    1    1    2    0    0 -0.20188408881E-01  0.48201200408E-02  0.11866892999E-01  0.23908754878E-01  0.00000000000E+00 0.  1.
     999901    1    3    3    0    0  0.60036133207E-01 -0.16473079309E+00  0.39848575956E-02  0.85321829011E+00  0.83500000000E+00 0.  1.
        -11    1    4    4    0    0 -0.89394212929E-02  0.72916649564E-01 -0.11667888646E-01  0.74385158353E-01  0.51100000000E-03 0.  1.
         11    1    4    4    0    0 -0.30908303033E-01  0.86994023484E-01 -0.41838619486E-02  0.92417796663E-01  0.51100000000E-03 0. -1.
</event>
<event>
 8    1  0.5616615E+005  0.1043930E+01  0.7957747E-01            NaN
         13   -1    0    0    0    0  0.00000000000E+00  0.00000000000E+00  0.74505805969E-08  0.10566000000E+00  0.10566000000E+00 0.  1.
     999900   -1    0    0    0    0 -0.00000000000E+00 -0.00000000000E+00 -0.74505805969E-08  0.93827000000E+00  0.93827000000E+00 0.  1.
     999902    2    1    2    0    0 -0.27425393978E-03 -0.14964426362E-01 -0.18076703898E-01  0.10204613721E+01  0.10201914700E+01 0.  0.
     999903    2    3    3    0    0  0.52484057927E-01 -0.96629260621E-01  0.12477784441E+00  0.16776857479E+00  0.22022576725E-01 0.  0.
         14    1    1    2    0    0  0.27425393978E-03  0.14964426362E-01  0.18076703898E-01  0.23468627897E-01  0.00000000000E+00 0.  1.
     999901    1    3    3    0    0 -0.52758311867E-01  0.81664834259E-01 -0.14285454831E+00  0.85269279732E+00  0.83500000000E+00 0.  1.
        -11    1    4    4    0    0  0.48806885363E-01 -0.95144426468E-01  0.12391924382E+00  0.16367899700E+00  0.51100000000E-03 0. -1.
         11    1    4    4    0    0  0.36771725642E-02 -0.14848341527E-02  0.85860058424E-03  0.40895777889E-02  0.51100000000E-03 0.  1.
</event>
<event>
 8    1  0.5616615E+005  0.1043930E+01  0.7957747E-01            NaN
         13   -1    0    0    0    0  0.00000000000E+00  0.00000000000E+00  0.74505805969E-08  0.10566000000E+00  0.10566000000E+00 0. -1.
     999900   -1    0    0    0    0 -0.00000000000E+00 -0.00000000000E+00 -0.74505805969E-08  0.93827000000E+00  0.93827000000E+00 0.  1.
     999902    2    1    2    0    0  0.81980507360E-02 -0.15761758338E-01 -0.20784156051E-01  0.10165873190E+01  0.10162195407E+01 0.  0.
     999903    2    3    3    0    0 -0.52513708431E-01  0.14247948630E+00  0.51266187511E-01  0.16151863099E+00  0.20048755210E-01 0.  0.
         14    1    1    2    0    0 -0.81980507360E-02  0.15761758338E-01  0.20784156051E-01  0.27342681005E-01  0.00000000000E+00 0. -1.
     999901    1    3    3    0    0  0.60711759167E-01 -0.15824124463E+00 -0.72050343562E-01  0.85506868801E+00  0.83500000000E+00 0.  1.
        -11    1    4    4    0    0 -0.44662309498E-01  0.12716988189E+00  0.51539393403E-01  0.14430339893E+00  0.51100000000E-03 0. -1.
         11    1    4    4    0    0 -0.78513989338E-02  0.15309604406E-01 -0.27320589160E-03  0.17215232056E-01  0.51100000000E-03 0.  1.
</event>
<event>
 8    1  0.5616615E+005  0.1043930E+01  0.7957747E-01            NaN
         13   -1    0    0    0    0  0.00000000000E+00  0.00000000000E+00  0.74505805969E-08  0.10566000000E+00  0.10566000000E+00 0. -1.
     999900   -1    0    0    0    0 -0.00000000000E+00 -0.00000000000E+00 -0.74505805969E-08  0.93827000000E+00  0.93827000000E+00 0. -1.
     999902    2    1    2    0    0 -0.21986868150E-01 -0.62970749163E-02  0.57749398690E-02  0.10203413278E+01  0.10200686251E+01 0.  0.
     999903    2    3    3    0    0 -0.10186469837E-01  0.16553150053E+00 -0.13845212485E-01  0.16753756430E+00  0.19305535611E-01 0.  0.
         14    1    1    2    0    0  0.21986868150E-01  0.62970749163E-02 -0.57749398690E-02  0.23588672155E-01  0.00000000000E+00 0.  1.
     999901    1    3    3    0    0 -0.11800398313E-01 -0.17182857545E+00  0.19620152354E-01  0.85280376355E+00  0.83500000000E+00 0. -1.
        -11    1    4    4    0    0 -0.10356808923E-01  0.40174515693E-01 -0.75744619369E-03  0.41498072822E-01  0.51100000000E-03 0.  1.
         11    1    4    4    0    0  0.17033908552E-03  0.12535698484E+00 -0.13087766292E-01  0.12603949148E+00  0.51100000000E-03 0. -1.
</event>
<event>
 8    1  0.5616615E+005  0.1043930E+01  0.7957747E-01            NaN
         13   -1    0    0    0    0  0.00000000000E+00  0.00000000000E+00  0.74505805969E-08  0.10566000000E+00  0.10566000000E+00 0. -1.
     999900   -1    0    0    0    0 -0.00000000000E+00 -0.00000000000E+00 -0.74505805969E-08  0.93827000000E+00  0.93827000000E+00 0.  1.
     999902    2    1    2    0    0 -0.41247268453E-02  0.19210167119E-01 -0.12673715635E-01  0.10205490898E+01  0.10202812249E+01 0.  0.
     999903    2    3    3    0    0 -0.25033312767E-01 -0.45361929628E-02 -0.16780475013E+00  0.17067163017E+00  0.17975744263E-01 0.  0.
         14    1    1    2    0    0  0.41247268453E-02 -0.19210167119E-01  0.12673715635E-01  0.23380910168E-01  0.00000000000E+00 0.  1.
     999901    1    3    3    0    0  0.20908585922E-01  0.23746360082E-01  0.15513103450E+00  0.84987745967E+00  0.83500000000E+00 0. -1.
        -11    1    4    4    0    0 -0.15554342009E-01 -0.42192038040E-02 -0.51161789833E-01  0.53642605231E-01  0.51100000000E-03 0.  1.
         11    1    4    4    0    0 -0.94789707582E-02 -0.31698915882E-03 -0.11664296030E+00  0.11702902494E+00  0.51100000000E-03 0. -1.
</event>
<event>
 8    1  0.5616615E+005  0.1043930E+01  0.7957747E-01            NaN
         13   -1    0    0    0    0  0.00000000000E+00  0.00000000000E+00  0.74505805969E-08  0.10566000000E+00  0.10566000000E+00 0.  1.
     999900   -1    0    0    0    0 -0.00000000000E+00 -0.00000000000E+00 -0.74505805969E-08  0.93827000000E+00  0.93827000000E+00 0. -1.
     999902    2    1    2    0    0 -0.27121432778E-01 -0.13319456227E-01  0.70648606197E-02  0.10128994943E+01  0.10124240679E+01 0.  0.
     999903    2    3    3    0    0  0.52913249125E-01 -0.82501623960E-01 -0.12664139213E+00  0.16067060209E+00  0.13064083849E-01 0.  0.
         14    1    1    2    0    0  0.27121432778E-01  0.13319456227E-01 -0.70648606197E-02  0.31030505728E-01  0.00000000000E+00 0. -1.
     999901    1    3    3    0    0 -0.80034681904E-01  0.69182167733E-01  0.13370625275E+00  0.85222889218E+00  0.83500000000E+00 0.  1.
        -11    1    4    4    0    0  0.34970614080E-01 -0.42760215514E-01 -0.72732743775E-01  0.91332869319E-01  0.51100000000E-03 0.  1.
         11    1    4    4    0    0  0.17942635046E-01 -0.39741408446E-01 -0.53908648357E-01  0.69337732774E-01  0.51100000000E-03 0. -1.
</event>
<event>
 8    1  0.5616615E+005  0.1043930E+01  0.7957747E-01            NaN
         13   -1    0    0    0    0  0.00000000000E+00  0.00000000000E+00  0.74505805969E-08  0.10566000000E+00  0.10566000000E+00 0. -1.
     999900   -1    0    0    0    0 -0.00000000000E+00 -0.00000000000E+00 -0.74505805969E-08  0.93827000000E+00  0.93827000000E+00 0. -1.
     999902    2    1    2    0    0  0.20479534047E-01 -0.22359914861E-02  0.12648055632E-01  0.10197559585E+01  0.10194693868E+01 0.  0.
     999903    2    3    3    0    0 -0.64426404595E-01  0.31772287929E-01 -0.14703751244E+00  0.16471791128E+00  0.18754208641E-01 0.  0.
         14    1    1    2    0    0 -0.20479534047E-01  0.22359914861E-02 -0.12648055632E-01  0.24174041532E-01  0.00000000000E+00 0.  1.
     999901    1    3    3    0    0  0.84905938642E-01 -0.34008279415E-01  0.15968556808E+00  0.85503804719E+00  0.83500000000E+00 0.  1.
        -11    1    4    4    0    0 -0.40402659180E-01  0.11529492749E-01 -0.71932171066E-01  0.83305476574E-01  0.51100000000E-03 0. -1.
         11    1    4    4    0    0 -0.24023745414E-01  0.20242795180E-01 -0.75105341378E-01  0.81412434707E-01  0.51100000000E-03 0.  1.
</event>
<event>
 8    1  0.5616615E+005  0.1043930E+01  0.7957747E-01            NaN
         13   -1    0    0    0    0  0.00000000000E+00  0.00000000000E+00  0.74505805969E-08  0.10566000000E+00  0.10566000000E+00 0.  1.
     999900   -1    0    0    0    0 -0.00000000000E+00 -0.00000000000E+00 -0.74505805969E-08  0.93827000000E+00  0.93827000000E+00 0.  1.
     999902    2    1    2    0    0  0.18815076338E-01  0.10020641403E-01 -0.79176795100E-02  0.10211899472E+01  0.10209367259E+01 0.  0.
     999903    2    3    3    0    0 -0.81397934913E-01  0.13493828704E+00  0.56411740733E-01  0.16854093377E+00  0.19743270921E-01 0.  0.
         14    1    1    2    0    0 -0.18815076338E-01 -0.10020641403E-01  0.79176795100E-02  0.22740052782E-01  0.00000000000E+00 0.  1.
     999901    1    3    3    0    0  0.10021301125E+00 -0.12491764564E+00 -0.64329420243E-01  0.85264901344E+00  0.83500000000E+00 0.  1.
        -11    1    4    4    0    0 -0.50793434791E-01  0.98512938317E-01  0.44919469774E-01  0.11959428046E+00  0.51100000000E-03 0. -1.
         11    1    4    4    0    0 -0.30604500123E-01  0.36425348727E-01  0.11492270959E-01  0.48946653312E-01  0.51100000000E-03 0.  1.
</event>
<event>
 8    1  0.5616615E+005  0.1043930E+01  0.7957747E-01            NaN
         13   -1    0    0    0    0  0.00000000000E+00  0.00000000000E+00  0.74505805969E-08  0.10566000000E+00  0.10566000000E+00 0. -1.
     999900   -1    0    0    0    0 -0.00000000000E+00 -0.00000000000E+00 -0.74505805969E-08  0.93827000000E+00  0.93827000000E+00 0.  1.
     999902    2    1    2    0    0  0.53294004205E-03  0.65541913143E-02  0.24834420624E-01  0.10182397315E+01  0.10179155961E+01 0.  0.
     999903    2    3    3    0    0 -0.79566385120E-01 -0.13731336773E+00  0.48608274236E-01  0.16682680431E+00  0.16812129936E-01 0.  0.
         14    1    1    2    0    0 -0.53294004205E-03 -0.65541913143E-02 -0.24834420624E-01  0.25690268519E-01  0.00000000000E+00 0.  1.
     999901    1    3    3    0    0  0.80099325162E-01  0.14386755905E+00 -0.23773853612E-01  0.85141292717E+00  0.83500000000E+00 0.  1.
        -11    1    4    4    0    0 -0.34387259904E-01 -0.59318054733E-01  0.29727614030E-01  0.74733576241E-01  0.51100000000E-03 0.  1.
         11    1    4    4    0    0 -0.45179125216E-01 -0.77995313000E-01  0.18880660206E-01  0.92093228069E-01  0.51100000000E-03 0. -1.
</event>
<event>
 8    1  0.5616615E+005  0.1043930E+01  0.7957747E-01            NaN
         13   -1    0    0    0    0  0.00000000000E+00  0.00000000000E+00  0.74505805969E-08  0.10566000000E+00  0.10566000000E+00 0.  1.
     999900   -1    0    0    0    0 -0.00000000000E+00 -0.00000000000E+00 -0.74505805969E-08  0.93827000000E+00  0.93827000000E+00 0. -1.
     999902    2    1    2    0    0  0.14267808422E-02 -0.81056479346E-02 -0.22075117313E-01  0.10203705425E+01  0.10200985227E+01 0.  0.
     999903    2    3    3    0    0  0.68245613937E-01  0.49516051963E-01  0.14065021294E+00  0.16509891909E+00  0.19127662162E-01 0.  0.
         14    1    1    2    0    0 -0.14267808422E-02  0.81056479346E-02  0.22075117313E-01  0.23559457473E-01  0.00000000000E+00 0.  1.
     999901    1    3    3    0    0 -0.66818833095E-01 -0.57621699898E-01 -0.16272533025E+00  0.85527162344E+00  0.83500000000E+00 0. -1.
        -11    1    4    4    0    0  0.32912894492E-01  0.25398296294E-01  0.87451261824E-01  0.96831381247E-01  0.51100000000E-03 0. -1.
         11    1    4    4    0    0  0.35332719445E-01  0.24117755669E-01  0.53198951117E-01  0.68267537841E-01  0.51100000000E-03 0.  1.
</event>
<event>
 8    1  0.5616615E+005  0.1043930E+01  0.7957747E-01            NaN
         13   -1    0    0    0    0  0.00000000000E+00  0.00000000000E+00  0.74505805969E-08  0.10566000000E+00  0.10566000000E+00 0. -1.
     999900   -1    0    0    0    0 -0.00000000000E+00 -0.00000000000E+00 -0.74505805969E-08  0.93827000000E+00  0.93827000000E+00 0.  1.
     999902    2    1    2    0    0  0.21371963252E-02 -0.79489728470E-02  0.22281906392E-01  0.10201763239E+01  0.10198997474E+01 0.  0.
     999903    2    3    3    0    0  0.38556900552E-01  0.11600452716E+00  0.11645319325E+00  0.17000922483E+00  0.19952578954E-01 0.  0.
         14    1    1    2    0    0 -0.21371963252E-02  0.79489728470E-02 -0.22281906392E-01  0.23753676135E-01  0.00000000000E+00 0.  1.
     999901    1    3    3    0    0 -0.36419704226E-01 -0.12395350000E+00 -0.94171286859E-01  0.85016709904E+00  0.83500000000E+00 0.  1.
        -11    1    4    4    0    0  0.31558919016E-01  0.10260428930E+00  0.10956168255E+00  0.15338718642E+00  0.51100000000E-03 0.  1.
         11    1    4    4    0    0  0.69979815357E-02  0.13400237853E-01  0.68915106965E-02  0.16622038406E-01  0.51100000000E-03 0. -1.
</event>
<event>
 8    1  0.5616615E+005  0.1043930E+01  0.7957747E-01            NaN
         13   -1    0    0    0    0  0.00000000000E+00  0.00000000000E+00  0.74505805969E-08  0.10566000000E+00  0.10566000000E+00 0.  1.
     999900   -1    0    0    0    0 -0.00000000000E+00 -0.00000000000E+00 -0.74505805969E-08  0.93827000000E+00  0.93827000000E+00 0. -1.
     999902    2    1    2    0    0 -0.20844667872E-01  0.38590180387E-02 -0.87841978713E-02  0.10209832283E+01  0.10207253294E+01 0.  0.
     999903    2    3    3    0    0 -0.87629258192E-01  0.11385041865E+00 -0.92371721936E-01  0.17200138875E+00  0.20276538211E-01 0.  0.
         14    1    1    2    0    0  0.20844667872E-01 -0.38590180387E-02  0.87841978713E-02  0.22946771694E-01  0.00000000000E+00 0.  1.
     999901    1    3    3    0    0  0.66784590320E-01 -0.10999140061E+00  0.83587524065E-01  0.84898183955E+00  0.83500000000E+00 0.  1.
        -11    1    4    4    0    0 -0.26762897481E-01  0.43102949655E-01 -0.42485113230E-01  0.66176755116E-01  0.51100000000E-03 0.  1.
         11    1    4    4    0    0 -0.60866360710E-01  0.70747468993E-01 -0.49886608706E-01  0.10582463364E+00  0.51100000000E-03 0. -1.
</event>
<event>
 8    1  0.5616615E+005  0.1043930E+01  0.7957747E-01            NaN
         13   -1    0    0    0    0  0.00000000000E+00  0.00000000000E+00  0.74505805969E-08  0.10566000000E+00  0.10566000000E+00 0.  1.
     999900   -1    0    0    0    0 -0.00000000000E+00 -0.00000000000E+00 -0.74505805969E-08  0.93827000000E+00  0.93827000000E+00 0.  1.
     999902    2    1    2    0    0 -0.23787986765E-01 -0.11467899490E-01  0.54176581563E-02  0.10169720317E+01  0.10166146671E+01 0.  0.
     999903    2    3    3    0    0  0.86057693007E-01  0.56970795198E-02 -0.13648130582E+00  0.16273493008E+00  0.20423696747E-01 0.  0.
         14    1    1    2    0    0  0.23787986765E-01  0.11467899490E-01 -0.54176581563E-02  0.26957968265E-01  0.00000000000E+00 0. -1.
     999901    1    3    3    0    0 -0.10984567977E+00 -0.17164979010E-01  0.14189896398E+00  0.85423710166E+00  0.83500000000E+00 0. -1.
        -11    1    4    4    0    0  0.12241306815E-01 -0.56488598965E-02 -0.15411758348E-01  0.20482739735E-01  0.51100000000E-03 0. -1.
         11    1    4    4    0    0  0.73816386192E-01  0.11345939416E-01 -0.12106954747E+00  0.14225219034E+00  0.51100000000E-03 0.  1.
</event>
<event>
 8    1  0.5616615E+005  0.1043930E+01  0.7957747E-01            NaN
         13   -1    0    0    0    0  0.00000000000E+00  0.00000000000E+00  0.74505805969E-08  0.10566000000E+00  0.10566000000E+00 0.  1.
     999900   -1    0    0    0    0 -0.00000000000E+00 -0.00000000000E+00 -0.74505805969E-08  0.93827000000E+00  0.93827000000E+00 0. -1.
     999902    2    1    2    0    0 -0.21613217834E-01 -0.87060584068E-02  0.29598233050E-02  0.10204419777E+01  0.10201716241E+01 0.  0.
     999903    2    3    3    0    0 -0.13584307973E+00  0.11436702650E-01  0.10186125627E+00  0.17164242207E+00  0.22388949240E-01 0.  0.
         14    1    1    2    0    0  0.21613217834E-01  0.87060584068E-02 -0.29598233050E-02  0.23488022312E-01  0.00000000000E+00 0. -1.
     999901    1    3    3    0    0  0.11422986190E+00 -0.20142761057E-01 -0.98901432961E-01  0.84879955562E+00  0.83500000000E+00 0. -1.
        -11    1    4    4    0    0 -0.10688205332E+00  0.16198803043E-01  0.86864666009E-01  0.13867914718E+00  0.51100000000E-03 0. -1.
         11    1    4    4    0    0 -0.28961026411E-01 -0.47621003933E-02  0.14996590258E-01  0.32963274888E-01  0.51100000000E-03 0.  1.
</event>
<event>
 8    1  0.5616615E+005  0.1043930E+01  0.7957747E-01            NaN
         13   -1    0    0    0    0  0.00000000000E+00  0.00000000000E+00  0.74505805969E-08  0.10566000000E+00  0.10566000000E+00 0. -1.
     999900   -1    0    0    0    0 -0.00000000000E+00 -0.00000000000E+00 -0.74505805969E-08  0.93827000000E+00  0.93827000000E+00 0.  1.
     999902    2    1    2    0    0  0.11561114440E-01 -0.12380091174E-01  0.16207948248E-01  0.10204859472E+01  0.10202166166E+01 0.  0.
     999903    2    3    3    0    0  0.72932337482E-01  0.48797822876E-01  0.14553766768E+00  0.17109773178E+00  0.19820891525E-01 0.  0.
         14    1    1    2    0    0 -0.11561114440E-01  0.12380091174E-01 -0.16207948248E-01  0.23444052785E-01  0.00000000000E+00 0.  1.
     999901    1    3    3    0    0 -0.61371223042E-01 -0.61177914050E-01 -0.12932971943E+00  0.84938821543E+00  0.83500000000E+00 0.  1.
        -11    1    4    4    0    0  0.37115077906E-01  0.19274681720E-01  0.52504402009E-01  0.67126862840E-01  0.51100000000E-03 0. -1.
         11    1    4    4    0    0  0.35817259576E-01  0.29523141156E-01  0.93033265668E-01  0.10397086894E+00  0.51100000000E-03 0.  1.
</event>
<event>
 8    1  0.5616615E+005  0.1043930E+01  0.7957747E-01            NaN
         13   -1    0    0    0    0  0.00000000000E+00  0.00000000000E+00  0.74505805969E-08  0.10566000000E+00  0.10566000000E+00 0.  1.
     999900   -1    0    0    0    0 -0.00000000000E+00 -0.00000000000E+00 -0.74505805969E-08  0.93827000000E+00  0.93827000000E+00 0.  1.
     999902    2    1    2    0    0  0.22638595572E-01 -0.30634066376E-02 -0.68602361506E-02  0.10200772578E+01  0.10197983421E+01 0.  0.
     999903    2    3    3    0    0 -0.52465753640E-01  0.10057734268E+00  0.11937772193E+00  0.16594431134E+00  0.20445459356E-01 0.  0.
         14    1    1    2    0    0 -0.22638595572E-01  0.30634066376E-02  0.68602361506E-02  0.23852742185E-01  0.00000000000E+00 0.  1.
     999901    1    3    3    0    0  0.75104349212E-01 -0.10364074932E+00 -0.12623795808E+00  0.85413294647E+00  0.83500000000E+00 0. -1.
        -11    1    4    4    0    0 -0.10418646976E-01  0.40358313343E-01  0.39404048428E-01  0.57360978149E-01  0.51100000000E-03 0. -1.
         11    1    4    4    0    0 -0.42047106664E-01  0.60219029338E-01  0.79973673501E-01  0.10858333319E+00  0.51100000000E-03 0.  1.
</event>
<event>
 8    1  0.5616615E+005  0.1043930E+01  0.7957747E-01            NaN
         13   -1    0    0    0    0  0.00000000000E+00  0.00000000000E+00  0.74505805969E-08  0.10566000000E+00  0.10566000000E+00 0.  1.
     999900   -1    0    0    0    0 -0.00000000000E+00 -0.00000000000E+00 -0.74505805969E-08  0.93827000000E+00  0.93827000000E+00 0.  1.
     999902    2    1    2    0    0  0.20602480395E-02 -0.50761205962E-02  0.21367146194E-01  0.10218717462E+01  0.10216336424E+01 0.  0.
     999903    2    3    3    0    0 -0.98196108530E-01 -0.10375243148E+00  0.93871653763E-01  0.17200690112E+00  0.19168825800E-01 0.  0.
         14    1    1    2    0    0 -0.20602480395E-02  0.50761205962E-02 -0.21367146194E-01  0.22058253756E-01  0.00000000000E+00 0. -1.
     999901    1    3    3    0    0  0.10025635657E+00  0.98676310888E-01 -0.72504507569E-01  0.84986484513E+00  0.83500000000E+00 0. -1.
        -11    1    4    4    0    0 -0.48599401216E-01 -0.41139500937E-01  0.34023518282E-01  0.72195714922E-01  0.51100000000E-03 0. -1.
         11    1    4    4    0    0 -0.49596707315E-01 -0.62612930547E-01  0.59848135481E-01  0.99811186195E-01  0.51100000000E-03 0.  1.
</event>
<event>
 8    1  0.5616615E+005  0.1043930E+01  0.7957747E-01            NaN
         13   -1    0    0    0    0  0.00000000000E+00  0.00000000000E+00  0.74505805969E-08  0.10566000000E+00  0.10566000000E+00 0.  1.
     999900   -1    0    0    0    0 -0.00000000000E+00 -0.00000000000E+00 -0.74505805969E-08  0.93827000000E+00  0.93827000000E+00 0. -1.
     999902    2    1    2    0    0 -0.14639840311E-01  0.15814650435E-01 -0.89499987262E-02  0.10205948212E+01  0.10203280151E+01 0.  0.
     999903    2    3    3    0    0  0.10622984781E+00 -0.69255487659E-01 -0.10674314334E+00  0.16699367954E+00  0.20290076899E-01 0.  0.
         14    1    1    2    0    0  0.14639840311E-01 -0.15814650435E-01  0.89499987262E-02  0.23335178806E-01  0.00000000000E+00 0. -1.
     999901    1    3    3    0    0 -0.12086968812E+00  0.85070138093E-01  0.97793144609E-01  0.85360114165E+00  0.83500000000E+00 0.  1.
        -11    1    4    4    0    0  0.28241629831E-01 -0.20449255222E-01 -0.41499004522E-01  0.54205075334E-01  0.51100000000E-03 0.  1.
         11    1    4    4    0    0  0.77988217979E-01 -0.48806232437E-01 -0.65244138813E-01  0.11278860421E+00  0.51100000000E-03 0. -1.
</event>
<event>
 8    1  0.5616615E+005  0.1043930E+01  0.7957747E-01            NaN
         13   -1    0    0    0    0  0.00000000000E+00  0.00000000000E+00  0.74505805969E-08  0.10566000000E+00  0.10566000000E+00 0.  1.
     999900   -1    0    0    0    0 -0.00000000000E+00 -0.00000000000E+00 -0.74505805969E-08  0.93827000000E+00  0.93827000000E+00 0. -1.
     999902    2    1    2    0    0  0.11881157487E-01  0.13202132082E-01  0.45114841297E-02  0.10256048347E+01  0.10254411076E+01 0.  0.
     999903    2    3    3    0    0 -0.89319284716E-01 -0.10816858696E+00  0.95680423258E-01  0.17090655084E+00  0.19388860171E-01 0.  0.
         14    1    1    2    0    0 -0.11881157487E-01 -0.13202132082E-01 -0.45114841297E-02  0.18325165315E-01  0.00000000000E+00 0.  1.
     999901    1    3    3    0    0  0.10120044220E+00  0.12137071904E+00 -0.91168939128E-01  0.85469828384E+00  0.83500000000E+00 0.  1.
        -11    1    4    4    0    0 -0.32994172670E-01 -0.51444251806E-01  0.34013826774E-01  0.69945178582E-01  0.51100000000E-03 0. -1.
         11    1    4    4    0    0 -0.56325112047E-01 -0.56724335154E-01  0.61666596484E-01  0.10096137226E+00  0.51100000000E-03 0.  1.
</event>
<event>
 8    1  0.5616615E+005  0.1043930E+01  0.7957747E-01            NaN
         13   -1    0    0    0    0  0.00000000000E+00  0.00000000000E+00  0.74505805969E-08  0.10566000000E+00  0.10566000000E+00 0.  1.
     999900   -1    0    0    0    0 -0.00000000000E+00 -0.00000000000E+00 -0.74505805969E-08  0.93827000000E+00  0.93827000000E+00 0.  1.
     999902    2    1    2    0    0 -0.72726952642E-02  0.16329890516E-01  0.14560782316E-01  0.10208741157E+01  0.10206137302E+01 0.  0.
     999903    2    3    3    0    0 -0.10884735195E+00  0.60629593690E-01  0.11736572731E+00  0.17230253277E+00  0.19742218616E-01 0.  0.
         14    1    1    2    0    0  0.72726952642E-02 -0.16329890516E-01 -0.14560782316E-01  0.23055884332E-01  0.00000000000E+00 0. -1.
     999901    1    3    3    0    0  0.10157465669E+00 -0.44299703175E-01 -0.10280494499E+00  0.84857158290E+00  0.83500000000E+00 0.  1.
        -11    1    4    4    0    0 -0.24252423882E-01  0.23283800564E-01  0.29143263548E-01  0.44496138755E-01  0.51100000000E-03 0.  1.
         11    1    4    4    0    0 -0.84594928069E-01  0.37345793126E-01  0.88222463759E-01  0.12780639402E+00  0.51100000000E-03 0. -1.
</event>
<event>
 8    1  0.5616615E+005  0.1043930E+01  0.7957747E-01            NaN
         13   -1    0    0    0    0  0.00000000000E+00  0.00000000000E+00  0.74505805969E-08  0.10566000000E+00  0.10566000000E+00 0.  1.
     999900   -1    0    0    0    0 -0.00000000000E+00 -0.00000000000E+00 -0.74505805969E-08  0.93827000000E+00  0.93827000000E+00 0. -1.
     999902    2    1    2    0    0  0.88308319333E-02  0.50546199689E-02 -0.21620816849E-01  0.10200345507E+01  0.10197546235E+01 0.  0.
     999903    2    3    3    0    0  0.45902008815E-01 -0.11745287397E+00  0.10565361257E+00  0.16574763251E+00  0.20184643030E-01 0.  0.
         14    1    1    2    0    0 -0.88308319333E-02 -0.50546199689E-02  0.21620816849E-01  0.23895449292E-01  0.00000000000E+00 0.  1.
     999901    1    3    3    0    0 -0.37071176882E-01  0.12250749394E+00 -0.12727442942E+00  0.85428691820E+00  0.83500000000E+00 0.  1.
        -11    1    4    4    0    0  0.32290941696E-01 -0.64570016551E-01  0.69801217011E-01  0.10042142685E+00  0.51100000000E-03 0.  1.
         11    1    4    4    0    0  0.13611067119E-01 -0.52882857422E-01  0.35852395559E-01  0.65326205658E-01  0.51100000000E-03 0. -1.
</event>
<event>
 8    1  0.5904393E+005  0.1043930E+01  0.7957747E-01            NaN
         13   -1    0    0    0    0  0.00000000000E+00  0.00000000000E+00  0.74505805969E-08  0.10566000000E+00  0.10566000000E+00 0.  1.
     999900   -1    0    0    0    0 -0.00000000000E+00 -0.00000000000E+00 -0.74505805969E-08  0.93827000000E+00  0.93827000000E+00 0. -1.
     999902    2    1    2    0    0 -0.19722148768E-01 -0.42014688789E-02  0.13298349925E-01  0.10197750501E+01  0.10194889363E+01 0.  0.
     999903    2    3    3    0    0  0.98504717036E-01  0.14641909176E-01 -0.12911139715E+00  0.16429962631E+00  0.20175468987E-01 0.  0.
         14    1    1    2    0    0  0.19722148768E-01  0.42014688789E-02 -0.13298349925E-01  0.24154949876E-01  0.00000000000E+00 0. -1.
     999901    1    3    3    0    0 -0.11822686580E+00 -0.18843378055E-01  0.14240974707E+00  0.85547542382E+00  0.83500000000E+00 0.  1.
        -11    1    4    4    0    0  0.30464611556E-01  0.13966127925E-01 -0.44990769265E-01  0.56103259500E-01  0.51100000000E-03 0. -1.
         11    1    4    4    0    0  0.68040105480E-01  0.67578125042E-03 -0.84120627881E-01  0.10819636681E+00  0.51100000000E-03 0.  1.
</event>
<event>
 8    1  0.5616615E+005  0.1043930E+01  0.7957747E-01            NaN
         13   -1    0    0    0    0  0.00000000000E+00  0.00000000000E+00  0.74505805969E-08  0.10566000000E+00  0.10566000000E+00 0.  1.
     999900   -1    0    0    0    0 -0.00000000000E+00 -0.00000000000E+00 -0.74505805969E-08  0.93827000000E+00  0.93827000000E+00 0.  1.
     999902    2    1    2    0    0  0.15476011379E-01  0.58302344555E-02 -0.16431112187E-01  0.10206173423E+01  0.10203510569E+01 0.  0.
     999903    2    3    3    0    0 -0.99850318545E-02  0.49995553374E-01  0.15681905205E+00  0.16631092213E+00  0.21629875536E-01 0.  0.
         14    1    1    2    0    0 -0.15476011379E-01 -0.58302344555E-02  0.16431112187E-01  0.23312657714E-01  0.00000000000E+00 0.  1.
     999901    1    3    3    0    0  0.25461043234E-01 -0.44165318919E-01 -0.17325016423E+00  0.85430642016E+00  0.83500000000E+00 0.  1.
        -11    1    4    4    0    0 -0.17733391567E-02  0.46342678577E-01  0.13125871689E+00  0.13921171096E+00  0.51100000000E-03 0. -1.
         11    1    4    4    0    0 -0.82116926979E-02  0.36528747973E-02  0.25560335158E-01  0.27099211162E-01  0.51100000000E-03 0.  1.
</event>
<event>
 8    1  0.5616615E+005  0.1043930E+01  0.7957747E-01            NaN
         13   -1    0    0    0    0  0.00000000000E+00  0.00000000000E+00  0.74505805969E-08  0.10566000000E+00  0.10566000000E+00 0.  1.
     999900   -1    0    0    0    0 -0.00000000000E+00 -0.00000000000E+00 -0.74505805969E-08  0.93827000000E+00  0.93827000000E+00 0. -1.
     999902    2    1    2    0    0 -0.63902928029E-02  0.10141514535E-01  0.20477097797E-01  0.10202024276E+01  0.10199264657E+01 0.  0.
     999903    2    3    3    0    0 -0.14805282915E+00  0.20993855558E-02  0.83228250432E-01  0.17091115998E+00  0.18964052766E-01 0.  0.
         14    1    1    2    0    0  0.63902928029E-02 -0.10141514535E-01 -0.20477097797E-01  0.23727572429E-01  0.00000000000E+00 0. -1.
     999901    1    3    3    0    0  0.14166253635E+00  0.80421289794E-02 -0.62751152635E-01  0.84929126759E+00  0.83500000000E+00 0.  1.
        -11    1    4    4    0    0 -0.11630884344E+00  0.78830066642E-02  0.59700890966E-01  0.13097460197E+00  0.51100000000E-03 0.  1.
         11    1    4    4    0    0 -0.31743985709E-01 -0.57836211084E-02  0.23527359466E-01  0.39936558017E-01  0.51100000000E-03 0. -1.
</event>
<event>
 8    1  0.5616615E+005  0.1043930E+01  0.7957747E-01            NaN
         13   -1    0    0    0    0  0.00000000000E+00  0.00000000000E+00  0.74505805969E-08  0.10566000000E+00  0.10566000000E+00 0. -1.
     999900   -1    0    0    0    0 -0.00000000000E+00 -0.00000000000E+00 -0.74505805969E-08  0.93827000000E+00  0.93827000000E+00 0.  1.
     999902    2    1    2    0    0  0.14262370006E-01  0.61735211992E-02  0.18011309374E-01  0.10201406152E+01  0.10198631967E+01 0.  0.
     999903    2    3    3    0    0 -0.13920073967E+00  0.79861720073E-01 -0.38227275730E-01  0.16610978725E+00  0.19400942122E-01 0.  0.
         14    1    1    2    0    0 -0.14262370006E-01 -0.61735211992E-02 -0.18011309374E-01  0.23789384767E-01  0.00000000000E+00 0.  1.
     999901    1    3    3    0    0  0.15346310967E+00 -0.73688198874E-01  0.56238585105E-01  0.85403082798E+00  0.83500000000E+00 0. -1.
        -11    1    4    4    0    0 -0.85802017277E-01  0.59411504011E-01 -0.27533167143E-01  0.10793539453E+00  0.51100000000E-03 0.  1.
         11    1    4    4    0    0 -0.53398722389E-01  0.20450216062E-01 -0.10694108588E-01  0.58174392728E-01  0.51100000000E-03 0. -1.
</event>
<event>
 8    1  0.5616615E+005  0.1043930E+01  0.7957747E-01            NaN
         13   -1    0    0    0    0  0.00000000000E+00  0.00000000000E+00  0.74505805969E-08  0.10566000000E+00  0.10566000000E+00 0.  1.
     999900   -1    0    0    0    0 -0.00000000000E+00 -0.00000000000E+00 -0.74505805969E-08  0.93827000000E+00  0.93827000000E+00 0.  1.
     999902    2    1    2    0    0 -0.29367388606E-02 -0.15949809508E-01 -0.17188413975E-01  0.10202981902E+01  0.10200244774E+01 0.  0.
     999903    2    3    3    0    0 -0.10650002395E+00  0.12525506340E+00 -0.22372176642E-01  0.16711823174E+00  0.19922426631E-01 0.  0.
         14    1    1    2    0    0  0.29367388606E-02  0.15949809508E-01  0.17188413975E-01  0.23631809780E-01  0.00000000000E+00 0.  1.
     999901    1    3    3    0    0  0.10356328509E+00 -0.14120487291E+00  0.51837626667E-02  0.85317995848E+00  0.83500000000E+00 0. -1.
        -11    1    4    4    0    0 -0.88285153683E-01  0.10651074236E+00 -0.25874552048E-01  0.14074288672E+00  0.51100000000E-03 0. -1.
         11    1    4    4    0    0 -0.18214870270E-01  0.18744321043E-01  0.35023754057E-02  0.26375345018E-01  0.51100000000E-03 0.  1.
</event>
<event>
 8    1  0.5616615E+005  0.1043930E+01  0.7957747E-01            NaN
         13   -1    0    0    0    0  0.00000000000E+00  0.00000000000E+00  0.74505805969E-08  0.10566000000E+00  0.10566000000E+00 0.  1.
     999900   -1    0    0    0    0 -0.00000000000E+00 -0.00000000000E+00 -0.74505805969E-08  0.93827000000E+00  0.93827000000E+00 0.  1.
     999902    2    1    2    0    0 -0.77815952587E-02  0.15944413298E-01 -0.17478493637E-01  0.10190246737E+01  0.10187202807E+01 0.  0.
     999903    2    3    3    0    0 -0.11912868488E-01  0.28078859290E-01  0.16103200208E+00  0.16506020761E+00  0.19576201532E-01 0.  0.
         14    1    1    2    0    0  0.77815952587E-02 -0.15944413298E-01  0.17478493637E-01  0.24905326338E-01  0.00000000000E+00 0.  1.
     999901    1    3    3    0    0  0.41312732289E-02 -0.12134445992E-01 -0.17851049572E+00  0.85396446605E+00  0.83500000000E+00 0.  1.
        -11    1    4    4    0    0  0.69625383270E-03  0.11017074093E-01  0.96446522632E-01  0.97077564554E-01  0.51100000000E-03 0.  1.
         11    1    4    4    0    0 -0.12609122320E-01  0.17061785197E-01  0.64585479451E-01  0.67982643055E-01  0.51100000000E-03 0. -1.
</event>
<event>
 8    1  0.5616615E+005  0.1043930E+01  0.7957747E-01            NaN
         13   -1    0    0    0    0  0.00000000000E+00  0.00000000000E+00  0.74505805969E-08  0.10566000000E+00  0.10566000000E+00 0. -1.
     999900   -1    0    0    0    0 -0.00000000000E+00 -0.00000000000E+00 -0.74505805969E-08  0.93827000000E+00  0.93827000000E+00 0. -1.
     999902    2    1    2    0    0 -0.84074958015E-02  0.15227494027E-01 -0.16768744840E-01  0.10197690115E+01  0.10194827529E+01 0.  0.
     999903    2    3    3    0    0 -0.29044492037E-02 -0.48834818786E-01 -0.16187689429E+00  0.16981863741E+00  0.15523058789E-01 0.  0.
         14    1    1    2    0    0  0.84074958015E-02 -0.15227494027E-01  0.16768744840E-01  0.24160988462E-01  0.00000000000E+00 0. -1.
     999901    1    3    3    0    0 -0.55030465978E-02  0.64062312812E-01  0.14510814945E+00  0.84995037413E+00  0.83500000000E+00 0.  1.
        -11    1    4    4    0    0 -0.93227727515E-03 -0.20689414129E-01 -0.44328998140E-01  0.48930994217E-01  0.51100000000E-03 0. -1.
         11    1    4    4    0    0 -0.19721719285E-02 -0.28145404657E-01 -0.11754789615E+00  0.12088764319E+00  0.51100000000E-03 0.  1.
</event>
<event>
 8    1  0.5616615E+005  0.1043930E+01  0.7957747E-01            NaN
         13   -1    0    0    0    0  0.00000000000E+00  0.00000000000E+00  0.74505805969E-08  0.10566000000E+00  0.10566000000E+00 0.  1.
     999900   -1    0    0    0    0 -0.00000000000E+00 -0.00000000000E+00 -0.74505805969E-08  0.93827000000E+00  0.93827000000E+00 0.  1.
     999902    2    1    2    0    0 -0.13607267304E-01 -0.62883516284E-02  0.18614804199E-01  0.10200299576E+01  0.10197499215E+01 0.  0.
     999903    2    3    3    0    0  0.12468449160E+00  0.49295975019E-01  0.99200250246E-01  0.16801279697E+00  0.20280401805E-01 0.  0.
         14    1    1    2    0    0  0.13607267304E-01  0.62883516284E-02 -0.18614804199E-01  0.23900042365E-01  0.00000000000E+00 0. -1.
     999901    1    3    3    0    0 -0.13829175891E+00 -0.55584326647E-01 -0.80585446046E-01  0.85201716066E+00  0.83500000000E+00 0. -1.
        -11    1    4    4    0    0  0.67137495848E-01  0.33853039258E-01  0.64461347753E-01  0.99040386161E-01  0.51100000000E-03 0.  1.
         11    1    4    4    0    0  0.57546995757E-01  0.15442935761E-01  0.34738902492E-01  0.68972410810E-01  0.51100000000E-03 0. -1.
</event>
<event>
 8    1  0.5616615E+005  0.1043930E+01  0.7957747E-01            NaN
         13   -1    0    0    0    0  0.00000000000E+00  0.00000000000E+00  0.74505805969E-08  0.10566000000E+00  0.10566000000E+00 0.  1.
     999900   -1    0    0    0    0 -0.00000000000E+00 -0.00000000000E+00 -0.74505805969E-08  0.93827000000E+00  0.93827000000E+00 0. -1.
     999902    2    1    2    0    0 -0.61862519636E-02  0.22300604218E-01  0.54778195473E-02  0.10201477972E+01  0.10198705482E+01 0.  0.
     999903    2    3    3    0    0 -0.11283039353E+00  0.10725075025E+00  0.69786150655E-01  0.17164908674E+00  0.18970530356E-01 0.  0.
         14    1    1    2    0    0  0.61862519636E-02 -0.22300604218E-01 -0.54778195473E-02  0.23782202775E-01  0.00000000000E+00 0. -1.
     999901    1    3    3    0    0  0.10664414156E+00 -0.84950146036E-01 -0.64308331108E-01  0.84849871048E+00  0.83500000000E+00 0. -1.
        -11    1    4    4    0    0 -0.24668422693E-01  0.34995630524E-01  0.20074761670E-01  0.47291462348E-01  0.51100000000E-03 0.  1.
         11    1    4    4    0    0 -0.88161970836E-01  0.72255119730E-01  0.49711388985E-01  0.12435762439E+00  0.51100000000E-03 0. -1.
</event>
<event>
 8    1  0.5616615E+005  0.1043930E+01  0.7957747E-01            NaN
         13   -1    0    0    0    0  0.00000000000E+00  0.00000000000E+00  0.74505805969E-08  0.10566000000E+00  0.10566000000E+00 0.  1.
     999900   -1    0    0    0    0 -0.00000000000E+00 -0.00000000000E+00 -0.74505805969E-08  0.93827000000E+00  0.93827000000E+00 0.  1.
     999902    2    1    2    0    0 -0.61327376961E-02 -0.20516785934E-01  0.11124144306E-01  0.10197991989E+01  0.10195136637E+01 0.  0.
     999903    2    3    3    0    0  0.67154522118E-01  0.12018186577E+00  0.90812499968E-01  0.16613511559E+00  0.20013889735E-01 0.  0.
         14    1    1    2    0    0  0.61327376961E-02  0.20516785934E-01 -0.11124144306E-01  0.24130801132E-01  0.00000000000E+00 0.  1.
     999901    1    3    3    0    0 -0.73287259814E-01 -0.14069865170E+00 -0.79688355662E-01  0.85366408327E+00  0.83500000000E+00 0.  1.
        -11    1    4    4    0    0  0.27618103521E-01  0.38081279885E-01  0.21934277294E-01  0.51906812281E-01  0.51100000000E-03 0. -1.
         11    1    4    4    0    0  0.39536418597E-01  0.82100585885E-01  0.68878222674E-01  0.11422830331E+00  0.51100000000E-03 0.  1.
</event>
<event>
 8    1  0.5616615E+005  0.1043930E+01  0.7957747E-01            NaN
         13   -1    0    0    0    0  0.00000000000E+00  0.00000000000E+00  0.74505805969E-08  0.10566000000E+00  0.10566000000E+00 0. -1.
     999900   -1    0    0    0    0 -0.00000000000E+00 -0.00000000000E+00 -0.74505805969E-08  0.93827000000E+00  0.93827000000E+00 0. -1.
     999902    2    1    2    0    0  0.19238018022E-01 -0.12301996210E-01 -0.39571404346E-02  0.10207545947E+01  0.10204914714E+01 0.  0.
     999903    2    3    3    0    0  0.16746955269E+00  0.14613095196E-01 -0.30092584920E-01  0.17186999041E+00  0.19342603426E-01 0.  0.
         14    1    1    2    0    0 -0.19238018022E-01  0.12301996210E-01  0.39571404346E-02  0.23175405252E-01  0.00000000000E+00 0. -1.
     999901    1    3    3    0    0 -0.14823153467E+00 -0.26915091406E-01  0.26135444485E-01  0.84888460433E+00  0.83500000000E+00 0. -1.
        -11    1    4    4    0    0  0.30357337852E-01 -0.42683530739E-02 -0.27058304704E-02  0.30779367098E-01  0.51100000000E-03 0. -1.
         11    1    4    4    0    0  0.13711221484E+00  0.18881448270E-01 -0.27386754449E-01  0.14109062332E+00  0.51100000000E-03 0.  1.
</event>
<event>
 8    1  0.5691700E+005  0.1043930E+01  0.7957747E-01            NaN
         13   -1    0    0    0    0  0.00000000000E+00  0.00000000000E+00  0.74505805969E-08  0.10566000000E+00  0.10566000000E+00 0.  1.
     999900   -1    0    0    0    0 -0.00000000000E+00 -0.00000000000E+00 -0.74505805969E-08  0.93827000000E+00  0.93827000000E+00 0. -1.
     999902    2    1    2    0    0  0.12185148567E-01  0.17010341090E-01  0.12489728228E-01  0.10195615191E+01  0.10192702627E+01 0.  0.
     999903    2    3    3    0    0 -0.15652592340E+00  0.47130484835E-01 -0.23989552119E-01  0.16637549792E+00  0.19587250941E-01 0.  0.
         14    1    1    2    0    0 -0.12185148567E-01 -0.17010341090E-01 -0.12489728228E-01  0.24368480889E-01  0.00000000000E+00 0.  1.
     999901    1    3    3    0    0  0.16871107197E+00 -0.30120143745E-01  0.36479280347E-01  0.85318602119E+00  0.83500000000E+00 0. -1.
        -11    1    4    4    0    0 -0.11827965944E+00  0.44166127933E-01 -0.19344236163E-01  0.12773090968E+00  0.51100000000E-03 0.  1.
         11    1    4    4    0    0 -0.38246263962E-01  0.29643569018E-02 -0.46453159559E-02  0.38644588240E-01  0.51100000000E-03 0. -1.
</event>
<event>
 8    1  0.5616615E+005  0.1043930E+01  0.7957747E-01            NaN
         13   -1    0    0    0    0  0.00000000000E+00  0.00000000000E+00  0.74505805969E-08  0.10566000000E+00  0.10566000000E+00 0.  1.
     999900   -1    0    0    0    0 -0.00000000000E+00 -0.00000000000E+00 -0.74505805969E-08  0.93827000000E+00  0.93827000000E+00 0. -1.
     999902    2    1    2    0    0 -0.22169367239E-01  0.53442598008E-02 -0.76715702881E-02  0.10198697642E+01  0.10195859164E+01 0.  0.
     999903    2    3    3    0    0 -0.11605419326E+00  0.11786011861E+00 -0.40901299013E-01  0.17145748592E+00  0.19109418788E-01 0.  0.
         14    1    1    2    0    0  0.22169367239E-01 -0.53442598008E-02  0.76715702881E-02  0.24060235811E-01  0.00000000000E+00 0.  1.
     999901    1    3    3    0    0  0.93884826023E-01 -0.11251585881E+00  0.33229728725E-01  0.84841227827E+00  0.83500000000E+00 0.  1.
        -11    1    4    4    0    0 -0.62264296229E-01  0.73924542698E-01 -0.17930579537E-01  0.98302835165E-01  0.51100000000E-03 0. -1.
         11    1    4    4    0    0 -0.53789897032E-01  0.43935575910E-01 -0.22970719476E-01  0.73154650758E-01  0.51100000000E-03 0.  1.
</event>
<event>
 8    1  0.5616615E+005  0.1043930E+01  0.7957747E-01            NaN
         13   -1    0    0    0    0  0.00000000000E+00  0.00000000000E+00  0.74505805969E-08  0.10566000000E+00  0.10566000000E+00 0.  1.
     999900   -1    0    0    0    0 -0.00000000000E+00 -0.00000000000E+00 -0.74505805969E-08  0.93827000000E+00  0.93827000000E+00 0.  1.
     999902    2    1    2    0    0  0.94294412495E-02  0.14486270062E-01  0.17561283303E-01  0.10192892806E+01  0.10189913996E+01 0.  0.
     999903    2    3    3    0    0  0.38421803715E-01  0.10650388754E+00  0.12739677517E+00  0.17158848768E+00  0.19833247778E-01 0.  0.
         14    1    1    2    0    0 -0.94294412495E-02 -0.14486270062E-01 -0.17561283303E-01  0.24640719426E-01  0.00000000000E+00 0. -1.
     999901    1    3    3    0    0 -0.28992362465E-01 -0.92017617482E-01 -0.10983549186E+00  0.84770079290E+00  0.83500000000E+00 0.  1.
        -11    1    4    4    0    0  0.12338185089E-01  0.13481215172E-01  0.22209069504E-01  0.28765914952E-01  0.51100000000E-03 0.  1.
         11    1    4    4    0    0  0.26083618625E-01  0.93022672373E-01  0.10518770566E+00  0.14282257272E+00  0.51100000000E-03 0. -1.
</event>
<event>
 8    1  0.5616615E+005  0.1043930E+01  0.7957747E-01            NaN
         13   -1    0    0    0    0  0.00000000000E+00  0.00000000000E+00  0.74505805969E-08  0.10566000000E+00  0.10566000000E+00 0.  1.
     999900   -1    0    0    0    0 -0.00000000000E+00 -0.00000000000E+00 -0.74505805969E-08  0.93827000000E+00  0.93827000000E+00 0. -1.
     999902    2    1    2    0    0 -0.11763693068E-02 -0.43298663563E-03 -0.23114509484E-01  0.10207815255E+01  0.10205190204E+01 0.  0.
     999903    2    3    3    0    0  0.23877471857E-01  0.14576675518E+00  0.75029560700E-01  0.16704894562E+00  0.21397071680E-01 0.  0.
         14    1    1    2    0    0  0.11763693068E-02  0.43298663563E-03  0.23114509484E-01  0.23148474483E-01  0.00000000000E+00 0.  1.
     999901    1    3    3    0    0 -0.25053841163E-01 -0.14619974182E+00 -0.98144070185E-01  0.85373257990E+00  0.83500000000E+00 0. -1.
        -11    1    4    4    0    0  0.22385488831E-01  0.13396849333E+00  0.61716968299E-01  0.14919085968E+00  0.51100000000E-03 0.  1.
         11    1    4    4    0    0  0.14919830253E-02  0.11798261851E-01  0.13312592402E-01  0.17858085942E-01  0.51100000000E-03 0. -1.
</event>
<event>
 8    1  0.5616615E+005  0.1043930E+01  0.7957747E-01            NaN
         13   -1    0    0    0    0  0.00000000000E+00  0.00000000000E+00  0.74505805969E-08  0.10566000000E+00  0.10566000000E+00 0.  1.
     999900   -1    0    0    0    0 -0.00000000000E+00 -0.00000000000E+00 -0.74505805969E-08  0.93827000000E+00  0.93827000000E+00 0.  1.
     999902    2    1    2    0    0 -0.18776553141E-01 -0.18835583975E-01 -0.39030083700E-02  0.10170493072E+01  0.10166940157E+01 0.  0.
     999903    2    3    3    0    0 -0.41880656942E-01 -0.13633852899E+00  0.87573972650E-01  0.16856019132E+00  0.20028816723E-01 0.  0.
         14    1    1    2    0    0  0.18776553141E-01  0.18835583975E-01  0.39030083700E-02  0.26880692809E-01  0.00000000000E+00 0.  1.
     999901    1    3    3    0    0  0.23104103802E-01  0.11750294501E+00 -0.91476981020E-01  0.84848911587E+00  0.83500000000E+00 0.  1.
        -11    1    4    4    0    0 -0.30367389867E-01 -0.85382758352E-01  0.45077046095E-01  0.10121558673E+00  0.51100000000E-03 0.  1.
         11    1    4    4    0    0 -0.11513267076E-01 -0.50955770634E-01  0.42496926555E-01  0.67344604590E-01  0.51100000000E-03 0. -1.
</event>
<event>
 8    1  0.5616615E+005  0.1043930E+01  0.7957747E-01            NaN
         13   -1    0    0    0    0  0.00000000000E+00  0.00000000000E+00  0.74505805969E-08  0.10566000000E+00  0.10566000000E+00 0. -1.
     999900   -1    0    0    0    0 -0.00000000000E+00 -0.00000000000E+00 -0.74505805969E-08  0.93827000000E+00  0.93827000000E+00 0.  1.
     999902    2    1    2    0    0 -0.27612512487E-02 -0.20859619741E-01 -0.10576800941E-01  0.10203796929E+01  0.10201078868E+01 0.  0.
     999903    2    3    3    0    0 -0.34418983168E-01 -0.12963138351E+00 -0.10626676488E+00  0.17231420150E+00  0.20263186511E-01 0.  0.
         14    1    1    2    0    0  0.27612512487E-02  0.20859619741E-01  0.10576800941E-01  0.23550307055E-01  0.00000000000E+00 0. -1.
     999901    1    3    3    0    0  0.31657731919E-01  0.10877176377E+00  0.95689963937E-01  0.84806549145E+00  0.83500000000E+00 0. -1.
        -11    1    4    4    0    0 -0.18121249793E-01 -0.37816456545E-01 -0.39636374487E-01  0.57704136621E-01  0.51100000000E-03 0.  1.
         11    1    4    4    0    0 -0.16297733375E-01 -0.91814926964E-01 -0.66630390392E-01  0.11461006488E+00  0.51100000000E-03 0. -1.
</event>
<event>
 8    1  0.5616615E+005  0.1043930E+01  0.7957747E-01            NaN
         13   -1    0    0    0    0  0.00000000000E+00  0.00000000000E+00  0.74505805969E-08  0.10566000000E+00  0.10566000000E+00 0. -1.
     999900   -1    0    0    0    0 -0.00000000000E+00 -0.00000000000E+00 -0.74505805969E-08  0.93827000000E+00  0.93827000000E+00 0.  1.
     999902    2    1    2    0    0 -0.19550298849E-01 -0.11866114618E-01  0.62478076430E-02  0.10202223227E+01  0.10199468289E+01 0.  0.
     999903    2    3    3    0    0 -0.41762985033E-01 -0.53300704739E-03  0.16367703714E+00  0.17014538206E+00  0.20367806307E-01 0.  0.
         14    1    1    2    0    0  0.19550298849E-01  0.11866114618E-01 -0.62478076430E-02  0.23707677270E-01  0.00000000000E+00 0.  1.
     999901    1    3    3    0    0  0.22212686184E-01 -0.11333107570E-01 -0.15742922950E+00  0.85007694067E+00  0.83500000000E+00 0.  1.
        -11    1    4    4    0    0 -0.34791473407E-01  0.72575466331E-02  0.11554846831E+00  0.12089180392E+00  0.51100000000E-03 0.  1.
         11    1    4    4    0    0 -0.69715116258E-02 -0.77905536805E-02  0.48128568830E-01  0.49253578140E-01  0.51100000000E-03 0. -1.
</event>
<event>
 8    1  0.5616615E+005  0.1043930E+01  0.7957747E-01            NaN
         13   -1    0    0    0    0  0.00000000000E+00  0.00000000000E+00  0.74505805969E-08  0.10566000000E+00  0.10566000000E+00 0.  1.
     999900   -1    0    0    0    0 -0.00000000000E+00 -0.00000000000E+00 -0.74505805969E-08  0.93827000000E+00  0.93827000000E+00 0. -1.
     999902    2    1    2    0    0 -0.15207997488E-02 -0.58342970061E-02 -0.22931362233E-01  0.10202192592E+01  0.10199436934E+01 0.  0.
     999903    2    3    3    0    0  0.11435729240E+00  0.56982499372E-01 -0.11081367279E+00  0.17032398178E+00  0.20149271212E-01 0.  0.
         14    1    1    2    0    0  0.15207997488E-02  0.58342970061E-02  0.22931362233E-01  0.23710740758E-01  0.00000000000E+00 0.  1.
     999901    1    3    3    0    0 -0.11587809215E+00 -0.62816796378E-01  0.87882310562E-01  0.84989527746E+00  0.83500000000E+00 0.  1.
        -11    1    4    4    0    0  0.71462413832E-01  0.45935978992E-01 -0.75907680037E-01  0.11392641382E+00  0.51100000000E-03 0.  1.
         11    1    4    4    0    0  0.42894878568E-01  0.11046520380E-01 -0.34905992758E-01  0.56397567956E-01  0.51100000000E-03 0. -1.
</event>
<event>
 8    1  0.5616615E+005  0.1043930E+01  0.7957747E-01            NaN
         13   -1    0    0    0    0  0.00000000000E+00  0.00000000000E+00  0.74505805969E-08  0.10566000000E+00  0.10566000000E+00 0.  1.
     999900   -1    0    0    0    0 -0.00000000000E+00 -0.00000000000E+00 -0.74505805969E-08  0.93827000000E+00  0.93827000000E+00 0. -1.
     999902    2    1    2    0    0  0.35837493513E-02  0.46929820890E-02 -0.24080705138E-01  0.10191358938E+01  0.10188342468E+01 0.  0.
     999903    2    3    3    0    0 -0.17289131532E-02  0.11385257638E+00  0.11794365475E+00  0.16512186573E+00  0.19726291010E-01 0.  0.
         14    1    1    2    0    0 -0.35837493513E-02 -0.46929820890E-02  0.24080705138E-01  0.24794106160E-01  0.00000000000E+00 0.  1.
     999901    1    3    3    0    0  0.53126625045E-02 -0.10915959429E+00 -0.14202435989E+00  0.85401402811E+00  0.83500000000E+00 0. -1.
        -11    1    4    4    0    0  0.17967391557E-02  0.44445052041E-01  0.59658403922E-01  0.74417586645E-01  0.51100000000E-03 0.  1.
         11    1    4    4    0    0 -0.35256523089E-02  0.69407524341E-01  0.58285250827E-01  0.90704279085E-01  0.51100000000E-03 0. -1.
</event>
<event>
 8    1  0.5616615E+005  0.1043930E+01  0.7957747E-01            NaN
         13   -1    0    0    0    0  0.00000000000E+00  0.00000000000E+00  0.74505805969E-08  0.10566000000E+00  0.10566000000E+00 0. -1.
     999900   -1    0    0    0    0 -0.00000000000E+00 -0.00000000000E+00 -0.74505805969E-08  0.93827000000E+00  0.93827000000E+00 0.  1.
     999902    2    1    2    0    0 -0.76742717115E-02  0.83131840559E-02 -0.21242372960E-01  0.10198625555E+01  0.10195785356E+01 0.  0.
     999903    2    3    3    0    0  0.33119475415E-01 -0.15151063344E+00  0.53834754919E-01  0.16542159349E+00  0.20340871575E-01 0.  0.
         14    1    1    2    0    0  0.76742717115E-02 -0.83131840559E-02  0.21242372960E-01  0.24067444493E-01  0.00000000000E+00 0. -1.
     999901    1    3    3    0    0 -0.40793747126E-01  0.15982381750E+00 -0.75077127879E-01  0.85444096202E+00  0.83500000000E+00 0. -1.
        -11    1    4    4    0    0  0.34373251669E-01 -0.12671476548E+00  0.48883505534E-01  0.14010000162E+00  0.51100000000E-03 0.  1.
         11    1    4    4    0    0 -0.12537762543E-02 -0.24795867968E-01  0.49512493848E-02  0.25321591867E-01  0.51100000000E-03 0. -1.
</event>
<event>
 8    1  0.5616615E+005  0.1043930E+01  0.7957747E-01            NaN
         13   -1    0    0    0    0  0.00000000000E+00  0.00000000000E+00  0.74505805969E-08  0.10566000000E+00  0.10566000000E+00 0. -1.
     999900   -1    0    0    0    0 -0.00000000000E+00 -0.00000000000E+00 -0.74505805969E-08  0.93827000000E+00  0.93827000000E+00 0. -1.
     999902    2    1    2    0    0  0.10638745068E-01 -0.20715152272E-01  0.46940112055E-02  0.10201742813E+01  0.10198976566E+01 0.  0.
     999903    2    3    3    0    0 -0.94866269046E-01  0.42172427928E-01 -0.12783165037E+00  0.16584752488E+00  0.19655736860E-01 0.  0.
         14    1    1    2    0    0 -0.10638745068E-01  0.20715152272E-01 -0.46940112055E-02  0.23755718711E-01  0.00000000000E+00 0.  1.
     999901    1    3    3    0    0  0.10550501411E+00 -0.62887580200E-01  0.13252566157E+00  0.85432675641E+00  0.83500000000E+00 0.  1.
        -11    1    4    4    0    0 -0.46906793067E-01  0.12316493764E-01 -0.68385280817E-01  0.83837646722E-01  0.51100000000E-03 0. -1.
         11    1    4    4    0    0 -0.47959475978E-01  0.29855934164E-01 -0.59446369552E-01  0.82009878154E-01  0.51100000000E-03 0.  1.
</event>
<event>
 8    1  0.5616615E+005  0.1043930E+01  0.7957747E-01            NaN
         13   -1    0    0    0    0  0.00000000000E+00  0.00000000000E+00  0.74505805969E-08  0.10566000000E+00  0.10566000000E+00 0. -1.
     999900   -1    0    0    0    0 -0.00000000000E+00 -0.00000000000E+00 -0.74505805969E-08  0.93827000000E+00  0.93827000000E+00 0. -1.
     999902    2    1    2    0    0 -0.13915754323E-01  0.18784449328E-01  0.35401285437E-02  0.10202860523E+01  0.10200120549E+01 0.  0.
     999903    2    3    3    0    0  0.16249966110E-01  0.82090984477E-01 -0.14574363635E+00  0.16915249602E+00  0.19192921674E-01 0.  0.
         14    1    1    2    0    0  0.13915754323E-01 -0.18784449328E-01 -0.35401285437E-02  0.23643947747E-01  0.00000000000E+00 0. -1.
     999901    1    3    3    0    0 -0.30165720432E-01 -0.63306535149E-01  0.14928376490E+00  0.85113355623E+00  0.83500000000E+00 0.  1.
        -11    1    4    4    0    0  0.52376056794E-02  0.56842397607E-01 -0.11092778100E+00  0.12475465682E+00  0.51100000000E-03 0. -1.
         11    1    4    4    0    0  0.11012360430E-01  0.25248586871E-01 -0.34815855353E-01  0.44397839206E-01  0.51100000000E-03 0.  1.
</event>
<event>
 8    1  0.5616615E+005  0.1043930E+01  0.7957747E-01            NaN
         13   -1    0    0    0    0  0.00000000000E+00  0.00000000000E+00  0.74505805969E-08  0.10566000000E+00  0.10566000000E+00 0.  1.
     999900   -1    0    0    0    0 -0.00000000000E+00 -0.00000000000E+00 -0.74505805969E-08  0.93827000000E+00  0.93827000000E+00 0. -1.
     999902    2    1    2    0    0 -0.36362545905E-02 -0.15173342622E-01  0.18801781476E-01  0.10194972421E+01  0.10192044284E+01 0.  0.
     999903    2    3    3    0    0  0.11565335665E+00  0.30308516912E-01 -0.11081141763E+00  0.16490775448E+00  0.24921719628E-01 0.  0.
         14    1    1    2    0    0  0.36362545905E-02  0.15173342622E-01 -0.18801781476E-01  0.24432757938E-01  0.00000000000E+00 0.  1.
     999901    1    3    3    0    0 -0.11928961124E+00 -0.45481859534E-01  0.12961319910E+00  0.85458948758E+00  0.83500000000E+00 0.  1.
        -11    1    4    4    0    0  0.37138932616E-01  0.21574126364E-01 -0.43287851673E-01  0.60982312745E-01  0.51100000000E-03 0.  1.
         11    1    4    4    0    0  0.78514424038E-01  0.87343905479E-02 -0.67523565955E-01  0.10392544174E+00  0.51100000000E-03 0. -1.
</event>
<event>
 8    1  0.5616615E+005  0.1043930E+01  0.7957747E-01            NaN
         13   -1    0    0    0    0  0.00000000000E+00  0.00000000000E+00  0.74505805969E-08  0.10566000000E+00  0.10566000000E+00 0. -1.
     999900   -1    0    0    0    0 -0.00000000000E+00 -0.00000000000E+00 -0.74505805969E-08  0.93827000000E+00  0.93827000000E+00 0.  1.
     999902    2    1    2    0    0  0.12989491603E-01 -0.15895499681E-01 -0.13324745793E-01  0.10194566951E+01  0.10191628970E+01 0.  0.
     999903    2    3    3    0    0  0.10494662058E+00  0.12418507048E+00 -0.35475757233E-01  0.16752104788E+00  0.19210602003E-01 0.  0.
         14    1    1    2    0    0 -0.12989491603E-01  0.15895499681E-01  0.13324745793E-01  0.24473304899E-01  0.00000000000E+00 0.  1.
     999901    1    3    3    0    0 -0.91957128973E-01 -0.14008057016E+00  0.22151011440E-01  0.85193564723E+00  0.83500000000E+00 0.  1.
        -11    1    4    4    0    0  0.64329393649E-01  0.71301878238E-01 -0.30012903933E-01  0.10061443361E+00  0.51100000000E-03 0.  1.
         11    1    4    4    0    0  0.40617226927E-01  0.52883192243E-01 -0.54628532996E-02  0.66906614264E-01  0.51100000000E-03 0. -1.
</event>
<event>
 8    1  0.5616615E+005  0.1043930E+01  0.7957747E-01            NaN
         13   -1    0    0    0    0  0.00000000000E+00  0.00000000000E+00  0.74505805969E-08  0.10566000000E+00  0.10566000000E+00 0. -1.
     999900   -1    0    0    0    0 -0.00000000000E+00 -0.00000000000E+00 -0.74505805969E-08  0.93827000000E+00  0.93827000000E+00 0.  1.
     999902    2    1    2    0    0 -0.15043434034E-01  0.15282194838E-01 -0.33571349677E-02  0.10222246840E+01  0.10219942191E+01 0.  0.
     999903    2    3    3    0    0 -0.13607690471E+00 -0.89015492306E-01 -0.49656723536E-01  0.17081657948E+00  0.16487321492E-01 0.  0.
         14    1    1    2    0    0  0.15043434034E-01 -0.15282194838E-01  0.33571349677E-02  0.21705315980E-01  0.00000000000E+00 0.  1.
     999901    1    3    3    0    0  0.12103347067E+00  0.10429768714E+00  0.46299588568E-01  0.85140810453E+00  0.83500000000E+00 0. -1.
        -11    1    4    4    0    0 -0.45872347499E-01 -0.36604547536E-01 -0.23815911006E-01  0.63337381564E-01  0.51100000000E-03 0. -1.
         11    1    4    4    0    0 -0.90204557206E-01 -0.52410944770E-01 -0.25840812530E-01  0.10747919792E+00  0.51100000000E-03 0.  1.
</event>
<event>
 8    1  0.5616615E+005  0.1043930E+01  0.7957747E-01            NaN
         13   -1    0    0    0    0  0.00000000000E+00  0.00000000000E+00  0.74505805969E-08  0.10566000000E+00  0.10566000000E+00 0.  1.
     999900   -1    0    0    0    0 -0.00000000000E+00 -0.00000000000E+00 -0.74505805969E-08  0.93827000000E+00  0.93827000000E+00 0. -1.
     999902    2    1    2    0    0  0.78128759826E-02 -0.16457790246E-01  0.13620077423E-01  0.10211834310E+01  0.10209300629E+01 0.  0.
     999903    2    3    3    0    0  0.84833637223E-01 -0.85392771088E-02  0.14771402262E+00  0.17194784143E+00  0.21839469663E-01 0.  0.
         14    1    1    2    0    0 -0.78128759826E-02  0.16457790246E-01 -0.13620077423E-01  0.22746568970E-01  0.00000000000E+00 0. -1.
     999901    1    3    3    0    0 -0.77020761240E-01 -0.79185131372E-02 -0.13409394519E+00  0.84923558960E+00  0.83500000000E+00 0.  1.
        -11    1    4    4    0    0  0.45339351064E-01 -0.43972671521E-02  0.57345239907E-01  0.73237492954E-01  0.51100000000E-03 0. -1.
         11    1    4    4    0    0  0.39494286159E-01 -0.41420099567E-02  0.90368782711E-01  0.98710348471E-01  0.51100000000E-03 0.  1.
</event>
<event>
 8    1  0.5616615E+005  0.1043930E+01  0.7957747E-01            NaN
         13   -1    0    0    0    0  0.00000000000E+00  0.00000000000E+00  0.74505805969E-08  0.10566000000E+00  0.10566000000E+00 0. -1.
     999900   -1    0    0    0    0 -0.00000000000E+00 -0.00000000000E+00 -0.74505805969E-08  0.93827000000E+00  0.93827000000E+00 0. -1.
     999902    2    1    2    0    0  0.21027436056E-01  0.96977579362E-02 -0.88866247816E-03  0.10207569705E+01  0.10204939017E+01 0.  0.
     999903    2    3    3    0    0  0.89253032696E-01  0.50401706082E-01 -0.13574653647E+00  0.17121404066E+00  0.19511271967E-01 0.  0.
         14    1    1    2    0    0 -0.21027436056E-01 -0.96977579362E-02  0.88866247816E-03  0.23173029518E-01  0.00000000000E+00 0. -1.
     999901    1    3    3    0    0 -0.68225596641E-01 -0.40703948146E-01  0.13485787399E+00  0.84954292982E+00  0.83500000000E+00 0.  1.
        -11    1    4    4    0    0  0.72919671537E-01  0.38279473091E-01 -0.95432394864E-01  0.12605633529E+00  0.51100000000E-03 0. -1.
         11    1    4    4    0    0  0.16333361160E-01  0.12122232991E-01 -0.40314141607E-01  0.45157705366E-01  0.51100000000E-03 0.  1.
</event>
<event>
 8    1  0.5616615E+005  0.1043930E+01  0.7957747E-01            NaN
         13   -1    0    0    0    0  0.00000000000E+00  0.00000000000E+00  0.74505805969E-08  0.10566000000E+00  0.10566000000E+00 0.  1.
     999900   -1    0    0    0    0 -0.00000000000E+00 -0.00000000000E+00 -0.74505805969E-08  0.93827000000E+00  0.93827000000E+00 0. -1.
     999902    2    1    2    0    0 -0.14057411785E-01 -0.13614718508E-01  0.16840061237E-01  0.10181121951E+01  0.10177847920E+01 0.  0.
     999903    2    3    3    0    0 -0.15410380870E+00  0.48774899877E-01 -0.38468378788E-01  0.16735401485E+00  0.20014379986E-01 0.  0.
         14    1    1    2    0    0  0.14057411785E-01  0.13614718508E-01 -0.16840061237E-01  0.25817804876E-01  0.00000000000E+00 0.  1.
     999901    1    3    3    0    0  0.14004639691E+00 -0.62389618384E-01  0.55308440025E-01  0.85075818028E+00  0.83500000000E+00 0.  1.
        -11    1    4    4    0    0 -0.19148263336E-01 -0.23642557720E-03 -0.67567279627E-02  0.20313207024E-01  0.51100000000E-03 0.  1.
         11    1    4    4    0    0 -0.13495554536E+00  0.49011325454E-01 -0.31711650826E-01  0.14704080782E+00  0.51100000000E-03 0. -1.
</event>
<event>
 8    1  0.5616615E+005  0.1043930E+01  0.7957747E-01            NaN
         13   -1    0    0    0    0  0.00000000000E+00  0.00000000000E+00  0.74505805969E-08  0.10566000000E+00  0.10566000000E+00 0. -1.
     999900   -1    0    0    0    0 -0.00000000000E+00 -0.00000000000E+00 -0.74505805969E-08  0.93827000000E+00  0.93827000000E+00 0. -1.
     999902    2    1    2    0    0 -0.97301802470E-02 -0.18705500172E-01 -0.11266009136E-01  0.10200240362E+01  0.10197438596E+01 0.  0.
     999903    2    3    3    0    0  0.84768969800E-01 -0.13330550594E+00 -0.60927231907E-01  0.17046268599E+00  0.19729763625E-01 0.  0.
         14    1    1    2    0    0  0.97301802470E-02  0.18705500172E-01  0.11266009136E-01  0.23905963820E-01  0.00000000000E+00 0. -1.
     999901    1    3    3    0    0 -0.94499150047E-01  0.11460000577E+00  0.49661222771E-01  0.84956135019E+00  0.83500000000E+00 0.  1.
        -11    1    4    4    0    0  0.19975400846E-01 -0.42628273739E-01 -0.11030642795E-01  0.48354136973E-01  0.51100000000E-03 0.  1.
         11    1    4    4    0    0  0.64793568954E-01 -0.90677232204E-01 -0.49896589112E-01  0.12210854902E+00  0.51100000000E-03 0. -1.
</event>
<event>
 8    1  0.5616615E+005  0.1043930E+01  0.7957747E-01            NaN
         13   -1    0    0    0    0  0.00000000000E+00  0.00000000000E+00  0.74505805969E-08  0.10566000000E+00  0.10566000000E+00 0.  1.
     999900   -1    0    0    0    0 -0.00000000000E+00 -0.00000000000E+00 -0.74505805969E-08  0.93827000000E+00  0.93827000000E+00 0.  1.
     999902    2    1    2    0    0 -0.18068179819E-01  0.11961519896E-01 -0.95126854682E-02  0.10202650837E+01  0.10199905944E+01 0.  0.
     999903    2    3    3    0    0 -0.10236156916E+00  0.74144688746E-01  0.11196061620E+00  0.16999872246E+00  0.19724612762E-01 0.  0.
         14    1    1    2    0    0  0.18068179819E-01 -0.11961519896E-01  0.95126854682E-02  0.23664916332E-01  0.00000000000E+00 0. -1.
     999901    1    3    3    0    0  0.84293389345E-01 -0.62183168850E-01 -0.12147330167E+00  0.85026636120E+00  0.83500000000E+00 0.  1.
        -11    1    4    4    0    0 -0.63866795813E-01  0.44831534105E-01  0.81438514465E-01  0.11278885945E+00  0.51100000000E-03 0. -1.
         11    1    4    4    0    0 -0.38494773352E-01  0.29313154641E-01  0.30522101736E-01  0.57209863011E-01  0.51100000000E-03 0.  1.
</event>
<event>
 8    1  0.5616615E+005  0.1043930E+01  0.7957747E-01            NaN
         13   -1    0    0    0    0  0.00000000000E+00  0.00000000000E+00  0.74505805969E-08  0.10566000000E+00  0.10566000000E+00 0. -1.
     999900   -1    0    0    0    0 -0.00000000000E+00 -0.00000000000E+00 -0.74505805969E-08  0.93827000000E+00  0.93827000000E+00 0.  1.
     999902    2    1    2    0    0 -0.52410338128E-02 -0.62797016245E-02  0.22000919289E-01  0.10204578135E+01  0.10201878286E+01 0.  0.
     999903    2    3    3    0    0 -0.93878525127E-01  0.28741099310E-01  0.13968077750E+00  0.17183739757E+00  0.19445907836E-01 0.  0.
         14    1    1    2    0    0  0.52410338128E-02  0.62797016245E-02 -0.22000919289E-01  0.23472186466E-01  0.00000000000E+00 0.  1.
     999901    1    3    3    0    0  0.88637491315E-01 -0.35020800935E-01 -0.11767985821E+00  0.84862041596E+00  0.83500000000E+00 0. -1.
        -11    1    4    4    0    0 -0.39273737328E-01  0.21757617278E-01  0.58343031016E-01  0.73620586404E-01  0.51100000000E-03 0. -1.
         11    1    4    4    0    0 -0.54604787800E-01  0.69834820325E-02  0.81337746480E-01  0.98216811165E-01  0.51100000000E-03 0.  1.
</event>
<event>
 8    1  0.5616615E+005  0.1043930E+01  0.7957747E-01            NaN
         13   -1    0    0    0    0  0.00000000000E+00  0.00000000000E+00  0.74505805969E-08  0.10566000000E+00  0.10566000000E+00 0. -1.
     999900   -1    0    0    0    0 -0.00000000000E+00 -0.00000000000E+00 -0.74505805969E-08  0.93827000000E+00  0.93827000000E+00 0. -1.
     999902    2    1    2    0    0 -0.18943455980E-01 -0.94822626398E-02 -0.11278433493E-01  0.10199306064E+01  0.10196482095E+01 0.  0.
     999903    2    3    3    0    0 -0.11034388934E+00 -0.12431183837E+00  0.34593460099E-01  0.17089050061E+00  0.19433184127E-01 0.  0.
         14    1    1    2    0    0  0.18943455980E-01  0.94822626398E-02  0.11278433493E-01  0.23999393561E-01  0.00000000000E+00 0. -1.
     999901    1    3    3    0    0  0.91400433358E-01  0.11482957573E+00 -0.45871893592E-01  0.84904010583E+00  0.83500000000E+00 0. -1.
        -11    1    4    4    0    0 -0.37801557248E-01 -0.47620654527E-01  0.21612188494E-01  0.64529313343E-01  0.51100000000E-03 0. -1.
         11    1    4    4    0    0 -0.72542332090E-01 -0.76691183841E-01  0.12981271605E-01  0.10636118727E+00  0.51100000000E-03 0.  1.
</event>
<event>
 8    1  0.5616615E+005  0.1043930E+01  0.7957747E-01            NaN
         13   -1    0    0    0    0  0.00000000000E+00  0.00000000000E+00  0.74505805969E-08  0.10566000000E+00  0.10566000000E+00 0.  1.
     999900   -1    0    0    0    0 -0.00000000000E+00 -0.00000000000E+00 -0.74505805969E-08  0.93827000000E+00  0.93827000000E+00 0.  1.
     999902    2    1    2    0    0  0.17161850009E-02  0.23035004117E-01  0.64009553867E-02  0.10199606668E+01  0.10196789852E+01 0.  0.
     999903    2    3    3    0    0 -0.72841512670E-01 -0.42275421871E-01 -0.14173745513E+00  0.16614904194E+00  0.20564549343E-01 0.  0.
         14    1    1    2    0    0 -0.17161850009E-02 -0.23035004117E-01 -0.64009553867E-02  0.23969333230E-01  0.00000000000E+00 0.  1.
     999901    1    3    3    0    0  0.74557697671E-01  0.65310425988E-01  0.14813841051E+00  0.85381162483E+00  0.83500000000E+00 0. -1.
        -11    1    4    4    0    0 -0.44555630232E-01 -0.34549428387E-01 -0.10459663986E+00  0.11882586157E+00  0.51100000000E-03 0. -1.
         11    1    4    4    0    0 -0.28285882438E-01 -0.77259934845E-02 -0.37140815269E-01  0.47323180371E-01  0.51100000000E-03 0.  1.
</event>
<event>
 8    1  0.5616615E+005  0.1043930E+01  0.7957747E-01            NaN
         13   -1    0    0    0    0  0.00000000000E+00  0.00000000000E+00  0.74505805969E-08  0.10566000000E+00  0.10566000000E+00 0. -1.
     999900   -1    0    0    0    0 -0.00000000000E+00 -0.00000000000E+00 -0.74505805969E-08  0.93827000000E+00  0.93827000000E+00 0. -1.
     999902    2    1    2    0    0 -0.96793695176E-02  0.20320557098E-01 -0.47226819495E-02  0.10209317618E+01  0.10206726916E+01 0.  0.
     999903    2    3    3    0    0  0.14235502543E+00  0.32898602697E-01  0.80260707422E-01  0.16786679304E+00  0.19753676199E-01 0.  0.
         14    1    1    2    0    0  0.96793695176E-02 -0.20320557098E-01  0.47226819495E-02  0.22998238190E-01  0.00000000000E+00 0. -1.
     999901    1    3    3    0    0 -0.15203439495E+00 -0.12578045598E-01 -0.84983389371E-01  0.85306496877E+00  0.83500000000E+00 0.  1.
        -11    1    4    4    0    0  0.11943824210E+00  0.26396447035E-01  0.58467259421E-01  0.13557635354E+00  0.51100000000E-03 0.  1.
         11    1    4    4    0    0  0.22916783328E-01  0.65021556615E-02  0.21793448001E-01  0.32290439500E-01  0.51100000000E-03 0. -1.
</event>
<event>
 8    1  0.5616615E+005  0.1043930E+01  0.7957747E-01            NaN
         13   -1    0    0    0    0  0.00000000000E+00  0.00000000000E+00  0.74505805969E-08  0.10566000000E+00  0.10566000000E+00 0.  1.
     999900   -1    0    0    0    0 -0.00000000000E+00 -0.00000000000E+00 -0.74505805969E-08  0.93827000000E+00  0.93827000000E+00 0.  1.
     999902    2    1    2    0    0 -0.57575066376E-02  0.21750458593E-01  0.77851995266E-02  0.10201215842E+01  0.10198437164E+01 0.  0.
     999903    2    3    3    0    0 -0.12869175051E+00  0.96004925568E-01  0.56558142188E-01  0.17145772016E+00  0.20503998914E-01 0.  0.
         14    1    1    2    0    0  0.57575066376E-02 -0.21750458593E-01 -0.77851995266E-02  0.23808415809E-01  0.00000000000E+00 0. -1.
     999901    1    3    3    0    0  0.12293424387E+00 -0.74254466975E-01 -0.48772942662E-01  0.84866386403E+00  0.83500000000E+00 0.  1.
        -11    1    4    4    0    0 -0.56752980510E-01  0.29855439822E-01  0.22795529061E-01  0.68059865926E-01  0.51100000000E-03 0. -1.
         11    1    4    4    0    0 -0.71938769998E-01  0.66149485746E-01  0.33762613127E-01  0.10339785423E+00  0.51100000000E-03 0.  1.
</event>
<event>
 8    1  0.5616615E+005  0.1043930E+01  0.7957747E-01            NaN
         13   -1    0    0    0    0  0.00000000000E+00  0.00000000000E+00  0.74505805969E-08  0.10566000000E+00  0.10566000000E+00 0.  1.
     999900   -1    0    0    0    0 -0.00000000000E+00 -0.00000000000E+00 -0.74505805969E-08  0.93827000000E+00  0.93827000000E+00 0. -1.
     999902    2    1    2    0    0  0.10030196036E-01 -0.19514762056E-01  0.90707597826E-02  0.10201874337E+01  0.10199111189E+01 0.  0.
     999903    2    3    3    0    0 -0.43838590922E-01 -0.16379884766E+00  0.11894309435E-01  0.17109808860E+00  0.19524261160E-01 0.  0.
         14    1    1    2    0    0 -0.10030196036E-01  0.19514762056E-01 -0.90707597826E-02  0.23742566282E-01  0.00000000000E+00 0. -1.
     999901    1    3    3    0    0  0.53868786958E-01  0.14428408561E+00 -0.28235496520E-02  0.84908934512E+00  0.83500000000E+00 0.  1.
        -11    1    4    4    0    0 -0.30932069604E-01 -0.95793014649E-01 -0.10836046813E-02  0.10067040233E+00  0.51100000000E-03 0. -1.
         11    1    4    4    0    0 -0.12906521318E-01 -0.68005833015E-01  0.12977914116E-01  0.70427686264E-01  0.51100000000E-03 0.  1.
</event>
<event>
 8    1  0.5616615E+005  0.1043930E+01  0.7957747E-01            NaN
         13   -1    0    0    0    0  0.00000000000E+00  0.00000000000E+00  0.74505805969E-08  0.10566000000E+00  0.10566000000E+00 0.  1.
     999900   -1    0    0    0    0 -0.00000000000E+00 -0.00000000000E+00 -0.74505805969E-08  0.93827000000E+00  0.93827000000E+00 0.  1.
     999902    2    1    2    0    0 -0.27325885673E-01 -0.18618742596E-01 -0.10411360343E-02  0.10108475943E+01  0.10103060988E+01 0.  0.
     999903    2    3    3    0    0 -0.10175338978E+00  0.10198783701E+00 -0.70795367091E-01  0.16103817261E+00  0.12885565816E-01 0.  0.
         14    1    1    2    0    0  0.27325885673E-01  0.18618742596E-01  0.10411360343E-02  0.33082405715E-01  0.00000000000E+00 0.  1.
     999901    1    3    3    0    0  0.74427504108E-01 -0.12060657961E+00  0.69754231056E-01  0.84980942167E+00  0.83500000000E+00 0. -1.
        -11    1    4    4    0    0 -0.42380050086E-01  0.33815747451E-01 -0.25322929831E-01  0.59842170057E-01  0.51100000000E-03 0. -1.
         11    1    4    4    0    0 -0.59373339695E-01  0.68172089562E-01 -0.45472437260E-01  0.10119600256E+00  0.51100000000E-03 0.  1.
</event>
<event>
 8    1  0.5616615E+005  0.1043930E+01  0.7957747E-01            NaN
         13   -1    0    0    0    0  0.00000000000E+00  0.00000000000E+00  0.74505805969E-08  0.10566000000E+00  0.10566000000E+00 0.  1.
     999900   -1    0    0    0    0 -0.00000000000E+00 -0.00000000000E+00 -0.74505805969E-08  0.93827000000E+00  0.93827000000E+00 0.  1.
     999902    2    1    2    0    0 -0.16542662541E-01  0.79017977844E-02 -0.22173955571E-01  0.10151587922E+01  0.10147509995E+01 0.  0.
     999903    2    3    3    0    0  0.12928688261E+00  0.91404051581E-01  0.26951702490E-01  0.16200158928E+00  0.21173615718E-01 0.  0.
         14    1    1    2    0    0  0.16542662541E-01 -0.79017977844E-02  0.22173955571E-01  0.28771207793E-01  0.00000000000E+00 0.  1.
     999901    1    3    3    0    0 -0.14582954515E+00 -0.83502253796E-01 -0.49125658061E-01  0.85315720293E+00  0.83500000000E+00 0.  1.
        -11    1    4    4    0    0  0.21337394148E-01  0.17826486055E-01 -0.30035156188E-02  0.27970524149E-01  0.51100000000E-03 0.  1.
         11    1    4    4    0    0  0.10794948846E+00  0.73577565526E-01  0.29955218109E-01  0.13403106513E+00  0.51100000000E-03 0. -1.
</event>
<event>
 8    1  0.5616615E+005  0.1043930E+01  0.7957747E-01            NaN
         13   -1    0    0    0    0  0.00000000000E+00  0.00000000000E+00  0.74505805969E-08  0.10566000000E+00  0.10566000000E+00 0. -1.
     999900   -1    0    0    0    0 -0.00000000000E+00 -0.00000000000E+00 -0.74505805969E-08  0.93827000000E+00  0.93827000000E+00 0.  1.
     999902    2    1    2    0    0 -0.31208211167E-02 -0.11990451764E-01 -0.19567590739E-01  0.10207696661E+01  0.10205068889E+01 0.  0.
     999903    2    3    3    0    0  0.16620219838E+00  0.13148094301E-01  0.92202559129E-02  0.16791799582E+00  0.17759421995E-01 0.  0.
         14    1    1    2    0    0  0.31208211167E-02  0.11990451764E-01  0.19567590739E-01  0.23160333877E-01  0.00000000000E+00 0. -1.
     999901    1    3    3    0    0 -0.16932301950E+00 -0.25138546065E-01 -0.28787846652E-01  0.85285167031E+00  0.83500000000E+00 0. -1.
        -11    1    4    4    0    0  0.72926104352E-01 -0.28919840081E-02  0.56632077487E-02  0.73204598971E-01  0.51100000000E-03 0.  1.
         11    1    4    4    0    0  0.93276094028E-01  0.16040078309E-01  0.35570481642E-02  0.94713396845E-01  0.51100000000E-03 0. -1.
</event>
<event>
 8    1  0.5616615E+005  0.1043930E+01  0.7957747E-01            NaN
         13   -1    0    0    0    0  0.00000000000E+00  0.00000000000E+00  0.74505805969E-08  0.10566000000E+00  0.10566000000E+00 0. -1.
     999900   -1    0    0    0    0 -0.00000000000E+00 -0.00000000000E+00 -0.74505805969E-08  0.93827000000E+00  0.93827000000E+00 0.  1.
     999902    2    1    2    0    0  0.55297119178E-02  0.17380543018E-01 -0.14011458232E-01  0.10209303924E+01  0.10206712909E+01 0.  0.
     999903    2    3    3    0    0  0.12100134327E+00 -0.47694947908E-01 -0.10832681242E+00  0.17023132501E+00  0.18107252542E-01 0.  0.
         14    1    1    2    0    0 -0.55297119178E-02 -0.17380543018E-01  0.14011458232E-01  0.22999607633E-01  0.00000000000E+00 0.  1.
     999901    1    3    3    0    0 -0.11547163136E+00  0.65075490926E-01  0.94315354191E-01  0.85069906736E+00  0.83500000000E+00 0.  1.
        -11    1    4    4    0    0  0.68853258773E-01 -0.25105519423E-01 -0.72252704403E-01  0.10291633866E+00  0.51100000000E-03 0. -1.
         11    1    4    4    0    0  0.52148084501E-01 -0.22589428485E-01 -0.36074108020E-01  0.67314986347E-01  0.51100000000E-03 0.  1.
</event>
<event>
 8    1  0.5842993E+005  0.1043930E+01  0.7957747E-01            NaN
         13   -1    0    0    0    0  0.00000000000E+00  0.00000000000E+00  0.74505805969E-08  0.10566000000E+00  0.10566000000E+00 0. -1.
     999900   -1    0    0    0    0 -0.00000000000E+00 -0.00000000000E+00 -0.74505805969E-08  0.93827000000E+00  0.93827000000E+00 0. -1.
     999902    2    1    2    0    0 -0.23338071586E-01 -0.74423982244E-02  0.15750944794E-01  0.10148070342E+01  0.10143890622E+01 0.  0.
     999903    2    3    3    0    0  0.58007183512E-01  0.97333905483E-01  0.11585981915E+00  0.16343055395E+00  0.21150077485E-01 0.  0.
         14    1    1    2    0    0  0.23338071586E-01  0.74423982244E-02 -0.15750944794E-01  0.29122965827E-01  0.00000000000E+00 0.  1.
     999901    1    3    3    0    0 -0.81345255098E-01 -0.10477630371E+00 -0.10010887435E+00  0.85137648022E+00  0.83500000000E+00 0.  1.
        -11    1    4    4    0    0  0.34807164145E-01  0.76368777143E-01  0.81975091861E-01  0.11731967271E+00  0.51100000000E-03 0. -1.
         11    1    4    4    0    0  0.23200019367E-01  0.20965128340E-01  0.33884727284E-01  0.46110881244E-01  0.51100000000E-03 0.  1.
</event>
<event>
 8    1  0.5616615E+005  0.1043930E+01  0.7957747E-01            NaN
         13   -1    0    0    0    0  0.00000000000E+00  0.00000000000E+00  0.74505805969E-08  0.10566000000E+00  0.10566000000E+00 0. -1.
     999900   -1    0    0    0    0 -0.00000000000E+00 -0.00000000000E+00 -0.74505805969E-08  0.93827000000E+00  0.93827000000E+00 0.  1.
     999902    2    1    2    0    0  0.42383979802E-02  0.17798121017E-01  0.15501321446E-01  0.10199502566E+01  0.10196683273E+01 0.  0.
     999903    2    3    3    0    0  0.56742269241E-01 -0.11779138672E+00  0.10335982993E+00  0.16784387316E+00  0.19844782980E-01 0.  0.
         14    1    1    2    0    0 -0.42383979802E-02 -0.17798121017E-01 -0.15501321446E-01  0.23979743446E-01  0.00000000000E+00 0.  1.
     999901    1    3    3    0    0 -0.52503871261E-01  0.13558950774E+00 -0.87858508480E-01  0.85210638339E+00  0.83500000000E+00 0.  1.
        -11    1    4    4    0    0  0.53223210600E-01 -0.96251121789E-01  0.81014457790E-01  0.13660377771E+00  0.51100000000E-03 0.  1.
         11    1    4    4    0    0  0.35190586405E-02 -0.21540264931E-01  0.22345372137E-01  0.31240095453E-01  0.51100000000E-03 0. -1.
</event>
<event>
 8    1  0.5616615E+005  0.1043930E+01  0.7957747E-01            NaN
         13   -1    0    0    0    0  0.00000000000E+00  0.00000000000E+00  0.74505805969E-08  0.10566000000E+00  0.10566000000E+00 0. -1.
     999900   -1    0    0    0    0 -0.00000000000E+00 -0.00000000000E+00 -0.74505805969E-08  0.93827000000E+00  0.93827000000E+00 0.  1.
     999902    2    1    2    0    0  0.21936336919E-02  0.24230679065E-01  0.15828545948E-02  0.10195487928E+01  0.10192572284E+01 0.  0.
     999903    2    3    3    0    0  0.68799430974E-02  0.11011131979E+00 -0.12809435318E+00  0.17017336097E+00  0.19467231576E-01 0.  0.
         14    1    1    2    0    0 -0.21936336919E-02 -0.24230679065E-01 -0.15828545948E-02  0.24381207218E-01  0.00000000000E+00 0.  1.
     999901    1    3    3    0    0 -0.46863094055E-02 -0.85880640729E-01  0.12967720777E+00  0.84937543181E+00  0.83500000000E+00 0. -1.
        -11    1    4    4    0    0  0.39946625341E-03  0.22875958534E-01 -0.15718120230E-01  0.27763095589E-01  0.51100000000E-03 0.  1.
         11    1    4    4    0    0  0.64804768440E-02  0.87235361260E-01 -0.11237623295E+00  0.14241026538E+00  0.51100000000E-03 0. -1.
</event>
<event>
 8    1  0.5616615E+005  0.1043930E+01  0.7957747E-01            NaN
         13   -1    0    0    0    0  0.00000000000E+00  0.00000000000E+00  0.74505805969E-08  0.10566000000E+00  0.10566000000E+00 0. -1.
     999900   -1    0    0    0    0 -0.00000000000E+00 -0.00000000000E+00 -0.74505805969E-08  0.93827000000E+00  0.93827000000E+00 0. -1.
     999902    2    1    2    0    0  0.95069510750E-02 -0.57328963905E-02 -0.20729549828E-01  0.10204148463E+01  0.10201438604E+01 0.  0.
     999903    2    3    3    0    0 -0.90938910417E-01 -0.84670813817E-01 -0.11548332742E+00  0.17040082033E+00  0.16155758003E-01 0.  0.
         14    1    1    2    0    0 -0.95069510750E-02  0.57328963905E-02  0.20729549828E-01  0.23515153749E-01  0.00000000000E+00 0. -1.
     999901    1    3    3    0    0  0.10044586149E+00  0.78937917426E-01  0.94753777591E-01  0.85001402592E+00  0.83500000000E+00 0.  1.
        -11    1    4    4    0    0 -0.35844599820E-01 -0.44018904278E-01 -0.49730424894E-01  0.75471024581E-01  0.51100000000E-03 0. -1.
         11    1    4    4    0    0 -0.55094310597E-01 -0.40651909539E-01 -0.65752902524E-01  0.94929795748E-01  0.51100000000E-03 0.  1.
</event>
<event>
 8    1  0.5616615E+005  0.1043930E+01  0.7957747E-01            NaN
         13   -1    0    0    0    0  0.00000000000E+00  0.00000000000E+00  0.74505805969E-08  0.10566000000E+00  0.10566000000E+00 0.  1.
     999900   -1    0    0    0    0 -0.00000000000E+00 -0.00000000000E+00 -0.74505805969E-08  0.93827000000E+00  0.93827000000E+00 0.  1.
     999902    2    1    2    0    0 -0.65581377536E-02  0.12175775631E-01 -0.91158958819E-02  0.10273662371E+01  0.10272327034E+01 0.  0.
     999903    2    3    3    0    0 -0.20339256268E-01 -0.16133494758E+00  0.54441746927E-01  0.17205315745E+00  0.13990515512E-01 0.  0.
         14    1    1    2    0    0  0.65581377536E-02 -0.12175775631E-01  0.91158958819E-02  0.16563762880E-01  0.00000000000E+00 0.  1.
     999901    1    3    3    0    0  0.13781118514E-01  0.17351072321E+00 -0.63557642808E-01  0.85531307967E+00  0.83500000000E+00 0. -1.
        -11    1    4    4    0    0 -0.72530069201E-03 -0.48024938098E-01  0.19782967007E-01  0.51947547055E-01  0.51100000000E-03 0. -1.
         11    1    4    4    0    0 -0.19613955576E-01 -0.11331000948E+00  0.34658779919E-01  0.12010561039E+00  0.51100000000E-03 0.  1.
</event>
<event>
 8    1  0.5616615E+005  0.1043930E+01  0.7957747E-01            NaN
         13   -1    0    0    0    0  0.00000000000E+00  0.00000000000E+00  0.74505805969E-08  0.10566000000E+00  0.10566000000E+00 0.  1.
     999900   -1    0    0    0    0 -0.00000000000E+00 -0.00000000000E+00 -0.74505805969E-08  0.93827000000E+00  0.93827000000E+00 0.  1.
     999902    2    1    2    0    0 -0.21573627995E-01 -0.45556492703E-02 -0.59930756740E-02  0.10210806604E+01  0.10208249716E+01 0.  0.
     999903    2    3    3    0    0  0.29981282218E-01  0.15967309025E+00 -0.37372559481E-01  0.16794605221E+00  0.20366521956E-01 0.  0.
         14    1    1    2    0    0  0.21573627995E-01  0.45556492703E-02  0.59930756740E-02  0.22849339623E-01  0.00000000000E+00 0.  1.
     999901    1    3    3    0    0 -0.51554910213E-01 -0.16422873952E+00  0.31379483807E-01  0.85313460817E+00  0.83500000000E+00 0.  1.
        -11    1    4    4    0    0  0.23560378381E-01  0.75367610591E-01 -0.13721752544E-01  0.80149334181E-01  0.51100000000E-03 0.  1.
         11    1    4    4    0    0  0.64209038365E-02  0.84305479659E-01 -0.23650806938E-01  0.87796718028E-01  0.51100000000E-03 0. -1.
</event>
<event>
 8    1  0.5616615E+005  0.1043930E+01  0.7957747E-01            NaN
         13   -1    0    0    0    0  0.00000000000E+00  0.00000000000E+00  0.74505805969E-08  0.10566000000E+00  0.10566000000E+00 0. -1.
     999900   -1    0    0    0    0 -0.00000000000E+00 -0.00000000000E+00 -0.74505805969E-08  0.93827000000E+00  0.93827000000E+00 0. -1.
     999902    2    1    2    0    0 -0.21267684849E-02 -0.19035120750E-01 -0.65122608388E-02  0.10236996143E+01  0.10234996980E+01 0.  0.
     999903    2    3    3    0    0 -0.85923368299E-01 -0.12624910412E-01  0.14576714197E+00  0.17077700495E+00  0.19352316698E-01 0.  0.
         14    1    1    2    0    0  0.21267684849E-02  0.19035120750E-01  0.65122608388E-02  0.20230385745E-01  0.00000000000E+00 0. -1.
     999901    1    3    3    0    0  0.83796599814E-01 -0.64102103383E-02 -0.15227940280E+00  0.85292260930E+00  0.83500000000E+00 0.  1.
        -11    1    4    4    0    0 -0.52084537366E-01  0.13433908335E-02  0.79118661725E-01  0.94734510532E-01  0.51100000000E-03 0. -1.
         11    1    4    4    0    0 -0.33838830932E-01 -0.13968301245E-01  0.66648480241E-01  0.76042494422E-01  0.51100000000E-03 0.  1.
</event>
<event>
 8    1  0.5616615E+005  0.1043930E+01  0.7957747E-01            NaN
         13   -1    0    0    0    0  0.00000000000E+00  0.00000000000E+00  0.74505805969E-08  0.10566000000E+00  0.10566000000E+00 0. -1.
     999900   -1    0    0    0    0 -0.00000000000E+00 -0.00000000000E+00 -0.74505805969E-08  0.93827000000E+00  0.93827000000E+00 0.  1.
     999902    2    1    2    0    0  0.99026324885E-02  0.77509086802E-02  0.20515028858E-01  0.10198674747E+01  0.10195835722E+01 0.  0.
     999903    2    3    3    0    0 -0.44165662238E-01 -0.11018641440E+00 -0.11211144957E+00  0.16450358987E+00  0.20020047834E-01 0.  0.
         14    1    1    2    0    0 -0.99026324885E-02 -0.77509086802E-02 -0.20515028858E-01  0.24062525317E-01  0.00000000000E+00 0.  1.
     999901    1    3    3    0    0  0.54068294726E-01  0.11793732308E+00  0.13262647843E+00  0.85536388482E+00  0.83500000000E+00 0.  1.
        -11    1    4    4    0    0 -0.25926017397E-01 -0.60837703200E-01 -0.48832706338E-01  0.82208751590E-01  0.51100000000E-03 0. -1.
         11    1    4    4    0    0 -0.18239644841E-01 -0.49348711199E-01 -0.63278743231E-01  0.82294838276E-01  0.51100000000E-03 0.  1.
</event>
<event>
 8    1  0.5616615E+005  0.1043930E+01  0.7957747E-01            NaN
         13   -1    0    0    0    0  0.00000000000E+00  0.00000000000E+00  0.74505805969E-08  0.10566000000E+00  0.10566000000E+00 0. -1.
     999900   -1    0    0    0    0 -0.00000000000E+00 -0.00000000000E+00 -0.74505805969E-08  0.93827000000E+00  0.93827000000E+00 0. -1.
     999902    2    1    2    0    0  0.16317568962E-01  0.15269882322E-01 -0.83419890836E-02  0.10200758359E+01  0.10197968866E+01 0.  0.
     999903    2    3    3    0    0  0.15164752912E+00 -0.72482448423E-01  0.79586118218E-02  0.16948464193E+00  0.20273774515E-01 0.  0.
         14    1    1    2    0    0 -0.16317568962E-01 -0.15269882322E-01  0.83419890836E-02  0.23854164098E-01  0.00000000000E+00 0. -1.
     999901    1    3    3    0    0 -0.13532996015E+00  0.87752330745E-01 -0.16300600905E-01  0.85059119397E+00  0.83500000000E+00 0. -1.
        -11    1    4    4    0    0  0.60650141623E-01 -0.27910093496E-01 -0.67004896893E-02  0.67101197314E-01  0.51100000000E-03 0.  1.
         11    1    4    4    0    0  0.90997387492E-01 -0.44572354927E-01  0.14659101511E-01  0.10238344462E+00  0.51100000000E-03 0. -1.
</event>
<event>
 8    1  0.5616615E+005  0.1043930E+01  0.7957747E-01            NaN
         13   -1    0    0    0    0  0.00000000000E+00  0.00000000000E+00  0.74505805969E-08  0.10566000000E+00  0.10566000000E+00 0.  1.
     999900   -1    0    0    0    0 -0.00000000000E+00 -0.00000000000E+00 -0.74505805969E-08  0.93827000000E+00  0.93827000000E+00 0. -1.
     999902    2    1    2    0    0 -0.21716191822E-01 -0.29317628029E-02  0.78258223686E-02  0.10206613147E+01  0.10203960445E+01 0.  0.
     999903    2    3    3    0    0  0.11101439430E+00  0.90954640066E-01 -0.79584897857E-01  0.16550185637E+00  0.21451484904E-01 0.  0.
         14    1    1    2    0    0  0.21716191822E-01  0.29317628029E-02 -0.78258223686E-02  0.23268685312E-01  0.00000000000E+00 0. -1.
     999901    1    3    3    0    0 -0.13273058612E+00 -0.93886402869E-01  0.87410720226E-01  0.85515945832E+00  0.83500000000E+00 0.  1.
        -11    1    4    4    0    0  0.98724406024E-01  0.74157794899E-01 -0.73979105650E-01  0.14394115493E+00  0.51100000000E-03 0. -1.
         11    1    4    4    0    0  0.12289988276E-01  0.16796845168E-01 -0.56057922069E-02  0.21560701442E-01  0.51100000000E-03 0.  1.
</event>
<event>
 8    1  0.5616615E+005  0.1043930E+01  0.7957747E-01            NaN
         13   -1    0    0    0    0  0.00000000000E+00  0.00000000000E+00  0.74505805969E-08  0.10566000000E+00  0.10566000000E+00 0. -1.
     999900   -1    0    0    0    0 -0.00000000000E+00 -0.00000000000E+00 -0.74505805969E-08  0.93827000000E+00  0.93827000000E+00 0.  1.
     999902    2    1    2    0    0  0.16715730948E-01  0.58370182194E-02 -0.15787178237E-01  0.10202082497E+01  0.10199324248E+01 0.  0.
     999903    2    3    3    0    0 -0.11780918212E+00 -0.10197974689E-01  0.11207172674E+00  0.16468094277E+00  0.24015388812E-01 0.  0.
         14    1    1    2    0    0 -0.16715730948E-01 -0.58370182194E-02  0.15787178237E-01  0.23721750347E-01  0.00000000000E+00 0. -1.
     999901    1    3    3    0    0  0.13452491307E+00  0.16034992909E-01 -0.12785890497E+00  0.85552730688E+00  0.83500000000E+00 0.  1.
        -11    1    4    4    0    0 -0.30916133271E-01  0.28907780909E-02  0.42297825632E-01  0.52474099026E-01  0.51100000000E-03 0.  1.
         11    1    4    4    0    0 -0.86893048850E-01 -0.13088752780E-01  0.69773901105E-01  0.11220684375E+00  0.51100000000E-03 0. -1.
</event>
<event>
 8    1  0.5616615E+005  0.1043930E+01  0.7957747E-01            NaN
         13   -1    0    0    0    0  0.00000000000E+00  0.00000000000E+00  0.74505805969E-08  0.10566000000E+00  0.10566000000E+00 0.  1.
     999900   -1    0    0    0    0 -0.00000000000E+00 -0.00000000000E+00 -0.74505805969E-08  0.93827000000E+00  0.93827000000E+00 0.  1.
     999902    2    1    2    0    0  0.99246494362E-02  0.19863060758E-01 -0.83446063199E-02  0.10202092853E+01  0.10199334849E+01 0.  0.
     999903    2    3    3    0    0 -0.15711902051E+00  0.36400546233E-01  0.39130005253E-01  0.16718178588E+00  0.20179342114E-01 0.  0.
         14    1    1    2    0    0 -0.99246494362E-02 -0.19863060758E-01  0.83446063199E-02  0.23720714655E-01  0.00000000000E+00 0. -1.
     999901    1    3    3    0    0  0.16704366995E+00 -0.16537485475E-01 -0.47474611573E-01  0.85302749946E+00  0.83500000000E+00 0.  1.
        -11    1    4    4    0    0 -0.99487847317E-01  0.32408199125E-01  0.28425259912E-01  0.10842684011E+00  0.51100000000E-03 0. -1.
         11    1    4    4    0    0 -0.57631173192E-01  0.39923471084E-02  0.10704745341E-01  0.58754945773E-01  0.51100000000E-03 0.  1.
</event>
<event>
 8    1  0.5616615E+005  0.1043930E+01  0.7957747E-01            NaN
         13   -1    0    0    0    0  0.00000000000E+00  0.00000000000E+00  0.74505805969E-08  0.10566000000E+00  0.10566000000E+00 0. -1.
     999900   -1    0    0    0    0 -0.00000000000E+00 -0.00000000000E+00 -0.74505805969E-08  0.93827000000E+00  0.93827000000E+00 0. -1.
     999902    2    1    2    0    0 -0.15357600725E-01 -0.17051291602E-01 -0.57623171476E-02  0.10202697645E+01  0.10199953851E+01 0.  0.
     999903    2    3    3    0    0 -0.16029563028E+00  0.36397428001E-01 -0.40733341698E-01  0.17038049488E+00  0.18730885153E-01 0.  0.
         14    1    1    2    0    0  0.15357600725E-01  0.17051291602E-01  0.57623171476E-02  0.23660235507E-01  0.00000000000E+00 0. -1.
     999901    1    3    3    0    0  0.14493802956E+00 -0.53448719604E-01  0.34971024551E-01  0.84988926961E+00  0.83500000000E+00 0. -1.
        -11    1    4    4    0    0 -0.97270821030E-01  0.29832806034E-01 -0.30295352314E-01  0.10615874167E+00  0.51100000000E-03 0.  1.
         11    1    4    4    0    0 -0.63024809251E-01  0.65646219671E-02 -0.10437989385E-01  0.64221753216E-01  0.51100000000E-03 0. -1.
</event>
<event>
 8    1  0.5616615E+005  0.1043930E+01  0.7957747E-01            NaN
         13   -1    0    0    0    0  0.00000000000E+00  0.00000000000E+00  0.74505805969E-08  0.10566000000E+00  0.10566000000E+00 0.  1.
     999900   -1    0    0    0    0 -0.00000000000E+00 -0.00000000000E+00 -0.74505805969E-08  0.93827000000E+00  0.93827000000E+00 0.  1.
     999902    2    1    2    0    0  0.45857614006E-02  0.22447825898E-01 -0.65657343182E-02  0.10200963481E+01  0.10198178840E+01 0.  0.
     999903    2    3    3    0    0 -0.69830194482E-01  0.15443036081E+00  0.17406154063E-01  0.17112239360E+00  0.15965806924E-01 0.  0.
         14    1    1    2    0    0 -0.45857614006E-02 -0.22447825898E-01  0.65657343182E-02  0.23833651888E-01  0.00000000000E+00 0.  1.
     999901    1    3    3    0    0  0.74415955883E-01 -0.13198253491E+00 -0.23971888381E-01  0.84897395451E+00  0.83500000000E+00 0.  1.
        -11    1    4    4    0    0 -0.26612601890E-01  0.74844838754E-01  0.12606142239E-01  0.80431066203E-01  0.51100000000E-03 0. -1.
         11    1    4    4    0    0 -0.43217592592E-01  0.79585522054E-01  0.48000118235E-02  0.90691327395E-01  0.51100000000E-03 0.  1.
</event>
<event>
 8    1  0.5616615E+005  0.1043930E+01  0.7957747E-01            NaN
         13   -1    0    0    0    0  0.00000000000E+00  0.00000000000E+00  0.74505805969E-08  0.10566000000E+00  0.10566000000E+00 0.  1.
     999900   -1    0    0    0    0 -0.00000000000E+00 -0.00000000000E+00 -0.74505805969E-08  0.93827000000E+00  0.93827000000E+00 0.  1.
     999902    2    1    2    0    0 -0.18131026602E-01 -0.12687461265E-01  0.83653668773E-02  0.10202723340E+01  0.10199980149E+01 0.  0.
     999903    2    3    3    0    0 -0.82633213564E-01 -0.14064542399E+00  0.50651049292E-01  0.17201125901E+00  0.20321445790E-01 0.  0.
         14    1    1    2    0    0  0.18131026602E-01  0.12687461265E-01 -0.83653668773E-02  0.23657666030E-01  0.00000000000E+00 0.  1.
     999901    1    3    3    0    0  0.64502186961E-01  0.12795796273E+00 -0.42285682415E-01  0.84826107496E+00  0.83500000000E+00 0.  1.
        -11    1    4    4    0    0 -0.69099770860E-01 -0.10513748188E+00  0.44849361351E-01  0.13356794063E+00  0.51100000000E-03 0.  1.
         11    1    4    4    0    0 -0.13533442704E-01 -0.35507942115E-01  0.58016879407E-02  0.38443318387E-01  0.51100000000E-03 0. -1.
</event>
<event>
 8    1  0.5616615E+005  0.1043930E+01  0.7957747E-01            NaN
         13   -1    0    0    0    0  0.00000000000E+00  0.00000000000E+00  0.74505805969E-08  0.10566000000E+00  0.10566000000E+00 0. -1.
     999900   -1    0    0    0    0 -0.00000000000E+00 -0.00000000000E+00 -0.74505805969E-08  0.93827000000E+00  0.93827000000E+00 0. -1.
     999902    2    1    2    0    0  0.21175143290E-01 -0.76064790461E-02 -0.19912052441E-01  0.10138844504E+01  0.10134391663E+01 0.  0.
     999903    2    3    3    0    0 -0.11398929739E+00 -0.58457403356E-01  0.92351132117E-01  0.15908431874E+00  0.19190126043E-01 0.  0.
         14    1    1    2    0    0 -0.21175143290E-01  0.76064790461E-02  0.19912052441E-01  0.30045549575E-01  0.00000000000E+00 0. -1.
     999901    1    3    3    0    0  0.13516444068E+00  0.50850924309E-01 -0.11226318456E+00  0.85480013169E+00  0.83500000000E+00 0. -1.
        -11    1    4    4    0    0 -0.53166369892E-01 -0.18978817523E-01  0.47844719657E-01  0.74001599456E-01  0.51100000000E-03 0. -1.
         11    1    4    4    0    0 -0.60822927500E-01 -0.39478585832E-01  0.44506412460E-01  0.85082719280E-01  0.51100000000E-03 0.  1.
</event>
<event>
 8    1  0.5616615E+005  0.1043930E+01  0.7957747E-01            NaN
         13   -1    0    0    0    0  0.00000000000E+00  0.00000000000E+00  0.74505805969E-08  0.10566000000E+00  0.10566000000E+00 0. -1.
     999900   -1    0    0    0    0 -0.00000000000E+00 -0.00000000000E+00 -0.74505805969E-08  0.93827000000E+00  0.93827000000E+00 0. -1.
     999902    2    1    2    0    0  0.22958580769E-01  0.45363892902E-02  0.34237198460E-02  0.10202784225E+01  0.10200042463E+01 0.  0.
     999903    2    3    3    0    0  0.14201824895E+00 -0.70050815511E-01 -0.61538782632E-01  0.17105313886E+00  0.19896099049E-01 0.  0.
         14    1    1    2    0    0 -0.22958580769E-01 -0.45363892902E-02 -0.34237198460E-02  0.23651577459E-01  0.00000000000E+00 0.  1.
     999901    1    3    3    0    0 -0.11905966819E+00  0.74587204801E-01  0.64962502478E-01  0.84922528368E+00  0.83500000000E+00 0. -1.
        -11    1    4    4    0    0  0.64974303915E-01 -0.43083728728E-01 -0.30963899301E-01  0.83886184984E-01  0.51100000000E-03 0.  1.
         11    1    4    4    0    0  0.77043945040E-01 -0.26967086783E-01 -0.30574883331E-01  0.87166953879E-01  0.51100000000E-03 0. -1.
</event>
<event>
 8    1  0.5616615E+005  0.1043930E+01  0.7957747E-01            NaN
         13   -1    0    0    0    0  0.00000000000E+00  0.00000000000E+00  0.74505805969E-08  0.10566000000E+00  0.10566000000E+00 0. -1.
     999900   -1    0    0    0    0 -0.00000000000E+00 -0.00000000000E+00 -0.74505805969E-08  0.93827000000E+00  0.93827000000E+00 0.  1.
     999902    2    1    2    0    0 -0.31843880193E-02 -0.18291336321E-01 -0.14504063528E-01  0.10203698393E+01  0.10200978031E+01 0.  0.
     999903    2    3    3    0    0  0.14647817726E+00 -0.31004456764E-01 -0.77032051010E-01  0.16966703807E+00  0.20876641776E-01 0.  0.
         14    1    1    2    0    0  0.31843880193E-02  0.18291336321E-01  0.14504063528E-01  0.23560160659E-01  0.00000000000E+00 0. -1.
     999901    1    3    3    0    0 -0.14966256528E+00  0.12713120444E-01  0.62527987482E-01  0.85070280127E+00  0.83500000000E+00 0. -1.
        -11    1    4    4    0    0  0.48759986902E-01 -0.80722011457E-02 -0.14919052888E-01  0.51628829293E-01  0.51100000000E-03 0.  1.
         11    1    4    4    0    0  0.97718190355E-01 -0.22932255619E-01 -0.62112998122E-01  0.11803820877E+00  0.51100000000E-03 0. -1.
</event>
<event>
 8    1  0.5616615E+005  0.1043930E+01  0.7957747E-01            NaN
         13   -1    0    0    0    0  0.00000000000E+00  0.00000000000E+00  0.74505805969E-08  0.10566000000E+00  0.10566000000E+00 0. -1.
     999900   -1    0    0    0    0 -0.00000000000E+00 -0.00000000000E+00 -0.74505805969E-08  0.93827000000E+00  0.93827000000E+00 0.  1.
     999902    2    1    2    0    0 -0.18846196808E-01  0.12425260201E-01 -0.55559699618E-02  0.10206827415E+01  0.10204179652E+01 0.  0.
     999903    2    3    3    0    0  0.12097927493E+00  0.34947929086E-01 -0.10918870837E+00  0.16743999901E+00  0.16019878937E-01 0.  0.
         14    1    1    2    0    0  0.18846196808E-01 -0.12425260201E-01  0.55559699618E-02  0.23247258492E-01  0.00000000000E+00 0. -1.
     999901    1    3    3    0    0 -0.13982547174E+00 -0.22522668885E-01  0.10363273841E+00  0.85324274250E+00  0.83500000000E+00 0. -1.
        -11    1    4    4    0    0  0.44409123379E-01  0.62208689970E-02 -0.44359806004E-01  0.63078704490E-01  0.51100000000E-03 0. -1.
         11    1    4    4    0    0  0.76570151550E-01  0.28727060089E-01 -0.64828902370E-01  0.10436129452E+00  0.51100000000E-03 0.  1.
</event>
<event>
 8    1  0.5616615E+005  0.1043930E+01  0.7957747E-01            NaN
         13   -1    0    0    0    0  0.00000000000E+00  0.00000000000E+00  0.74505805969E-08  0.10566000000E+00  0.10566000000E+00 0. -1.
     999900   -1    0    0    0    0 -0.00000000000E+00 -0.00000000000E+00 -0.74505805969E-08  0.93827000000E+00  0.93827000000E+00 0.  1.
     999902    2    1    2    0    0 -0.26527708203E-02 -0.17947750131E-01  0.13550079000E-01  0.10212857166E+01  0.10210346475E+01 0.  0.
     999903    2    3    3    0    0 -0.12073634009E+00 -0.11764408695E+00  0.27262311688E-01  0.17199417999E+00  0.20527281859E-01 0.  0.
         14    1    1    2    0    0  0.26527708203E-02  0.17947750131E-01 -0.13550079000E-01  0.22644283356E-01  0.00000000000E+00 0.  1.
     999901    1    3    3    0    0  0.11808356927E+00  0.99696336818E-01 -0.13712232687E-01  0.84929153665E+00  0.83500000000E+00 0. -1.
        -11    1    4    4    0    0 -0.54970867745E-01 -0.67860566092E-01  0.13652057955E-01  0.88393962115E-01  0.51100000000E-03 0.  1.
         11    1    4    4    0    0 -0.65765472341E-01 -0.49783520858E-01  0.13610253733E-01  0.83600217876E-01  0.51100000000E-03 0. -1.
</event>
<event>
 8    1  0.5616615E+005  0.1043930E+01  0.7957747E-01            NaN
         13   -1    0    0    0    0  0.00000000000E+00  0.00000000000E+00  0.74505805969E-08  0.10566000000E+00  0.10566000000E+00 0.  1.
     999900   -1    0    0    0    0 -0.00000000000E+00 -0.00000000000E+00 -0.74505805969E-08  0.93827000000E+00  0.93827000000E+00 0.  1.
     999902    2    1    2    0    0  0.92360281771E-02  0.48885280733E-02  0.21006208078E-01  0.10204680585E+01  0.10201983119E+01 0.  0.
     999903    2    3    3    0    0  0.67760247510E-01 -0.95059656433E-01 -0.11663052407E+00  0.16631140194E+00  0.20712649399E-01 0.  0.
         14    1    1    2    0    0 -0.92360281771E-02 -0.48885280733E-02 -0.21006208078E-01  0.23461941544E-01  0.00000000000E+00 0. -1.
     999901    1    3    3    0    0 -0.58524219333E-01  0.99948184506E-01  0.13763673215E+00  0.85415665652E+00  0.83500000000E+00 0. -1.
        -11    1    4    4    0    0  0.42402330111E-01 -0.71324090391E-01 -0.72813324976E-01  0.11039531188E+00  0.51100000000E-03 0. -1.
         11    1    4    4    0    0  0.25357917398E-01 -0.23735566042E-01 -0.43817199099E-01  0.55916090063E-01  0.51100000000E-03 0.  1.
</event>
<event>
 8    1  0.5616615E+005  0.1043930E+01  0.7957747E-01            NaN
         13   -1    0    0    0    0  0.00000000000E+00  0.00000000000E+00  0.74505805969E-08  0.10566000000E+00  0.10566000000E+00 0.  1.
     999900   -1    0    0    0    0 -0.00000000000E+00 -0.00000000000E+00 -0.74505805969E-08  0.93827000000E+00  0.93827000000E+00 0.  1.
     999902    2    1    2    0    0  0.60163434368E-03  0.23266692568E-02  0.23336240684E-01  0.10204703435E+01  0.10202006501E+01 0.  0.
     999903    2    3    3    0    0  0.59880849442E-01  0.13442461370E+00  0.84391952133E-01  0.17081353504E+00  0.19989228806E-01 0.  0.
         14    1    1    2    0    0 -0.60163434368E-03 -0.23266692568E-02 -0.23336240684E-01  0.23459656497E-01  0.00000000000E+00 0. -1.
     999901    1    3    3    0    0 -0.59279215098E-01 -0.13209794445E+00 -0.61055711449E-01  0.84965680846E+00  0.83500000000E+00 0.  1.
        -11    1    4    4    0    0  0.38675214016E-01  0.70699070364E-01  0.54580515921E-01  0.97331518886E-01  0.51100000000E-03 0. -1.
         11    1    4    4    0    0  0.21205635426E-01  0.63725543340E-01  0.29811436211E-01  0.73482016152E-01  0.51100000000E-03 0.  1.
</event>
<event>
 8    1  0.5616615E+005  0.1043930E+01  0.7957747E-01            NaN
         13   -1    0    0    0    0  0.00000000000E+00  0.00000000000E+00  0.74505805969E-08  0.10566000000E+00  0.10566000000E+00 0. -1.
     999900   -1    0    0    0    0 -0.00000000000E+00 -0.00000000000E+00 -0.74505805969E-08  0.93827000000E+00  0.93827000000E+00 0.  1.
     999902    2    1    2    0    0 -0.23397160393E-01  0.20631669200E-03  0.35777520181E-02  0.10202599770E+01  0.10199853678E+01 0.  0.
     999903    2    3    3    0    0 -0.29381052112E-01 -0.12665987043E+00  0.10659041914E+00  0.16939721131E+00  0.20686438670E-01 0.  0.
         14    1    1    2    0    0  0.23397160393E-01 -0.20631669200E-03 -0.35777520181E-02  0.23670023036E-01  0.00000000000E+00 0. -1.
     999901    1    3    3    0    0  0.59838917191E-02  0.12686618712E+00 -0.10301266712E+00  0.85086276566E+00  0.83500000000E+00 0.  1.
        -11    1    4    4    0    0 -0.78045963236E-02 -0.71942355545E-01  0.65885348981E-01  0.97866003170E-01  0.51100000000E-03 0.  1.
         11    1    4    4    0    0 -0.21576455788E-01 -0.54717514885E-01  0.40705070161E-01  0.71531208136E-01  0.51100000000E-03 0. -1.
</event>
<event>
 8    1  0.5616615E+005  0.1043930E+01  0.7957747E-01            NaN
         13   -1    0    0    0    0  0.00000000000E+00  0.00000000000E+00  0.74505805969E-08  0.10566000000E+00  0.10566000000E+00 0. -1.
     999900   -1    0    0    0    0 -0.00000000000E+00 -0.00000000000E+00 -0.74505805969E-08  0.93827000000E+00  0.93827000000E+00 0.  1.
     999902    2    1    2    0    0  0.12954246620E-01 -0.19874947492E-01  0.34589243265E-02  0.10199552174E+01  0.10196734062E+01 0.  0.
     999903    2    3    3    0    0 -0.80129584252E-01  0.10477308265E+00 -0.95690047815E-01  0.16481940967E+00  0.24712414512E-01 0.  0.
         14    1    1    2    0    0 -0.12954246620E-01  0.19874947492E-01 -0.34589243265E-02  0.23974782602E-01  0.00000000000E+00 0. -1.
     999901    1    3    3    0    0  0.93083830872E-01 -0.12464803014E+00  0.99148972142E-01  0.85513580773E+00  0.83500000000E+00 0.  1.
        -11    1    4    4    0    0 -0.10641970247E-01  0.29730520918E-01 -0.27689185992E-01  0.42001280298E-01  0.51100000000E-03 0. -1.
         11    1    4    4    0    0 -0.69487614005E-01  0.75042561734E-01 -0.68000861823E-01  0.12281812937E+00  0.51100000000E-03 0.  1.
</event>
<event>
 8    1  0.5616615E+005  0.1043930E+01  0.7957747E-01            NaN
         13   -1    0    0    0    0  0.00000000000E+00  0.00000000000E+00  0.74505805969E-08  0.10566000000E+00  0.10566000000E+00 0. -1.
     999900   -1    0    0    0    0 -0.00000000000E+00 -0.00000000000E+00 -0.74505805969E-08  0.93827000000E+00  0.93827000000E+00 0.  1.
     999902    2    1    2    0    0  0.85383697081E-02  0.87823215728E-02  0.20397780641E-01  0.10201370938E+01  0.10198595922E+01 0.  0.
     999903    2    3    3    0    0  0.26446233198E-01  0.10531593399E+00  0.13193589607E+00  0.17201848118E+00  0.19809795385E-01 0.  0.
         14    1    1    2    0    0 -0.85383697081E-02 -0.87823215728E-02 -0.20397780641E-01  0.23792906182E-01  0.00000000000E+00 0.  1.
     999901    1    3    3    0    0 -0.17907863490E-01 -0.96533612420E-01 -0.11153811543E+00  0.84811861263E+00  0.83500000000E+00 0.  1.
        -11    1    4    4    0    0  0.16286346807E-01  0.77166308552E-01  0.81804814067E-01  0.11363174290E+00  0.51100000000E-03 0. -1.
         11    1    4    4    0    0  0.10159886391E-01  0.28149625441E-01  0.50131082007E-01  0.58386738289E-01  0.51100000000E-03 0.  1.
</event>
<event>
 8    1  0.5616615E+005  0.1043930E+01  0.7957747E-01            NaN
         13   -1    0    0    0    0  0.00000000000E+00  0.00000000000E+00  0.74505805969E-08  0.10566000000E+00  0.10566000000E+00 0.  1.
     999900   -1    0    0    0    0 -0.00000000000E+00 -0.00000000000E+00 -0.74505805969E-08  0.93827000000E+00  0.93827000000E+00 0.  1.
     999902    2    1    2    0    0  0.65037177267E-02 -0.21222102325E-01  0.84567009177E-02  0.10201772789E+01  0.10199007248E+01 0.  0.
     999903    2    3    3    0    0 -0.38285004451E-01  0.12907720839E+00 -0.92471572401E-01  0.16460295199E+00  0.20407665495E-01 0.  0.
         14    1    1    2    0    0 -0.65037177267E-02  0.21222102325E-01 -0.84567009177E-02  0.23752721144E-01  0.00000000000E+00 0. -1.
     999901    1    3    3    0    0  0.44788722177E-01 -0.15029931071E+00  0.10092827332E+00  0.85557432686E+00  0.83500000000E+00 0.  1.
        -11    1    4    4    0    0 -0.19634824368E-01  0.96182339796E-01 -0.70577486346E-01  0.12090496895E+00  0.51100000000E-03 0. -1.
         11    1    4    4    0    0 -0.18650180083E-01  0.32894868592E-01 -0.21894086055E-01  0.43697983043E-01  0.51100000000E-03 0.  1.
</event>
<event>
 8    1  0.5616615E+005  0.1043930E+01  0.7957747E-01            NaN
         13   -1    0    0    0    0  0.00000000000E+00  0.00000000000E+00  0.74505805969E-08  0.10566000000E+00  0.10566000000E+00 0. -1.
     999900   -1    0    0    0    0 -0.00000000000E+00 -0.00000000000E+00 -0.74505805969E-08  0.93827000000E+00  0.93827000000E+00 0.  1.
     999902    2    1    2    0    0  0.19489370730E-01 -0.29960463425E-04 -0.13395515214E-01  0.10202809768E+01  0.10200068605E+01 0.  0.
     999903    2    3    3    0    0 -0.10649154166E+00 -0.12513560108E+00 -0.19336424241E-01  0.16659314981E+00  0.19493926183E-01 0.  0.
         14    1    1    2    0    0 -0.19489370730E-01  0.29960463425E-04  0.13395515214E-01  0.23649023171E-01  0.00000000000E+00 0.  1.
     999901    1    3    3    0    0  0.12598091239E+00  0.12510564061E+00  0.59409090261E-02  0.85368782702E+00  0.83500000000E+00 0. -1.
        -11    1    4    4    0    0 -0.45533919346E-01 -0.60030988198E-01 -0.75839535380E-04  0.75348020728E-01  0.51100000000E-03 0. -1.
         11    1    4    4    0    0 -0.60957622318E-01 -0.65104612879E-01 -0.19260584705E-01  0.91245129081E-01  0.51100000000E-03 0.  1.
</event>
<event>
 8    1  0.5616615E+005  0.1043930E+01  0.7957747E-01            NaN
         13   -1    0    0    0    0  0.00000000000E+00  0.00000000000E+00  0.74505805969E-08  0.10566000000E+00  0.10566000000E+00 0. -1.
     999900   -1    0    0    0    0 -0.00000000000E+00 -0.00000000000E+00 -0.74505805969E-08  0.93827000000E+00  0.93827000000E+00 0. -1.
     999902    2    1    2    0    0 -0.69827688669E-02  0.22041950933E-01  0.47924113127E-02  0.10203169979E+01  0.10200437257E+01 0.  0.
     999903    2    3    3    0    0  0.13381252592E-01 -0.11526724034E+00  0.11751647914E+00  0.16638478581E+00  0.20203451760E-01 0.  0.
         14    1    1    2    0    0  0.69827688669E-02 -0.22041950933E-01 -0.47924113127E-02  0.23613002100E-01  0.00000000000E+00 0. -1.
     999901    1    3    3    0    0 -0.20364021459E-01  0.13730919127E+00 -0.11272406783E+00  0.85393221209E+00  0.83500000000E+00 0. -1.
        -11    1    4    4    0    0  0.10363226326E-01 -0.24250853008E-01  0.21288014452E-01  0.33896032391E-01  0.51100000000E-03 0.  1.
         11    1    4    4    0    0  0.30180262665E-02 -0.91016387333E-01  0.96228464685E-01  0.13248875342E+00  0.51100000000E-03 0. -1.
</event>
<event>
 8    1  0.5616615E+005  0.1043930E+01  0.7957747E-01            NaN
         13   -1    0    0    0    0  0.00000000000E+00  0.00000000000E+00  0.74505805969E-08  0.10566000000E+00  0.10566000000E+00 0.  1.
     999900   -1    0    0    0    0 -0.00000000000E+00 -0.00000000000E+00 -0.74505805969E-08  0.93827000000E+00  0.93827000000E+00 0. -1.
     999902    2    1    2    0    0  0.13158754711E-01 -0.23778203705E-02  0.20129456009E-01  0.10197638697E+01  0.10194774878E+01 0.  0.
     999903    2    3    3    0    0  0.37825010680E-01  0.92770639261E-01 -0.13042152970E+00  0.16562555954E+00  0.19619572464E-01 0.  0.
         14    1    1    2    0    0 -0.13158754711E-01  0.23778203705E-02 -0.20129456009E-01  0.24166130317E-01  0.00000000000E+00 0. -1.
     999901    1    3    3    0    0 -0.24666255969E-01 -0.95148459632E-01  0.15055098571E+00  0.85413831014E+00  0.83500000000E+00 0.  1.
        -11    1    4    4    0    0  0.75409573386E-02  0.57017638683E-02 -0.81262441742E-02  0.12476903228E-01  0.51100000000E-03 0. -1.
         11    1    4    4    0    0  0.30284053341E-01  0.87068875393E-01 -0.12229528552E+00  0.15314865631E+00  0.51100000000E-03 0.  1.
</event>
<event>
 8    1  0.6815863E+005  0.1043930E+01  0.7957747E-01            NaN
         13   -1    0    0    0    0  0.00000000000E+00  0.00000000000E+00  0.74505805969E-08  0.10566000000E+00  0.10566000000E+00 0.  1.
     999900   -1    0    0    0    0 -0.00000000000E+00 -0.00000000000E+00 -0.74505805969E-08  0.93827000000E+00  0.93827000000E+00 0. -1.
     999902    2    1    2    0    0 -0.21934314168E-01  0.10304791188E-02  0.93670450638E-02  0.10200570538E+01  0.10197776598E+01 0.  0.
     999903    2    3    3    0    0  0.12607739376E-02  0.24206622175E-01 -0.16364285457E+00  0.16669161565E+00  0.20483182555E-01 0.  0.
         14    1    1    2    0    0  0.21934314168E-01 -0.10304791188E-02 -0.93670450638E-02  0.23872946162E-01  0.00000000000E+00 0. -1.
     999901    1    3    3    0    0 -0.23195088106E-01 -0.23176143056E-01  0.17300989964E+00  0.85336543819E+00  0.83500000000E+00 0.  1.
        -11    1    4    4    0    0 -0.34998751437E-02  0.26505465490E-03 -0.64104678830E-01  0.64202728516E-01  0.51100000000E-03 0.  1.
         11    1    4    4    0    0  0.47606490813E-02  0.23941567520E-01 -0.99538175743E-01  0.10248888713E+00  0.51100000000E-03 0. -1.
</event>
<event>
 8    1  0.5650312E+005  0.1043930E+01  0.7957747E-01            NaN
         13   -1    0    0    0    0  0.00000000000E+00  0.00000000000E+00  0.74505805969E-08  0.10566000000E+00  0.10566000000E+00 0. -1.
     999900   -1    0    0    0    0 -0.00000000000E+00 -0.00000000000E+00 -0.74505805969E-08  0.93827000000E+00  0.93827000000E+00 0. -1.
     999902    2    1    2    0    0  0.16059041157E-01  0.11821805516E-01  0.96153971401E-03  0.10239657207E+01  0.10237710803E+01 0.  0.
     999903    2    3    3    0    0  0.11930179056E+00 -0.11210069032E+00 -0.48986735268E-01  0.17206450552E+00  0.20174534102E-01 0.  0.
         14    1    1    2    0    0 -0.16059041157E-01 -0.11821805516E-01 -0.96153971401E-03  0.19964279280E-01  0.00000000000E+00 0. -1.
     999901    1    3    3    0    0 -0.10324274941E+00  0.12392249584E+00  0.49948274982E-01  0.85190121520E+00  0.83500000000E+00 0.  1.
        -11    1    4    4    0    0  0.59263612944E-01 -0.47493310886E-01 -0.14254798264E-01  0.77273868756E-01  0.51100000000E-03 0.  1.
         11    1    4    4    0    0  0.60038177621E-01 -0.64607379436E-01 -0.34731937005E-01  0.94790636767E-01  0.51100000000E-03 0. -1.
</event>
<event>
 8    1  0.5616615E+005  0.1043930E+01  0.7957747E-01            NaN
         13   -1    0    0    0    0  0.00000000000E+00  0.00000000000E+00  0.74505805969E-08  0.10566000000E+00  0.10566000000E+00 0.  1.
     999900   -1    0    0    0    0 -0.00000000000E+00 -0.00000000000E+00 -0.74505805969E-08  0.93827000000E+00  0.93827000000E+00 0. -1.
     999902    2    1    2    0    0 -0.21666255756E-01  0.85280537615E-02 -0.42347415618E-02  0.10202638348E+01  0.10199893162E+01 0.  0.
     999903    2    3    3    0    0 -0.83378031088E-01  0.12708532738E+00  0.75581075767E-01  0.17087597578E+00  0.19583758107E-01 0.  0.
         14    1    1    2    0    0  0.21666255756E-01 -0.85280537615E-02  0.42347415618E-02  0.23666165206E-01  0.00000000000E+00 0. -1.
     999901    1    3    3    0    0  0.61711775332E-01 -0.11855727362E+00 -0.79815817329E-01  0.84938785901E+00  0.83500000000E+00 0.  1.
        -11    1    4    4    0    0 -0.13035515066E-01  0.30418877990E-01  0.22798387489E-01  0.40190302118E-01  0.51100000000E-03 0. -1.
         11    1    4    4    0    0 -0.70342516022E-01  0.96666449390E-01  0.52782688278E-01  0.13068567366E+00  0.51100000000E-03 0.  1.
</event>
<event>
 8    1  0.5616615E+005  0.1043930E+01  0.7957747E-01            NaN
         13   -1    0    0    0    0  0.00000000000E+00  0.00000000000E+00  0.74505805969E-08  0.10566000000E+00  0.10566000000E+00 0. -1.
     999900   -1    0    0    0    0 -0.00000000000E+00 -0.00000000000E+00 -0.74505805969E-08  0.93827000000E+00  0.93827000000E+00 0. -1.
     999902    2    1    2    0    0  0.42213652651E-02  0.64420983532E-02  0.20156064430E-01  0.10223525236E+01  0.10221247942E+01 0.  0.
     999903    2    3    3    0    0  0.69669849064E-01  0.13340747310E+00  0.82542346845E-01  0.17292874320E+00  0.20968296429E-01 0.  0.
         14    1    1    2    0    0 -0.42213652651E-02 -0.64420983532E-02 -0.20156064430E-01  0.21577476432E-01  0.00000000000E+00 0.  1.
     999901    1    3    3    0    0 -0.65448483799E-01 -0.12696537475E+00 -0.62386282416E-01  0.84942378037E+00  0.83500000000E+00 0. -1.
        -11    1    4    4    0    0  0.40345449376E-01  0.81022843617E-01  0.37968039236E-01  0.98154417107E-01  0.51100000000E-03 0. -1.
         11    1    4    4    0    0  0.29324399687E-01  0.52384629484E-01  0.44574307610E-01  0.74774326096E-01  0.51100000000E-03 0.  1.
</event>
<event>
 8    1  0.5616615E+005  0.1043930E+01  0.7957747E-01            NaN
         13   -1    0    0    0    0  0.00000000000E+00  0.00000000000E+00  0.74505805969E-08  0.10566000000E+00  0.10566000000E+00 0. -1.
     999900   -1    0    0    0    0 -0.00000000000E+00 -0.00000000000E+00 -0.74505805969E-08  0.93827000000E+00  0.93827000000E+00 0.  1.
     999902    2    1    2    0    0  0.28056986075E-02 -0.28798737161E-01  0.24548557185E-01  0.10059843696E+01  0.10052684622E+01 0.  0.
     999903    2    3    3    0    0  0.11338230766E+00  0.87893815354E-01  0.57138533315E-01  0.15502523731E+00  0.13679976071E-01 0.  0.
         14    1    1    2    0    0 -0.28056986075E-02  0.28798737161E-01 -0.24548557185E-01  0.37945630402E-01  0.00000000000E+00 0.  1.
     999901    1    3    3    0    0 -0.11057660905E+00 -0.11669255251E+00 -0.32589976130E-01  0.85095913229E+00  0.83500000000E+00 0.  1.
        -11    1    4    4    0    0  0.30475166007E-01  0.30666905127E-01  0.20230233432E-01  0.47735922312E-01  0.51100000000E-03 0.  1.
         11    1    4    4    0    0  0.82907141654E-01  0.57226910227E-01  0.36908299883E-01  0.10728931500E+00  0.51100000000E-03 0. -1.
</event>
<event>
 8    1  0.7815066E+005  0.1043930E+01  0.7957747E-01            NaN
         13   -1    0    0    0    0  0.00000000000E+00  0.00000000000E+00  0.74505805969E-08  0.10566000000E+00  0.10566000000E+00 0.  1.
     999900   -1    0    0    0    0 -0.00000000000E+00 -0.00000000000E+00 -0.74505805969E-08  0.93827000000E+00  0.93827000000E+00 0.  1.
     999902    2    1    2    0    0 -0.12270860893E-01  0.13263501056E-01 -0.16250788173E-01  0.10196280947E+01  0.10193384466E+01 0.  0.
     999903    2    3    3    0    0 -0.40491980173E-01 -0.12088605712E+00  0.10297014794E+00  0.16509245049E+00  0.19990662284E-01 0.  0.
         14    1    1    2    0    0  0.12270860893E-01 -0.13263501056E-01  0.16250788173E-01  0.24301905349E-01  0.00000000000E+00 0.  1.
     999901    1    3    3    0    0  0.28221119280E-01  0.13414955818E+00 -0.11922093611E+00  0.85453564416E+00  0.83500000000E+00 0.  1.
        -11    1    4    4    0    0 -0.12811137584E-01 -0.18139582677E-01  0.23049774352E-01  0.32011293703E-01  0.51100000000E-03 0.  1.
         11    1    4    4    0    0 -0.27680842589E-01 -0.10274647444E+00  0.79920373587E-01  0.13308115679E+00  0.51100000000E-03 0. -1.
</event>
<event>
 8    1  0.5616615E+005  0.1043930E+01  0.7957747E-01            NaN
         13   -1    0    0    0    0  0.00000000000E+00  0.00000000000E+00  0.74505805969E-08  0.10566000000E+00  0.10566000000E+00 0. -1.
     999900   -1    0    0    0    0 -0.00000000000E+00 -0.00000000000E+00 -0.74505805969E-08  0.93827000000E+00  0.93827000000E+00 0. -1.
     999902    2    1    2    0    0 -0.89550220334E-03 -0.22161141194E-01  0.10024573083E-01  0.10195905224E+01  0.10192999673E+01 0.  0.
     999903    2    3    3    0    0 -0.92118953346E-02 -0.15698136427E+00 -0.63146724056E-01  0.17057656867E+00  0.19515360039E-01 0.  0.
         14    1    1    2    0    0  0.89550220334E-03  0.22161141194E-01 -0.10024573083E-01  0.24339477576E-01  0.00000000000E+00 0.  1.
     999901    1    3    3    0    0  0.83163931313E-02  0.13482022307E+00  0.73171297139E-01  0.84901395375E+00  0.83500000000E+00 0.  1.
        -11    1    4    4    0    0 -0.32050833955E-02 -0.11664592105E+00 -0.54931440051E-01  0.12897390312E+00  0.51100000000E-03 0.  1.
         11    1    4    4    0    0 -0.60068119391E-02 -0.40335443212E-01 -0.82152840055E-02  0.41602665552E-01  0.51100000000E-03 0. -1.
</event>
<event>
 8    1  0.5616615E+005  0.1043930E+01  0.7957747E-01            NaN
         13   -1    0    0    0    0  0.00000000000E+00  0.00000000000E+00  0.74505805969E-08  0.10566000000E+00  0.10566000000E+00 0.  1.
     999900   -1    0    0    0    0 -0.00000000000E+00 -0.00000000000E+00 -0.74505805969E-08  0.93827000000E+00  0.93827000000E+00 0.  1.
     999902    2    1    2    0    0  0.19694922395E-02  0.24722414087E-01  0.35609390911E-02  0.10188749218E+01  0.10185668114E+01 0.  0.
     999903    2    3    3    0    0 -0.99150581448E-01 -0.53074447832E-01  0.12017949402E+00  0.16617186186E+00  0.22852616394E-01 0.  0.
         14    1    1    2    0    0 -0.19694922395E-02 -0.24722414087E-01 -0.35609390911E-02  0.25055078231E-01  0.00000000000E+00 0.  1.
     999901    1    3    3    0    0  0.10112007369E+00  0.77796861919E-01 -0.11661855493E+00  0.85270305991E+00  0.83500000000E+00 0.  1.
        -11    1    4    4    0    0 -0.17145906350E-01 -0.56373254105E-02  0.92323716586E-02  0.20279530315E-01  0.51100000000E-03 0.  1.
         11    1    4    4    0    0 -0.82004675098E-01 -0.47437122422E-01  0.11094712236E+00  0.14589233154E+00  0.51100000000E-03 0. -1.
</event>
<event>
 8    1  0.5616615E+005  0.1043930E+01  0.7957747E-01            NaN
         13   -1    0    0    0    0  0.00000000000E+00  0.00000000000E+00  0.74505805969E-08  0.10566000000E+00  0.10566000000E+00 0.  1.
     999900   -1    0    0    0    0 -0.00000000000E+00 -0.00000000000E+00 -0.74505805969E-08  0.93827000000E+00  0.93827000000E+00 0.  1.
     999902    2    1    2    0    0 -0.20858152126E-01  0.69698315626E-02 -0.92681936442E-02  0.10200649528E+01  0.10197857459E+01 0.  0.
     999903    2    3    3    0    0 -0.15902193188E+00  0.43233507931E-01  0.42470543647E-01  0.17135641560E+00  0.20054003687E-01 0.  0.
         14    1    1    2    0    0  0.20858152126E-01 -0.69698315626E-02  0.92681936442E-02  0.23865047152E-01  0.00000000000E+00 0.  1.
     999901    1    3    3    0    0  0.13816377975E+00 -0.36263676368E-01 -0.51738737292E-01  0.84870853725E+00  0.83500000000E+00 0.  1.
        -11    1    4    4    0    0 -0.78032911996E-01  0.22922178999E-01  0.31154778101E-01  0.87094448527E-01  0.51100000000E-03 0. -1.
         11    1    4    4    0    0 -0.80989019882E-01  0.20311328932E-01  0.11315765546E-01  0.84261967075E-01  0.51100000000E-03 0.  1.
</event>
<event>
 8    1  0.5616615E+005  0.1043930E+01  0.7957747E-01            NaN
         13   -1    0    0    0    0  0.00000000000E+00  0.00000000000E+00  0.74505805969E-08  0.10566000000E+00  0.10566000000E+00 0. -1.
     999900   -1    0    0    0    0 -0.00000000000E+00 -0.00000000000E+00 -0.74505805969E-08  0.93827000000E+00  0.93827000000E+00 0.  1.
     999902    2    1    2    0    0  0.19071911172E-01  0.98014694909E-02 -0.10078988448E-01  0.10202362749E+01  0.10199611091E+01 0.  0.
     999903    2    3    3    0    0 -0.99035680148E-01  0.13377361785E+00 -0.13184449043E-01  0.16785540901E+00  0.17267364048E-01 0.  0.
         14    1    1    2    0    0 -0.19071911172E-01 -0.98014694909E-02  0.10078988448E-01  0.23693725078E-01  0.00000000000E+00 0. -1.
     999901    1    3    3    0    0  0.11810759132E+00 -0.12397214836E+00  0.31054605947E-02  0.85238086592E+00  0.83500000000E+00 0.  1.
        -11    1    4    4    0    0 -0.95508372350E-01  0.12156014048E+00 -0.11475838367E-01  0.15501829869E+00  0.51100000000E-03 0.  1.
         11    1    4    4    0    0 -0.35273077983E-02  0.12213477369E-01 -0.17086106759E-02  0.12837110313E-01  0.51100000000E-03 0. -1.
</event>
<event>
 8    1  0.5616615E+005  0.1043930E+01  0.7957747E-01            NaN
         13   -1    0    0    0    0  0.00000000000E+00  0.00000000000E+00  0.74505805969E-08  0.10566000000E+00  0.10566000000E+00 0. -1.
     999900   -1    0    0    0    0 -0.00000000000E+00 -0.00000000000E+00 -0.74505805969E-08  0.93827000000E+00  0.93827000000E+00 0.  1.
     999902    2    1    2    0    0 -0.13319188203E-01  0.16502969600E-01  0.10705522906E-01  0.10201738008E+01  0.10198971648E+01 0.  0.
     999903    2    3    3    0    0  0.87649880750E-01 -0.41937649730E-02 -0.13905533278E+00  0.16561167807E+00  0.19767475202E-01 0.  0.
         14    1    1    2    0    0  0.13319188203E-01 -0.16502969600E-01 -0.10705522906E-01  0.23756199205E-01  0.00000000000E+00 0.  1.
     999901    1    3    3    0    0 -0.10096906895E+00  0.20696734573E-01  0.14976085569E+00  0.85456212273E+00  0.83500000000E+00 0. -1.
        -11    1    4    4    0    0  0.45813193895E-01  0.91374032853E-03 -0.55069500110E-01  0.71642128805E-01  0.51100000000E-03 0.  1.
         11    1    4    4    0    0  0.41836686855E-01 -0.51075053015E-02 -0.83985832674E-01  0.93969549261E-01  0.51100000000E-03 0. -1.
</event>
<event>
 8    1  0.5616615E+005  0.1043930E+01  0.7957747E-01            NaN
         13   -1    0    0    0    0  0.00000000000E+00  0.00000000000E+00  0.74505805969E-08  0.10566000000E+00  0.10566000000E+00 0.  1.
     999900   -1    0    0    0    0 -0.00000000000E+00 -0.00000000000E+00 -0.74505805969E-08  0.93827000000E+00  0.93827000000E+00 0.  1.
     999902    2    1    2    0    0  0.97700957242E-02  0.21110755065E-01  0.55398651488E-02  0.10200174749E+01  0.10197371427E+01 0.  0.
     999903    2    3    3    0    0  0.77211578007E-01 -0.10705526524E+00  0.10058058499E+00  0.16723812437E+00  0.20728689597E-01 0.  0.
         14    1    1    2    0    0 -0.97700957242E-02 -0.21110755065E-01 -0.55398651488E-02  0.23912525080E-01  0.00000000000E+00 0. -1.
     999901    1    3    3    0    0 -0.67441482283E-01  0.12816602031E+00 -0.95040719839E-01  0.85277935055E+00  0.83500000000E+00 0. -1.
        -11    1    4    4    0    0  0.51619126773E-01 -0.56155122643E-01  0.51461179519E-01  0.92013293422E-01  0.51100000000E-03 0. -1.
         11    1    4    4    0    0  0.25592451234E-01 -0.50900142599E-01  0.49119405469E-01  0.75224830950E-01  0.51100000000E-03 0.  1.
</event>
<event>
 8    1  0.6389899E+005  0.1043930E+01  0.7957747E-01            NaN
         13   -1    0    0    0    0  0.00000000000E+00  0.00000000000E+00  0.74505805969E-08  0.10566000000E+00  0.10566000000E+00 0. -1.
     999900   -1    0    0    0    0 -0.00000000000E+00 -0.00000000000E+00 -0.74505805969E-08  0.93827000000E+00  0.93827000000E+00 0. -1.
     999902    2    1    2    0    0 -0.21965358893E-01 -0.41759459611E-02  0.16738405068E-01  0.10159999137E+01  0.10156159387E+01 0.  0.
     999903    2    3    3    0    0 -0.23228540626E-02 -0.16353023518E+00  0.16763151477E-01  0.16570313134E+00  0.20712098381E-01 0.  0.
         14    1    1    2    0    0  0.21965358893E-01  0.41759459611E-02 -0.16738405068E-01  0.27930086290E-01  0.00000000000E+00 0. -1.
     999901    1    3    3    0    0 -0.19642504830E-01  0.15935428922E+00 -0.24746409361E-04  0.85029678237E+00  0.83500000000E+00 0. -1.
        -11    1    4    4    0    0  0.11697610855E-03 -0.57493066306E-01  0.15821044132E-01  0.59632482047E-01  0.51100000000E-03 0.  1.
         11    1    4    4    0    0 -0.24398301711E-02 -0.10603716888E+00  0.94210734479E-03  0.10607064930E+00  0.51100000000E-03 0. -1.
</event>
<event>
 8    1  0.5616615E+005  0.1043930E+01  0.7957747E-01            NaN
         13   -1    0    0    0    0  0.00000000000E+00  0.00000000000E+00  0.74505805969E-08  0.10566000000E+00  0.10566000000E+00 0.  1.
     999900   -1    0    0    0    0 -0.00000000000E+00 -0.00000000000E+00 -0.74505805969E-08  0.93827000000E+00  0.93827000000E+00 0.  1.
     999902    2    1    2    0    0 -0.13335019871E-01 -0.17597984628E-01 -0.20827992532E-01  0.10135767944E+01  0.10131222044E+01 0.  0.
     999903    2    3    3    0    0  0.19290144225E-01 -0.49709924779E-01  0.14964599007E+00  0.16012383331E+00  0.20063234152E-01 0.  0.
         14    1    1    2    0    0  0.13335019871E-01  0.17597984628E-01  0.20827992532E-01  0.30353205611E-01  0.00000000000E+00 0. -1.
     999901    1    3    3    0    0 -0.32625164096E-01  0.32111940152E-01 -0.17047398260E+00  0.85345296108E+00  0.83500000000E+00 0.  1.
        -11    1    4    4    0    0  0.13994853307E-01 -0.22974289757E-01  0.49567741244E-01  0.56399432639E-01  0.51100000000E-03 0.  1.
         11    1    4    4    0    0  0.52952909180E-02 -0.26735635022E-01  0.10007824882E+00  0.10372440067E+00  0.51100000000E-03 0. -1.
</event>
<event>
 8    1  0.5642024E+005  0.1043930E+01  0.7957747E-01            NaN
         13   -1    0    0    0    0  0.00000000000E+00  0.00000000000E+00  0.74505805969E-08  0.10566000000E+00  0.10566000000E+00 0. -1.
     999900   -1    0    0    0    0 -0.00000000000E+00 -0.00000000000E+00 -0.74505805969E-08  0.93827000000E+00  0.93827000000E+00 0.  1.
     999902    2    1    2    0    0  0.14046712829E-01 -0.40702256359E-02 -0.18993974555E-01  0.10199581843E+01  0.10196764437E+01 0.  0.
     999903    2    3    3    0    0  0.41107912431E-01  0.14410398091E+00  0.70424830341E-01  0.16678257127E+00  0.20023775188E-01 0.  0.
         14    1    1    2    0    0 -0.14046712829E-01  0.40702256359E-02  0.18993974555E-01  0.23971815689E-01  0.00000000000E+00 0. -1.
     999901    1    3    3    0    0 -0.27061199602E-01 -0.14817420655E+00 -0.89418804896E-01  0.85317561304E+00  0.83500000000E+00 0.  1.
        -11    1    4    4    0    0  0.20047602926E-01  0.42639241055E-01  0.27959975939E-01  0.54790807955E-01  0.51100000000E-03 0.  1.
         11    1    4    4    0    0  0.21060309504E-01  0.10146473986E+00  0.42464854402E-01  0.11199176332E+00  0.51100000000E-03 0. -1.
</event>
<event>
 8    1  0.5616615E+005  0.1043930E+01  0.7957747E-01            NaN
         13   -1    0    0    0    0  0.00000000000E+00  0.00000000000E+00  0.74505805969E-08  0.10566000000E+00  0.10566000000E+00 0. -1.
     999900   -1    0    0    0    0 -0.00000000000E+00 -0.00000000000E+00 -0.74505805969E-08  0.93827000000E+00  0.93827000000E+00 0.  1.
     999902    2    1    2    0    0  0.14206776722E-01  0.82547038354E-02 -0.17144454786E-01  0.10201833166E+01  0.10199069049E+01 0.  0.
     999903    2    3    3    0    0  0.23225536734E-01  0.12282100394E+00 -0.11548957562E+00  0.17159417110E+00  0.21961168294E-01 0.  0.
         14    1    1    2    0    0 -0.14206776722E-01 -0.82547038354E-02  0.17144454786E-01  0.23746683351E-01  0.00000000000E+00 0.  1.
     999901    1    3    3    0    0 -0.90187600123E-02 -0.11456630011E+00  0.98345120834E-01  0.84858914555E+00  0.83500000000E+00 0. -1.
        -11    1    4    4    0    0  0.14235081848E-01  0.49960732345E-01 -0.34939594650E-01  0.62607896682E-01  0.51100000000E-03 0. -1.
         11    1    4    4    0    0  0.89904548866E-02  0.72860271596E-01 -0.80549980971E-01  0.10898627442E+00  0.51100000000E-03 0.  1.
</event>
<event>
 8    1  0.5616615E+005  0.1043930E+01  0.7957747E-01            NaN
         13   -1    0    0    0    0  0.00000000000E+00  0.00000000000E+00  0.74505805969E-08  0.10566000000E+00  0.10566000000E+00 0. -1.
     999900   -1    0    0    0    0 -0.00000000000E+00 -0.00000000000E+00 -0.74505805969E-08  0.93827000000E+00  0.93827000000E+00 0.  1.
     999902    2    1    2    0    0 -0.50380887953E-02 -0.10295627246E-01 -0.20250619337E-01  0.10206604950E+01  0.10203952059E+01 0.  0.
     999903    2    3    3    0    0  0.14616286125E+00  0.53683864125E-01 -0.61979503163E-01  0.16865028242E+00  0.18865833460E-01 0.  0.
         14    1    1    2    0    0  0.50380887953E-02  0.10295627246E-01  0.20250619337E-01  0.23269504993E-01  0.00000000000E+00 0. -1.
     999901    1    3    3    0    0 -0.15120095004E+00 -0.63979491372E-01  0.41728883826E-01  0.85201021259E+00  0.83500000000E+00 0. -1.
        -11    1    4    4    0    0  0.10420941519E+00  0.45546284204E-01 -0.50219137448E-01  0.12432332487E+00  0.51100000000E-03 0. -1.
         11    1    4    4    0    0  0.41953446053E-01  0.81375799215E-02 -0.11760365715E-01  0.44326957548E-01  0.51100000000E-03 0.  1.
</event>
<event>
 8    1  0.5616615E+005  0.1043930E+01  0.7957747E-01            NaN
         13   -1    0    0    0    0  0.00000000000E+00  0.00000000000E+00  0.74505805969E-08  0.10566000000E+00  0.10566000000E+00 0. -1.
     999900   -1    0    0    0    0 -0.00000000000E+00 -0.00000000000E+00 -0.74505805969E-08  0.93827000000E+00  0.93827000000E+00 0. -1.
     999902    2    1    2    0    0 -0.91545130272E-02 -0.93660292830E-02 -0.20609767222E-01  0.10195109476E+01  0.10192184664E+01 0.  0.
     999903    2    3    3    0    0 -0.14243232236E+00 -0.71370964581E-01 -0.58450699329E-01  0.17082695309E+00  0.19610777943E-01 0.  0.
         14    1    1    2    0    0  0.91545130272E-02  0.93660292830E-02  0.20609767222E-01  0.24419052362E-01  0.00000000000E+00 0.  1.
     999901    1    3    3    0    0  0.13327780933E+00  0.62004935298E-01  0.37840932107E-01  0.84868399455E+00  0.83500000000E+00 0.  1.
        -11    1    4    4    0    0 -0.78818639581E-01 -0.48724147756E-01 -0.28427489137E-01  0.96926795984E-01  0.51100000000E-03 0.  1.
         11    1    4    4    0    0 -0.63613682779E-01 -0.22646816825E-01 -0.30023210191E-01  0.73900157105E-01  0.51100000000E-03 0. -1.
</event>
<event>
 8    1  0.5616615E+005  0.1043930E+01  0.7957747E-01            NaN
         13   -1    0    0    0    0  0.00000000000E+00  0.00000000000E+00  0.74505805969E-08  0.10566000000E+00  0.10566000000E+00 0. -1.
     999900   -1    0    0    0    0 -0.00000000000E+00 -0.00000000000E+00 -0.74505805969E-08  0.93827000000E+00  0.93827000000E+00 0.  1.
     999902    2    1    2    0    0  0.61394123385E-03  0.10354309167E-01  0.23441743554E-01  0.10182959605E+01  0.10179732605E+01 0.  0.
     999903    2    3    3    0    0  0.13097049389E+00  0.47601630519E-02 -0.97508676270E-01  0.16455236351E+00  0.19839580803E-01 0.  0.
         14    1    1    2    0    0 -0.61394123385E-03 -0.10354309167E-01 -0.23441743554E-01  0.25634039538E-01  0.00000000000E+00 0. -1.
     999901    1    3    3    0    0 -0.13035655265E+00  0.55941461152E-02  0.12095041982E+00  0.85374359696E+00  0.83500000000E+00 0.  1.
        -11    1    4    4    0    0  0.81120385562E-01 -0.30675901554E-02 -0.69320225519E-01  0.10674962225E+00  0.51100000000E-03 0.  1.
         11    1    4    4    0    0  0.49850108323E-01  0.78277532072E-02 -0.28188450751E-01  0.57802741257E-01  0.51100000000E-03 0. -1.
</event>
<event>
 8    1  0.5616615E+005  0.1043930E+01  0.7957747E-01            NaN
         13   -1    0    0    0    0  0.00000000000E+00  0.00000000000E+00  0.74505805969E-08  0.10566000000E+00  0.10566000000E+00 0. -1.
     999900   -1    0    0    0    0 -0.00000000000E+00 -0.00000000000E+00 -0.74505805969E-08  0.93827000000E+00  0.93827000000E+00 0. -1.
     999902    2    1    2    0    0 -0.11057473119E-01  0.20598167929E-01 -0.76926082046E-03  0.10205388907E+01  0.10202707892E+01 0.  0.
     999903    2    3    3    0    0  0.63922680447E-01  0.11898033602E+00  0.10161068549E+00  0.17024027968E+00  0.20361532043E-01 0.  0.
         14    1    1    2    0    0  0.11057473119E-01 -0.20598167929E-01  0.76926082046E-03  0.23391109337E-01  0.00000000000E+00 0.  1.
     999901    1    3    3    0    0 -0.74980153566E-01 -0.98382168088E-01 -0.10237994631E+00  0.85029861098E+00  0.83500000000E+00 0.  1.
        -11    1    4    4    0    0  0.84187276427E-02  0.17102302217E-01  0.62680483825E-02  0.20072699563E-01  0.51100000000E-03 0.  1.
         11    1    4    4    0    0  0.55503952804E-01  0.10187803380E+00  0.95342637107E-01  0.15016758012E+00  0.51100000000E-03 0. -1.
</event>
<event>
 8    1  0.5616615E+005  0.1043930E+01  0.7957747E-01            NaN
         13   -1    0    0    0    0  0.00000000000E+00  0.00000000000E+00  0.74505805969E-08  0.10566000000E+00  0.10566000000E+00 0.  1.
     999900   -1    0    0    0    0 -0.00000000000E+00 -0.00000000000E+00 -0.74505805969E-08  0.93827000000E+00  0.93827000000E+00 0. -1.
     999902    2    1    2    0    0 -0.10085408198E-01  0.21568169916E-01 -0.16653359036E-02  0.10200621397E+01  0.10197828661E+01 0.  0.
     999903    2    3    3    0    0 -0.10776891767E+00 -0.87011762328E-01  0.91694497463E-01  0.16725927373E+00  0.19560096727E-01 0.  0.
         14    1    1    2    0    0  0.10085408198E-01 -0.21568169916E-01  0.16653359036E-02  0.23867860309E-01  0.00000000000E+00 0.  1.
     999901    1    3    3    0    0  0.97683509471E-01  0.10857993224E+00 -0.93359833366E-01  0.85280286596E+00  0.83500000000E+00 0. -1.
        -11    1    4    4    0    0 -0.83685007703E-01 -0.59958484160E-01  0.60197882080E-01  0.11925706044E+00  0.51100000000E-03 0. -1.
         11    1    4    4    0    0 -0.24083909967E-01 -0.27053278168E-01  0.31496615383E-01  0.48002213287E-01  0.51100000000E-03 0.  1.
</event>
<event>
 8    1  0.5616615E+005  0.1043930E+01  0.7957747E-01            NaN
         13   -1    0    0    0    0  0.00000000000E+00  0.00000000000E+00  0.74505805969E-08  0.10566000000E+00  0.10566000000E+00 0. -1.
     999900   -1    0    0    0    0 -0.00000000000E+00 -0.00000000000E+00 -0.74505805969E-08  0.93827000000E+00  0.93827000000E+00 0.  1.
     999902    2    1    2    0    0 -0.20055925418E-01 -0.57353782855E-02 -0.11336373099E-01  0.10201887266E+01  0.10199124422E+01 0.  0.
     999903    2    3    3    0    0 -0.19266798402E-02  0.14756595602E+00 -0.79353776780E-01  0.16831940806E+00  0.15968023331E-01 0.  0.
         14    1    1    2    0    0  0.20055925418E-01  0.57353782855E-02  0.11336373099E-01  0.23741273417E-01  0.00000000000E+00 0. -1.
     999901    1    3    3    0    0 -0.18129245578E-01 -0.15330133430E+00  0.68017403681E-01  0.85186931853E+00  0.83500000000E+00 0. -1.
        -11    1    4    4    0    0  0.44728215254E-02  0.95181625368E-01 -0.56743827591E-01  0.11090388195E+00  0.51100000000E-03 0.  1.
         11    1    4    4    0    0 -0.63995013657E-02  0.52384330648E-01 -0.22609949189E-01  0.57415526110E-01  0.51100000000E-03 0. -1.
</event>
<event>
 8    1  0.5616615E+005  0.1043930E+01  0.7957747E-01            NaN
         13   -1    0    0    0    0  0.00000000000E+00  0.00000000000E+00  0.74505805969E-08  0.10566000000E+00  0.10566000000E+00 0.  1.
     999900   -1    0    0    0    0 -0.00000000000E+00 -0.00000000000E+00 -0.74505805969E-08  0.93827000000E+00  0.93827000000E+00 0.  1.
     999902    2    1    2    0    0 -0.35665857750E-02 -0.28998834412E-01  0.11865585615E-01  0.10123951771E+01  0.10119039231E+01 0.  0.
     999903    2    3    3    0    0 -0.15137069563E+00 -0.21914004439E-01  0.53785150038E-01  0.16334953667E+00  0.19922793003E-01 0.  0.
         14    1    1    2    0    0  0.35665857750E-02  0.28998834412E-01 -0.11865585615E-01  0.31534822869E-01  0.00000000000E+00 0. -1.
     999901    1    3    3    0    0  0.14780410985E+00 -0.70848299735E-02 -0.41919564422E-01  0.84904564046E+00  0.83500000000E+00 0.  1.
        -11    1    4    4    0    0 -0.11781535840E+00 -0.12052860800E-01  0.48486689292E-01  0.12797245910E+00  0.51100000000E-03 0. -1.
         11    1    4    4    0    0 -0.33555337222E-01 -0.98611436389E-02  0.52984607454E-02  0.35377077567E-01  0.51100000000E-03 0.  1.
</event>
<event>
 8    1  0.5616615E+005  0.1043930E+01  0.7957747E-01            NaN
         13   -1    0    0    0    0  0.00000000000E+00  0.00000000000E+00  0.74505805969E-08  0.10566000000E+00  0.10566000000E+00 0. -1.
     999900   -1    0    0    0    0 -0.00000000000E+00 -0.00000000000E+00 -0.74505805969E-08  0.93827000000E+00  0.93827000000E+00 0. -1.
     999902    2    1    2    0    0  0.22654734410E-02 -0.21878257241E-01 -0.95582294343E-02  0.10199477095E+01  0.10196657196E+01 0.  0.
     999903    2    3    3    0    0  0.68209117327E-01 -0.85047800293E-01  0.12753592016E+00  0.16885502285E+00  0.18999889233E-01 0.  0.
         14    1    1    2    0    0 -0.22654734410E-02  0.21878257241E-01  0.95582294343E-02  0.23982290544E-01  0.00000000000E+00 0. -1.
     999901    1    3    3    0    0 -0.65943643886E-01  0.63169543052E-01 -0.13709414959E+00  0.85109268660E+00  0.83500000000E+00 0. -1.
        -11    1    4    4    0    0  0.59387888991E-01 -0.78047248093E-01  0.10513426084E+00  0.14377679999E+00  0.51100000000E-03 0.  1.
         11    1    4    4    0    0  0.88212283360E-02 -0.70005522003E-02  0.22401659318E-01  0.25078222857E-01  0.51100000000E-03 0. -1.
</event>
<event>
 8    1  0.5616615E+005  0.1043930E+01  0.7957747E-01            NaN
         13   -1    0    0    0    0  0.00000000000E+00  0.00000000000E+00  0.74505805969E-08  0.10566000000E+00  0.10566000000E+00 0.  1.
     999900   -1    0    0    0    0 -0.00000000000E+00 -0.00000000000E+00 -0.74505805969E-08  0.93827000000E+00  0.93827000000E+00 0.  1.
     999902    2    1    2    0    0  0.72101510682E-02 -0.71721341355E-02  0.21137499964E-01  0.10204732378E+01  0.10202036118E+01 0.  0.
     999903    2    3    3    0    0 -0.93201092894E-01 -0.97976448793E-02 -0.13449231914E+00  0.16517507239E+00  0.20302292200E-01 0.  0.
         14    1    1    2    0    0 -0.72101510682E-02  0.71721341355E-02 -0.21137499964E-01  0.23456762164E-01  0.00000000000E+00 0. -1.
     999901    1    3    3    0    0  0.10041124396E+00  0.26255107438E-02  0.15562981911E+00  0.85529816545E+00  0.83500000000E+00 0. -1.
        -11    1    4    4    0    0 -0.43162833642E-01 -0.12319573086E-01 -0.52383805345E-01  0.68986420928E-01  0.51100000000E-03 0. -1.
         11    1    4    4    0    0 -0.50038259252E-01  0.25219282066E-02 -0.82108513799E-01  0.96188651462E-01  0.51100000000E-03 0.  1.
</event>
<event>
 8    1  0.5616615E+005  0.1043930E+01  0.7957747E-01            NaN
         13   -1    0    0    0    0  0.00000000000E+00  0.00000000000E+00  0.74505805969E-08  0.10566000000E+00  0.10566000000E+00 0.  1.
     999900   -1    0    0    0    0 -0.00000000000E+00 -0.00000000000E+00 -0.74505805969E-08  0.93827000000E+00  0.93827000000E+00 0.  1.
     999902    2    1    2    0    0 -0.23131542156E-01 -0.20850091536E-03  0.20783883497E-02  0.10207043372E+01  0.10204400583E+01 0.  0.
     999903    2    3    3    0    0  0.51050600053E-01  0.10045648448E+00 -0.12202411265E+00  0.16732115229E+00  0.20219171520E-01 0.  0.
         14    1    1    2    0    0  0.23131542156E-01  0.20850091536E-03 -0.20783883497E-02  0.23225662817E-01  0.00000000000E+00 0. -1.
     999901    1    3    3    0    0 -0.74182142209E-01 -0.10066498539E+00  0.12410250100E+00  0.85338318489E+00  0.83500000000E+00 0. -1.
        -11    1    4    4    0    0  0.28269362231E-01  0.64757087712E-01 -0.88858135282E-01  0.11352826334E+00  0.51100000000E-03 0. -1.
         11    1    4    4    0    0  0.22781237821E-01  0.35699396766E-01 -0.33165977363E-01  0.53792888950E-01  0.51100000000E-03 0.  1.
</event>
<event>
 8    1  0.5616615E+005  0.1043930E+01  0.7957747E-01            NaN
         13   -1    0    0    0    0  0.00000000000E+00  0.00000000000E+00  0.74505805969E-08  0.10566000000E+00  0.10566000000E+00 0.  1.
     999900   -1    0    0    0    0 -0.00000000000E+00 -0.00000000000E+00 -0.74505805969E-08  0.93827000000E+00  0.93827000000E+00 0. -1.
     999902    2    1    2    0    0  0.73984545006E-02 -0.64378027883E-02  0.26520865426E-01  0.10156538840E+01  0.10152601998E+01 0.  0.
     999903    2    3    3    0    0  0.68976456220E-01 -0.13903911703E-01 -0.14365961741E+00  0.16123361865E+00  0.20177309894E-01 0.  0.
         14    1    1    2    0    0 -0.73984545006E-02  0.64378027883E-02 -0.26520865426E-01  0.28276116012E-01  0.00000000000E+00 0. -1.
     999901    1    3    3    0    0 -0.61578001720E-01  0.74661089148E-02  0.17018048284E+00  0.85442026534E+00  0.83500000000E+00 0.  1.
        -11    1    4    4    0    0  0.40676374457E-01 -0.95690574011E-03 -0.96505400339E-01  0.10473316821E+00  0.51100000000E-03 0. -1.
         11    1    4    4    0    0  0.28300081764E-01 -0.12947005963E-01 -0.47154217075E-01  0.56500450442E-01  0.51100000000E-03 0.  1.
</event>
<event>
 8    1  0.5616615E+005  0.1043930E+01  0.7957747E-01            NaN
         13   -1    0    0    0    0  0.00000000000E+00  0.00000000000E+00  0.74505805969E-08  0.10566000000E+00  0.10566000000E+00 0. -1.
     999900   -1    0    0    0    0 -0.00000000000E+00 -0.00000000000E+00 -0.74505805969E-08  0.93827000000E+00  0.93827000000E+00 0. -1.
     999902    2    1    2    0    0 -0.19277196350E-01 -0.13677086317E-01  0.94207515300E-03  0.10202749689E+01  0.10200007116E+01 0.  0.
     999903    2    3    3    0    0 -0.22218745980E-01  0.11245292698E+00  0.12029159778E+00  0.16740525935E+00  0.20374466931E-01 0.  0.
         14    1    1    2    0    0  0.19277196350E-01  0.13677086317E-01 -0.94207515300E-03  0.23655031068E-01  0.00000000000E+00 0. -1.
     999901    1    3    3    0    0  0.29415496300E-02 -0.12613001330E+00 -0.11934952262E+00  0.85286970958E+00  0.83500000000E+00 0. -1.
        -11    1    4    4    0    0  0.32743310552E-03  0.14160393009E-01  0.24561337139E-01  0.28357438982E-01  0.51100000000E-03 0.  1.
         11    1    4    4    0    0 -0.22546179086E-01  0.98292533974E-01  0.95730260638E-01  0.13904782037E+00  0.51100000000E-03 0. -1.
</event>
<event>
 8    1  0.5616615E+005  0.1043930E+01  0.7957747E-01            NaN
         13   -1    0    0    0    0  0.00000000000E+00  0.00000000000E+00  0.74505805969E-08  0.10566000000E+00  0.10566000000E+00 0.  1.
     999900   -1    0    0    0    0 -0.00000000000E+00 -0.00000000000E+00 -0.74505805969E-08  0.93827000000E+00  0.93827000000E+00 0. -1.
     999902    2    1    2    0    0  0.14745107445E-01 -0.40464956413E-02  0.18207263027E-01  0.10201540300E+01  0.10198769280E+01 0.  0.
     999903    2    3    3    0    0  0.76448214315E-01  0.84695299118E-01 -0.12013980843E+00  0.16689715681E+00  0.20086418706E-01 0.  0.
         14    1    1    2    0    0 -0.14745107445E-01  0.40464956413E-02 -0.18207263027E-01  0.23775969958E-01  0.00000000000E+00 0. -1.
     999901    1    3    3    0    0 -0.61703106871E-01 -0.88741794759E-01  0.13834707146E+00  0.85325687323E+00  0.83500000000E+00 0.  1.
        -11    1    4    4    0    0  0.64773963794E-01  0.80049070769E-01 -0.11057261013E+00  0.15109627179E+00  0.51100000000E-03 0. -1.
         11    1    4    4    0    0  0.11674250521E-01  0.46462283488E-02 -0.95671983061E-02  0.15800885024E-01  0.51100000000E-03 0.  1.
</event>
<event>
 8    1  0.5616615E+005  0.1043930E+01  0.7957747E-01            NaN
         13   -1    0    0    0    0  0.00000000000E+00  0.00000000000E+00  0.74505805969E-08  0.10566000000E+00  0.10566000000E+00 0. -1.
     999900   -1    0    0    0    0 -0.00000000000E+00 -0.00000000000E+00 -0.74505805969E-08  0.93827000000E+00  0.93827000000E+00 0.  1.
     999902    2    1    2    0    0  0.13050457457E-02 -0.22675376499E-01 -0.72702819117E-02  0.10200818797E+01  0.10198030733E+01 0.  0.
     999903    2    3    3    0    0  0.13224536543E+00  0.42495543289E-01  0.89998104260E-01  0.16680656945E+00  0.20738007651E-01 0.  0.
         14    1    1    2    0    0 -0.13050457457E-02  0.22675376499E-01  0.72702819117E-02  0.23848120321E-01  0.00000000000E+00 0.  1.
     999901    1    3    3    0    0 -0.13094031969E+00 -0.65170919788E-01 -0.97268386172E-01  0.85327531023E+00  0.83500000000E+00 0.  1.
        -11    1    4    4    0    0  0.43650230923E-01  0.23400292979E-01  0.26784770537E-01  0.56308093777E-01  0.51100000000E-03 0.  1.
         11    1    4    4    0    0  0.88595134512E-01  0.19095250310E-01  0.63213333723E-01  0.11049847567E+00  0.51100000000E-03 0. -1.
</event>
<event>
 8    1  0.5616615E+005  0.1043930E+01  0.7957747E-01            NaN
         13   -1    0    0    0    0  0.00000000000E+00  0.00000000000E+00  0.74505805969E-08  0.10566000000E+00  0.10566000000E+00 0.  1.
     999900   -1    0    0    0    0 -0.00000000000E+00 -0.00000000000E+00 -0.74505805969E-08  0.93827000000E+00  0.93827000000E+00 0.  1.
     999902    2    1    2    0    0  0.16177611433E-01 -0.70024732679E-02  0.13783749297E-01  0.10215527462E+01  0.10213076284E+01 0.  0.
     999903    2    3    3    0    0 -0.49150004190E-01 -0.98632994325E-01  0.12933059128E+00  0.17111760907E+00  0.20264348250E-01 0.  0.
         14    1    1    2    0    0 -0.16177611433E-01  0.70024732679E-02 -0.13783749297E-01  0.22377253814E-01  0.00000000000E+00 0. -1.
     999901    1    3    3    0    0  0.65327615624E-01  0.91630521058E-01 -0.11554684199E+00  0.85043513712E+00  0.83500000000E+00 0.  1.
        -11    1    4    4    0    0 -0.40061278396E-02 -0.24228358826E-01  0.22363347832E-01  0.33218110707E-01  0.51100000000E-03 0. -1.
         11    1    4    4    0    0 -0.45143876351E-01 -0.74404635500E-01  0.10696724345E+00  0.13789949836E+00  0.51100000000E-03 0.  1.
</event>
<event>
 8    1  0.5616615E+005  0.1043930E+01  0.7957747E-01            NaN
         13   -1    0    0    0    0  0.00000000000E+00  0.00000000000E+00  0.74505805969E-08  0.10566000000E+00  0.10566000000E+00 0.  1.
     999900   -1    0    0    0    0 -0.00000000000E+00 -0.00000000000E+00 -0.74505805969E-08  0.93827000000E+00  0.93827000000E+00 0.  1.
     999902    2    1    2    0    0 -0.19463160753E-01  0.73592530738E-02 -0.87169973173E-02  0.10213698742E+01  0.10211206886E+01 0.  0.
     999903    2    3    3    0    0 -0.13255294724E+00  0.91537293371E-01  0.56876208151E-01  0.17201558368E+00  0.20127048403E-01 0.  0.
         14    1    1    2    0    0  0.19463160753E-01 -0.73592530738E-02  0.87169973173E-02  0.22560125765E-01  0.00000000000E+00 0. -1.
     999901    1    3    3    0    0  0.11308978648E+00 -0.84178040297E-01 -0.65593205468E-01  0.84935429055E+00  0.83500000000E+00 0.  1.
        -11    1    4    4    0    0 -0.92870393385E-01  0.55929733395E-01  0.31049724997E-01  0.11277141299E+00  0.51100000000E-03 0.  1.
         11    1    4    4    0    0 -0.39682553851E-01  0.35607559976E-01  0.25826483153E-01  0.59244170689E-01  0.51100000000E-03 0. -1.
</event>
<event>
 8    1  0.5616615E+005  0.1043930E+01  0.7957747E-01            NaN
         13   -1    0    0    0    0  0.00000000000E+00  0.00000000000E+00  0.74505805969E-08  0.10566000000E+00  0.10566000000E+00 0.  1.
     999900   -1    0    0    0    0 -0.00000000000E+00 -0.00000000000E+00 -0.74505805969E-08  0.93827000000E+00  0.93827000000E+00 0. -1.
     999902    2    1    2    0    0  0.11787106146E-01  0.19687226708E-01 -0.63551733983E-02  0.10201201072E+01  0.10198422045E+01 0.  0.
     999903    2    3    3    0    0 -0.47374196019E-01 -0.13015807418E+00  0.86819960524E-01  0.16463177912E+00  0.19505856263E-01 0.  0.
         14    1    1    2    0    0 -0.11787106146E-01 -0.19687226708E-01  0.63551733983E-02  0.23809892811E-01  0.00000000000E+00 0.  1.
     999901    1    3    3    0    0  0.59161302164E-01  0.14984530089E+00 -0.93175133922E-01  0.85548832806E+00  0.83500000000E+00 0. -1.
        -11    1    4    4    0    0 -0.34450549551E-01 -0.10344780764E+00  0.59095859314E-01  0.12401963949E+00  0.51100000000E-03 0.  1.
         11    1    4    4    0    0 -0.12923646468E-01 -0.26710266544E-01  0.27724101210E-01  0.40612139635E-01  0.51100000000E-03 0. -1.
</event>
<event>
 8    1  0.5616615E+005  0.1043930E+01  0.7957747E-01            NaN
         13   -1    0    0    0    0  0.00000000000E+00  0.00000000000E+00  0.74505805969E-08  0.10566000000E+00  0.10566000000E+00 0.  1.
     999900   -1    0    0    0    0 -0.00000000000E+00 -0.00000000000E+00 -0.74505805969E-08  0.93827000000E+00  0.93827000000E+00 0. -1.
     999902    2    1    2    0    0 -0.98983489296E-02  0.22185222586E-01 -0.89207181360E-02  0.10180506525E+01  0.10177216665E+01 0.  0.
     999903    2    3    3    0    0  0.14507923835E+00  0.37408495962E-01  0.67009588419E-01  0.16526685106E+00  0.19376948901E-01 0.  0.
         14    1    1    2    0    0  0.98983489296E-02 -0.22185222586E-01  0.89207181360E-02  0.25879347457E-01  0.00000000000E+00 0. -1.
     999901    1    3    3    0    0 -0.15497758728E+00 -0.15223273376E-01 -0.75930306555E-01  0.85278380148E+00  0.83500000000E+00 0. -1.
        -11    1    4    4    0    0  0.13686332476E+00  0.31859961741E-01  0.66113478002E-01  0.15529932363E+00  0.51100000000E-03 0. -1.
         11    1    4    4    0    0  0.82159135987E-02  0.55485342213E-02  0.89611041735E-03  0.99675274340E-02  0.51100000000E-03 0.  1.
</event>
<event>
 8    1  0.5616615E+005  0.1043930E+01  0.7957747E-01            NaN
         13   -1    0    0    0    0  0.00000000000E+00  0.00000000000E+00  0.74505805969E-08  0.10566000000E+00  0.10566000000E+00 0.  1.
     999900   -1    0    0    0    0 -0.00000000000E+00 -0.00000000000E+00 -0.74505805969E-08  0.93827000000E+00  0.93827000000E+00 0.  1.
     999902    2    1    2    0    0  0.11229382740E-01  0.12226326282E-01  0.17576766797E-01  0.10197530518E+01  0.10194664104E+01 0.  0.
     999903    2    3    3    0    0 -0.30105115845E-01  0.81357444183E-01 -0.14029417422E+00  0.16615133778E+00  0.19961462937E-01 0.  0.
         14    1    1    2    0    0 -0.11229382740E-01 -0.12226326282E-01 -0.17576766797E-01  0.24176948156E-01  0.00000000000E+00 0. -1.
     999901    1    3    3    0    0  0.41334498585E-01 -0.69131117901E-01  0.15787094102E+00  0.85360171406E+00  0.83500000000E+00 0. -1.
        -11    1    4    4    0    0 -0.16840467329E-01  0.30044367680E-01 -0.40600982931E-01  0.53244401632E-01  0.51100000000E-03 0. -1.
         11    1    4    4    0    0 -0.13264648516E-01  0.51313076503E-01 -0.99693191287E-01  0.11290693615E+00  0.51100000000E-03 0.  1.
</event>
<event>
 8    1  0.5616615E+005  0.1043930E+01  0.7957747E-01            NaN
         13   -1    0    0    0    0  0.00000000000E+00  0.00000000000E+00  0.74505805969E-08  0.10566000000E+00  0.10566000000E+00 0. -1.
     999900   -1    0    0    0    0 -0.00000000000E+00 -0.00000000000E+00 -0.74505805969E-08  0.93827000000E+00  0.93827000000E+00 0. -1.
     999902    2    1    2    0    0  0.14120398787E-01  0.19967358001E-01 -0.90472918374E-02  0.10178544456E+01  0.10175203870E+01 0.  0.
     999903    2    3    3    0    0 -0.12985706746E+00  0.86386761222E-01 -0.54978790697E-01  0.16669303289E+00  0.20937270669E-01 0.  0.
         14    1    1    2    0    0 -0.14120398787E-01 -0.19967358001E-01  0.90472918374E-02  0.26075554396E-01  0.00000000000E+00 0.  1.
     999901    1    3    3    0    0  0.14397746625E+00 -0.66419403220E-01  0.45931498859E-01  0.85116141272E+00  0.83500000000E+00 0.  1.
        -11    1    4    4    0    0 -0.92082449394E-01  0.63954072416E-01 -0.29608591972E-01  0.11595788332E+00  0.51100000000E-03 0.  1.
         11    1    4    4    0    0 -0.37774618066E-01  0.22432688806E-01 -0.25370198725E-01  0.50735149565E-01  0.51100000000E-03 0. -1.
</event>
<event>
 8    1  0.5616615E+005  0.1043930E+01  0.7957747E-01            NaN
         13   -1    0    0    0    0  0.00000000000E+00  0.00000000000E+00  0.74505805969E-08  0.10566000000E+00  0.10566000000E+00 0.  1.
     999900   -1    0    0    0    0 -0.00000000000E+00 -0.00000000000E+00 -0.74505805969E-08  0.93827000000E+00  0.93827000000E+00 0. -1.
     999902    2    1    2    0    0 -0.19671672294E-01 -0.73526047058E-02 -0.11074315657E-01  0.10201881392E+01  0.10199118410E+01 0.  0.
     999903    2    3    3    0    0 -0.12373282165E+00 -0.24096938271E-01 -0.11524999878E+00  0.17213939741E+00  0.21422799426E-01 0.  0.
         14    1    1    2    0    0  0.19671672294E-01  0.73526047058E-02  0.11074315657E-01  0.23741860796E-01  0.00000000000E+00 0. -1.
     999901    1    3    3    0    0  0.10406114935E+00  0.16744333565E-01  0.10417568312E+00  0.84804874180E+00  0.83500000000E+00 0.  1.
        -11    1    4    4    0    0 -0.22429408419E-01  0.30102636779E-02 -0.25610706117E-01  0.34180541807E-01  0.51100000000E-03 0.  1.
         11    1    4    4    0    0 -0.10130341323E+00 -0.27107201949E-01 -0.89639292659E-01  0.13795885560E+00  0.51100000000E-03 0. -1.
</event>
<event>
 8    1  0.5616615E+005  0.1043930E+01  0.7957747E-01            NaN
         13   -1    0    0    0    0  0.00000000000E+00  0.00000000000E+00  0.74505805969E-08  0.10566000000E+00  0.10566000000E+00 0.  1.
     999900   -1    0    0    0    0 -0.00000000000E+00 -0.00000000000E+00 -0.74505805969E-08  0.93827000000E+00  0.93827000000E+00 0.  1.
     999902    2    1    2    0    0 -0.34135443757E-02 -0.21277873970E-01 -0.10306671874E-01  0.10200421853E+01  0.10197624391E+01 0.  0.
     999903    2    3    3    0    0  0.27029750244E-01  0.11678973571E+00 -0.11434136394E+00  0.16679094670E+00  0.19360336433E-01 0.  0.
         14    1    1    2    0    0  0.34135443757E-02  0.21277873970E-01  0.10306671874E-01  0.23887814697E-01  0.00000000000E+00 0.  1.
     999901    1    3    3    0    0 -0.30443294620E-01 -0.13806760968E+00  0.10403469206E+00  0.85325123861E+00  0.83500000000E+00 0. -1.
        -11    1    4    4    0    0  0.14497582743E-01  0.26072199783E-01 -0.29170158530E-01  0.41726475727E-01  0.51100000000E-03 0. -1.
         11    1    4    4    0    0  0.12532167501E-01  0.90717535928E-01 -0.85171205408E-01  0.12506447097E+00  0.51100000000E-03 0.  1.
</event>
<event>
 8    1  0.5616615E+005  0.1043930E+01  0.7957747E-01            NaN
         13   -1    0    0    0    0  0.00000000000E+00  0.00000000000E+00  0.74505805969E-08  0.10566000000E+00  0.10566000000E+00 0.  1.
     999900   -1    0    0    0    0 -0.00000000000E+00 -0.00000000000E+00 -0.74505805969E-08  0.93827000000E+00  0.93827000000E+00 0.  1.
     999902    2    1    2    0    0  0.35255473472E-02 -0.23241856389E-01  0.35076392695E-02  0.10201620193E+01  0.10198851057E+01 0.  0.
     999903    2    3    3    0    0 -0.60742072006E-01 -0.14999552020E+00  0.54169886568E-01  0.17164066927E+00  0.18381712215E-01 0.  0.
         14    1    1    2    0    0 -0.35255473472E-02  0.23241856389E-01 -0.35076392695E-02  0.23767980683E-01  0.00000000000E+00 0. -1.
     999901    1    3    3    0    0  0.64267619353E-01  0.12675366381E+00 -0.50662247298E-01  0.84852135005E+00  0.83500000000E+00 0.  1.
        -11    1    4    4    0    0 -0.35868495748E-01 -0.68124791194E-01  0.30937713160E-01  0.82975534822E-01  0.51100000000E-03 0.  1.
         11    1    4    4    0    0 -0.24873576258E-01 -0.81870729008E-01  0.23232173408E-01  0.88665134447E-01  0.51100000000E-03 0. -1.
</event>
<event>
 8    1  0.5616615E+005  0.1043930E+01  0.7957747E-01            NaN
         13   -1    0    0    0    0  0.00000000000E+00  0.00000000000E+00  0.74505805969E-08  0.10566000000E+00  0.10566000000E+00 0. -1.
     999900   -1    0    0    0    0 -0.00000000000E+00 -0.00000000000E+00 -0.74505805969E-08  0.93827000000E+00  0.93827000000E+00 0. -1.
     999902    2    1    2    0    0 -0.13224171541E-01 -0.83909310276E-02  0.16798175891E-01  0.10209633905E+01  0.10207050405E+01 0.  0.
     999903    2    3    3    0    0 -0.23342118746E-02  0.89524357675E-01 -0.13831968238E+00  0.16598237033E+00  0.19943760019E-01 0.  0.
         14    1    1    2    0    0  0.13224171541E-01  0.83909310276E-02 -0.16798175891E-01  0.22966609452E-01  0.00000000000E+00 0.  1.
     999901    1    3    3    0    0 -0.10889959666E-01 -0.97915288703E-01  0.15511785827E+00  0.85498102022E+00  0.83500000000E+00 0.  1.
        -11    1    4    4    0    0 -0.10647712068E-01  0.52592293691E-01 -0.86792047785E-01  0.10204138282E+00  0.51100000000E-03 0.  1.
         11    1    4    4    0    0  0.83135001934E-02  0.36932063984E-01 -0.51527634594E-01  0.63940987507E-01  0.51100000000E-03 0. -1.
</event>
<event>
 8    1  0.5616615E+005  0.1043930E+01  0.7957747E-01            NaN
         13   -1    0    0    0    0  0.00000000000E+00  0.00000000000E+00  0.74505805969E-08  0.10566000000E+00  0.10566000000E+00 0.  1.
     999900   -1    0    0    0    0 -0.00000000000E+00 -0.00000000000E+00 -0.74505805969E-08  0.93827000000E+00  0.93827000000E+00 0.  1.
     999902    2    1    2    0    0  0.29799517566E-02  0.10331481804E-01  0.20715747886E-01  0.10205898663E+01  0.10203229457E+01 0.  0.
     999903    2    3    3    0    0  0.80965769570E-01 -0.13799268326E+00  0.49004002460E-01  0.16847070151E+00  0.19584395174E-01 0.  0.
         14    1    1    2    0    0 -0.29799517566E-02 -0.10331481804E-01 -0.20715747886E-01  0.23340133659E-01  0.00000000000E+00 0. -1.
     999901    1    3    3    0    0 -0.77985817814E-01  0.14832416507E+00 -0.28288254574E-01  0.85211916483E+00  0.83500000000E+00 0.  1.
        -11    1    4    4    0    0  0.55092675728E-01 -0.10685168345E+00  0.30960254214E-01  0.12414219120E+00  0.51100000000E-03 0. -1.
         11    1    4    4    0    0  0.25873093843E-01 -0.31140999817E-01  0.18043748246E-01  0.44328510310E-01  0.51100000000E-03 0.  1.
</event>
<event>
 8    1  0.6178526E+005  0.1043930E+01  0.7957747E-01            NaN
         13   -1    0    0    0    0  0.00000000000E+00  0.00000000000E+00  0.74505805969E-08  0.10566000000E+00  0.10566000000E+00 0.  1.
     999900   -1    0    0    0    0 -0.00000000000E+00 -0.00000000000E+00 -0.74505805969E-08  0.93827000000E+00  0.93827000000E+00 0.  1.
     999902    2    1    2    0    0  0.14100537293E-02 -0.66783503333E-02 -0.22898402961E-01  0.10200359532E+01  0.10197560592E+01 0.  0.
     999903    2    3    3    0    0  0.55352162966E-02  0.11294941728E+00 -0.12575293544E+00  0.17025252513E+00  0.19593673986E-01 0.  0.
         14    1    1    2    0    0 -0.14100537293E-02  0.66783503333E-02  0.22898402961E-01  0.23894046808E-01  0.00000000000E+00 0.  1.
     999901    1    3    3    0    0 -0.41251625673E-02 -0.11962776761E+00  0.10285453248E+00  0.84978342806E+00  0.83500000000E+00 0. -1.
        -11    1    4    4    0    0 -0.19486661582E-02  0.84027502051E-01 -0.83278314148E-01  0.11832141450E+00  0.51100000000E-03 0. -1.
         11    1    4    4    0    0  0.74838824548E-02  0.28921915226E-01 -0.42474621292E-01  0.51931110636E-01  0.51100000000E-03 0.  1.
</event>
<event>
 8    1  0.5616615E+005  0.1043930E+01  0.7957747E-01            NaN
         13   -1    0    0    0    0  0.00000000000E+00  0.00000000000E+00  0.74505805969E-08  0.10566000000E+00  0.10566000000E+00 0.  1.
     999900   -1    0    0    0    0 -0.00000000000E+00 -0.00000000000E+00 -0.74505805969E-08  0.93827000000E+00  0.93827000000E+00 0.  1.
     999902    2    1    2    0    0  0.71692627401E-03 -0.50347277142E-02 -0.22113990809E-01  0.10212387890E+01  0.10209866665E+01 0.  0.
     999903    2    3    3    0    0  0.15089365591E+00  0.25408042040E-01  0.65678055779E-01  0.16776807728E+00  0.20446436094E-01 0.  0.
         14    1    1    2    0    0 -0.71692627401E-03  0.50347277142E-02  0.22113990809E-01  0.22691210985E-01  0.00000000000E+00 0.  1.
     999901    1    3    3    0    0 -0.15017672963E+00 -0.30442769754E-01 -0.87792046589E-01  0.85347071174E+00  0.83500000000E+00 0.  1.
        -11    1    4    4    0    0  0.46612663946E-01  0.17119132492E-01  0.24078711969E-01  0.55189225656E-01  0.51100000000E-03 0.  1.
         11    1    4    4    0    0  0.10428099196E+00  0.82889095482E-02  0.41599343811E-01  0.11257885162E+00  0.51100000000E-03 0. -1.
</event>
<event>
 8    1  0.5616615E+005  0.1043930E+01  0.7957747E-01            NaN
         13   -1    0    0    0    0  0.00000000000E+00  0.00000000000E+00  0.74505805969E-08  0.10566000000E+00  0.10566000000E+00 0. -1.
     999900   -1    0    0    0    0 -0.00000000000E+00 -0.00000000000E+00 -0.74505805969E-08  0.93827000000E+00  0.93827000000E+00 0. -1.
     999902    2    1    2    0    0 -0.32669011088E-02  0.94435060799E-02  0.21118601943E-01  0.10205666142E+01  0.10202991552E+01 0.  0.
     999903    2    3    3    0    0  0.15327102962E+00 -0.62302407979E-01 -0.14123699674E-01  0.16726794443E+00  0.20136727131E-01 0.  0.
         14    1    1    2    0    0  0.32669011088E-02 -0.94435060799E-02 -0.21118601943E-01  0.23363385842E-01  0.00000000000E+00 0.  1.
     999901    1    3    3    0    0 -0.15653793073E+00  0.71745914059E-01  0.35242301617E-01  0.85329866973E+00  0.83500000000E+00 0.  1.
        -11    1    4    4    0    0  0.64156417621E-01 -0.25623530243E-01  0.40316552269E-02  0.69203515726E-01  0.51100000000E-03 0. -1.
         11    1    4    4    0    0  0.89114612000E-01 -0.36678877736E-01 -0.18155354901E-01  0.98064428701E-01  0.51100000000E-03 0.  1.
</event>
<event>
 8    1  0.5616615E+005  0.1043930E+01  0.7957747E-01            NaN
         13   -1    0    0    0    0  0.00000000000E+00  0.00000000000E+00  0.74505805969E-08  0.10566000000E+00  0.10566000000E+00 0. -1.
     999900   -1    0    0    0    0 -0.00000000000E+00 -0.00000000000E+00 -0.74505805969E-08  0.93827000000E+00  0.93827000000E+00 0. -1.
     999902    2    1    2    0    0 -0.44146402076E-02 -0.22046047081E-01  0.72105589669E-02  0.10203183630E+01  0.10200451228E+01 0.  0.
     999903    2    3    3    0    0 -0.91046493495E-01 -0.13319246780E+00 -0.53957112246E-01  0.17130417654E+00  0.20101081635E-01 0.  0.
         14    1    1    2    0    0  0.44146402076E-02  0.22046047081E-01 -0.72105589669E-02  0.23611636976E-01  0.00000000000E+00 0. -1.
     999901    1    3    3    0    0  0.86631853287E-01  0.11114642072E+00  0.61167671213E-01  0.84901418648E+00  0.83500000000E+00 0.  1.
        -11    1    4    4    0    0 -0.40153801035E-01 -0.42949259290E-01 -0.15672035242E-01  0.60850968939E-01  0.51100000000E-03 0. -1.
         11    1    4    4    0    0 -0.50892692459E-01 -0.90243208511E-01 -0.38285077004E-01  0.11045320761E+00  0.51100000000E-03 0.  1.
</event>
<event>
 8    1  0.5616615E+005  0.1043930E+01  0.7957747E-01            NaN
         13   -1    0    0    0    0  0.00000000000E+00  0.00000000000E+00  0.74505805969E-08  0.10566000000E+00  0.10566000000E+00 0. -1.
     999900   -1    0    0    0    0 -0.00000000000E+00 -0.00000000000E+00 -0.74505805969E-08  0.93827000000E+00  0.93827000000E+00 0.  1.
     999902    2    1    2    0    0 -0.16291980227E-01  0.96548873726E-02  0.12424819104E-01  0.10212800199E+01  0.10210288230E+01 0.  0.
     999903    2    3    3    0    0 -0.19383012744E-01 -0.16548627259E+00 -0.56114007182E-02  0.16791357712E+00  0.20051782104E-01 0.  0.
         14    1    1    2    0    0  0.16291980227E-01 -0.96548873726E-02 -0.12424819104E-01  0.22649980125E-01  0.00000000000E+00 0.  1.
     999901    1    3    3    0    0  0.30910325174E-02  0.17514115996E+00  0.18036219822E-01  0.85336644275E+00  0.83500000000E+00 0. -1.
        -11    1    4    4    0    0 -0.20432551464E-01 -0.93899835074E-01 -0.64239394142E-02  0.96313012127E-01  0.51100000000E-03 0.  1.
         11    1    4    4    0    0  0.10495387198E-02 -0.71586437513E-01  0.81253869600E-03  0.71600564994E-01  0.51100000000E-03 0. -1.
</event>
<event>
 8    1  0.5616615E+005  0.1043930E+01  0.7957747E-01            NaN
         13   -1    0    0    0    0  0.00000000000E+00  0.00000000000E+00  0.74505805969E-08  0.10566000000E+00  0.10566000000E+00 0. -1.
     999900   -1    0    0    0    0 -0.00000000000E+00 -0.00000000000E+00 -0.74505805969E-08  0.93827000000E+00  0.93827000000E+00 0. -1.
     999902    2    1    2    0    0  0.16223148269E-01  0.10408684115E-01 -0.13205964421E-01  0.10205648820E+01  0.10202973829E+01 0.  0.
     999903    2    3    3    0    0 -0.74631381497E-01  0.14814584384E+00  0.23541394339E-01  0.16862507239E+00  0.19057377598E-01 0.  0.
         14    1    1    2    0    0 -0.16223148269E-01 -0.10408684115E-01  0.13205964421E-01  0.23365118041E-01  0.00000000000E+00 0. -1.
     999901    1    3    3    0    0  0.90854529767E-01 -0.13773715972E+00 -0.36747358760E-01  0.85193980957E+00  0.83500000000E+00 0. -1.
        -11    1    4    4    0    0 -0.68542826954E-01  0.13180833594E+00  0.15356174294E-01  0.14935738937E+00  0.51100000000E-03 0.  1.
         11    1    4    4    0    0 -0.60885545430E-02  0.16337507898E-01  0.81852200449E-02  0.19267683019E-01  0.51100000000E-03 0. -1.
</event>
<event>
 8    1  0.5616615E+005  0.1043930E+01  0.7957747E-01            NaN
         13   -1    0    0    0    0  0.00000000000E+00  0.00000000000E+00  0.74505805969E-08  0.10566000000E+00  0.10566000000E+00 0. -1.
     999900   -1    0    0    0    0 -0.00000000000E+00 -0.00000000000E+00 -0.74505805969E-08  0.93827000000E+00  0.93827000000E+00 0. -1.
     999902    2    1    2    0    0  0.10630555408E-01 -0.20992284670E-01 -0.29904771726E-02  0.10202102260E+01  0.10199344477E+01 0.  0.
     999903    2    3    3    0    0  0.69707517951E-01 -0.14168651970E+00  0.64498313226E-01  0.17177818826E+00  0.20334837794E-01 0.  0.
         14    1    1    2    0    0 -0.10630555408E-01  0.20992284670E-01  0.29904771726E-02  0.23719773980E-01  0.00000000000E+00 0. -1.
     999901    1    3    3    0    0 -0.59076962544E-01  0.12069423503E+00 -0.67488790399E-01  0.84843203776E+00  0.83500000000E+00 0. -1.
        -11    1    4    4    0    0  0.17770386198E-01 -0.46071368040E-01  0.29273748361E-01  0.57407064398E-01  0.51100000000E-03 0. -1.
         11    1    4    4    0    0  0.51937131754E-01 -0.95615151661E-01  0.35224564865E-01  0.11437112386E+00  0.51100000000E-03 0.  1.
</event>
<event>
 8    1  0.5616615E+005  0.1043930E+01  0.7957747E-01            NaN
         13   -1    0    0    0    0  0.00000000000E+00  0.00000000000E+00  0.74505805969E-08  0.10566000000E+00  0.10566000000E+00 0.  1.
     999900   -1    0    0    0    0 -0.00000000000E+00 -0.00000000000E+00 -0.74505805969E-08  0.93827000000E+00  0.93827000000E+00 0. -1.
     999902    2    1    2    0    0 -0.17587238305E-01 -0.10400573223E-02 -0.14171918069E-01  0.10213194730E+01  0.10210691602E+01 0.  0.
     999903    2    3    3    0    0  0.16121259300E+00  0.36341314693E-01 -0.68316242168E-04  0.16645652593E+00  0.19939384706E-01 0.  0.
         14    1    1    2    0    0  0.17587238305E-01  0.10400573223E-02  0.14171918069E-01  0.22610527021E-01  0.00000000000E+00 0.  1.
     999901    1    3    3    0    0 -0.17879983131E+00 -0.37381372015E-01 -0.14103601827E-01  0.85486294705E+00  0.83500000000E+00 0.  1.
        -11    1    4    4    0    0  0.10964062741E+00  0.15942377153E-01 -0.38884334347E-02  0.11086301278E+00  0.51100000000E-03 0.  1.
         11    1    4    4    0    0  0.51571965593E-01  0.20398937540E-01  0.38201171925E-02  0.55593513149E-01  0.51100000000E-03 0. -1.
</event>
<event>
 8    1  0.5616615E+005  0.1043930E+01  0.7957747E-01            NaN
         13   -1    0    0    0    0  0.00000000000E+00  0.00000000000E+00  0.74505805969E-08  0.10566000000E+00  0.10566000000E+00 0.  1.
     999900   -1    0    0    0    0 -0.00000000000E+00 -0.00000000000E+00 -0.74505805969E-08  0.93827000000E+00  0.93827000000E+00 0.  1.
     999902    2    1    2    0    0 -0.14494773820E-01 -0.12740664617E-01 -0.13263591776E-01  0.10205132139E+01  0.10202445167E+01 0.  0.
     999903    2    3    3    0    0  0.53102008252E-01  0.35805468102E-01  0.15112220495E+00  0.16542623466E+00  0.20641304711E-01 0.  0.
         14    1    1    2    0    0  0.14494773820E-01  0.12740664617E-01  0.13263591776E-01  0.23416786068E-01  0.00000000000E+00 0. -1.
     999901    1    3    3    0    0 -0.67596782071E-01 -0.48546132719E-01 -0.16438579672E+00  0.85508697927E+00  0.83500000000E+00 0.  1.
        -11    1    4    4    0    0  0.20858512849E-01  0.14447337528E-01  0.36515270719E-01  0.44468294735E-01  0.51100000000E-03 0. -1.
         11    1    4    4    0    0  0.32243495402E-01  0.21358130574E-01  0.11460693423E+00  0.12095793993E+00  0.51100000000E-03 0.  1.
</event>
<event>
 8    1  0.5616615E+005  0.1043930E+01  0.7957747E-01            NaN
         13   -1    0    0    0    0  0.00000000000E+00  0.00000000000E+00  0.74505805969E-08  0.10566000000E+00  0.10566000000E+00 0.  1.
     999900   -1    0    0    0    0 -0.00000000000E+00 -0.00000000000E+00 -0.74505805969E-08  0.93827000000E+00  0.93827000000E+00 0. -1.
     999902    2    1    2    0    0  0.31718176211E-03 -0.20838830109E-01 -0.27541156867E-02  0.10229075692E+01  0.10226915236E+01 0.  0.
     999903    2    3    3    0    0 -0.23631511503E-01  0.67813894811E-01  0.15148574912E+00  0.16883041725E+00  0.19965092937E-01 0.  0.
         14    1    1    2    0    0 -0.31718176211E-03  0.20838830109E-01  0.27541156867E-02  0.21022430825E-01  0.00000000000E+00 0.  1.
     999901    1    3    3    0    0  0.23948693265E-01 -0.88652724920E-01 -0.15423986481E+00  0.85407715193E+00  0.83500000000E+00 0. -1.
        -11    1    4    4    0    0 -0.10078668691E-01  0.25514514355E-01  0.80943544071E-01  0.85467470146E-01  0.51100000000E-03 0.  1.
         11    1    4    4    0    0 -0.13552842812E-01  0.42299380456E-01  0.70542205052E-01  0.83362947104E-01  0.51100000000E-03 0. -1.
</event>
<event>
 8    1  0.5616615E+005  0.1043930E+01  0.7957747E-01            NaN
         13   -1    0    0    0    0  0.00000000000E+00  0.00000000000E+00  0.74505805969E-08  0.10566000000E+00  0.10566000000E+00 0.  1.
     999900   -1    0    0    0    0 -0.00000000000E+00 -0.00000000000E+00 -0.74505805969E-08  0.93827000000E+00  0.93827000000E+00 0.  1.
     999902    2    1    2    0    0  0.16378522972E-01  0.12997174095E-01  0.11916053834E-01  0.10198639474E+01  0.10195799607E+01 0.  0.
     999903    2    3    3    0    0  0.92044337151E-01 -0.10876594445E+00  0.88977500106E-01  0.16914951882E+00  0.19808420437E-01 0.  0.
         14    1    1    2    0    0 -0.16378522972E-01 -0.12997174095E-01 -0.11916053834E-01  0.24066052609E-01  0.00000000000E+00 0. -1.
     999901    1    3    3    0    0 -0.75665814180E-01  0.12176311854E+00 -0.77061446272E-01  0.85071442857E+00  0.83500000000E+00 0.  1.
        -11    1    4    4    0    0  0.39147700419E-01 -0.43513846081E-01  0.47939452312E-01  0.75660091579E-01  0.51100000000E-03 0.  1.
         11    1    4    4    0    0  0.52896636732E-01 -0.65252098365E-01  0.41038047794E-01  0.93489427244E-01  0.51100000000E-03 0. -1.
</event>
<event>
 8    1  0.5616615E+005  0.1043930E+01  0.7957747E-01            NaN
         13   -1    0    0    0    0  0.00000000000E+00  0.00000000000E+00  0.74505805969E-08  0.10566000000E+00  0.10566000000E+00 0.  1.
     999900   -1    0    0    0    0 -0.00000000000E+00 -0.00000000000E+00 -0.74505805969E-08  0.93827000000E+00  0.93827000000E+00 0. -1.
     999902    2    1    2    0    0 -0.85011946542E-02 -0.10742396174E-01 -0.19048054961E-01  0.10204673108E+01  0.10201975469E+01 0.  0.
     999903    2    3    3    0    0  0.44265191492E-01 -0.15743400204E+00  0.37817258916E-01  0.16913812497E+00  0.20801155503E-01 0.  0.
         14    1    1    2    0    0  0.85011946542E-02  0.10742396174E-01  0.19048054961E-01  0.23462689187E-01  0.00000000000E+00 0.  1.
     999901    1    3    3    0    0 -0.52766386146E-01  0.14669160587E+00 -0.56865313877E-01  0.85132918584E+00  0.83500000000E+00 0. -1.
        -11    1    4    4    0    0  0.16920833087E-01 -0.53960934568E-01  0.23160739081E-01  0.61112830139E-01  0.51100000000E-03 0.  1.
         11    1    4    4    0    0  0.27344358405E-01 -0.10347306748E+00  0.14656519835E-01  0.10802529483E+00  0.51100000000E-03 0. -1.
</event>
<event>
 8    1  0.5616615E+005  0.1043930E+01  0.7957747E-01            NaN
         13   -1    0    0    0    0  0.00000000000E+00  0.00000000000E+00  0.74505805969E-08  0.10566000000E+00  0.10566000000E+00 0. -1.
     999900   -1    0    0    0    0 -0.00000000000E+00 -0.00000000000E+00 -0.74505805969E-08  0.93827000000E+00  0.93827000000E+00 0. -1.
     999902    2    1    2    0    0  0.20390055104E-01 -0.12706277578E-01 -0.20753453013E-02  0.10198154630E+01  0.10195303172E+01 0.  0.
     999903    2    3    3    0    0  0.11165513672E-01 -0.12198356770E+00 -0.11611822984E+00  0.16995818214E+00  0.19941938009E-01 0.  0.
         14    1    1    2    0    0 -0.20390055104E-01  0.12706277578E-01  0.20753453013E-02  0.24114537009E-01  0.00000000000E+00 0. -1.
     999901    1    3    3    0    0  0.92245414321E-02  0.10927729012E+00  0.11404288454E+00  0.84985728085E+00  0.83500000000E+00 0.  1.
        -11    1    4    4    0    0 -0.50435110225E-02 -0.51561939662E-01 -0.50361152668E-01  0.72253563540E-01  0.51100000000E-03 0. -1.
         11    1    4    4    0    0  0.16209024694E-01 -0.70421628034E-01 -0.65757077174E-01  0.97704618601E-01  0.51100000000E-03 0.  1.
</event>
<event>
 8    1  0.5616615E+005  0.1043930E+01  0.7957747E-01            NaN
         13   -1    0    0    0    0  0.00000000000E+00  0.00000000000E+00  0.74505805969E-08  0.10566000000E+00  0.10566000000E+00 0. -1.
     999900   -1    0    0    0    0 -0.00000000000E+00 -0.00000000000E+00 -0.74505805969E-08  0.93827000000E+00  0.93827000000E+00 0.  1.
     999902    2    1    2    0    0  0.77838018515E-02 -0.10344544250E-01 -0.19438655827E-01  0.10205749469E+01  0.10203076809E+01 0.  0.
     999903    2    3    3    0    0  0.14539709447E+00  0.81840008439E-01  0.13804336568E-01  0.16865622620E+00  0.20402472041E-01 0.  0.
         14    1    1    2    0    0 -0.77838018515E-02  0.10344544250E-01  0.19438655827E-01  0.23355053144E-01  0.00000000000E+00 0. -1.
     999901    1    3    3    0    0 -0.13761329262E+00 -0.92184552689E-01 -0.33242992395E-01  0.85191872066E+00  0.83500000000E+00 0. -1.
        -11    1    4    4    0    0  0.54569138819E-01  0.19788082031E-01  0.30198034718E-02  0.58126925223E-01  0.51100000000E-03 0.  1.
         11    1    4    4    0    0  0.90827955654E-01  0.62051926408E-01  0.10784533097E-01  0.11052930098E+00  0.51100000000E-03 0. -1.
</event>
<event>
 8    1  0.5616615E+005  0.1043930E+01  0.7957747E-01            NaN
         13   -1    0    0    0    0  0.00000000000E+00  0.00000000000E+00  0.74505805969E-08  0.10566000000E+00  0.10566000000E+00 0. -1.
     999900   -1    0    0    0    0 -0.00000000000E+00 -0.00000000000E+00 -0.74505805969E-08  0.93827000000E+00  0.93827000000E+00 0.  1.
     999902    2    1    2    0    0  0.64403898820E-02 -0.18803074877E-01 -0.12793967204E-01  0.10202927446E+01  0.10200189041E+01 0.  0.
     999903    2    3    3    0    0 -0.55815406605E-02  0.37924529690E-01  0.15990584034E+00  0.16565084797E+00  0.20022540047E-01 0.  0.
         14    1    1    2    0    0 -0.64403898820E-02  0.18803074877E-01  0.12793967204E-01  0.23637255413E-01  0.00000000000E+00 0. -1.
     999901    1    3    3    0    0  0.12021930542E-01 -0.56727604567E-01 -0.17269980754E+00  0.85464189662E+00  0.83500000000E+00 0. -1.
        -11    1    4    4    0    0 -0.13449792555E-02  0.14542444325E-01  0.10223455574E+00  0.10327370025E+00  0.51100000000E-03 0. -1.
         11    1    4    4    0    0 -0.42365614050E-02  0.23382085365E-01  0.57671284601E-01  0.62377147716E-01  0.51100000000E-03 0.  1.
</event>
<event>
 8    1  0.5616615E+005  0.1043930E+01  0.7957747E-01            NaN
         13   -1    0    0    0    0  0.00000000000E+00  0.00000000000E+00  0.74505805969E-08  0.10566000000E+00  0.10566000000E+00 0.  1.
     999900   -1    0    0    0    0 -0.00000000000E+00 -0.00000000000E+00 -0.74505805969E-08  0.93827000000E+00  0.93827000000E+00 0.  1.
     999902    2    1    2    0    0  0.86754179927E-02  0.15751308644E-01 -0.13965267178E-01  0.10211617043E+01  0.10209078465E+01 0.  0.
     999903    2    3    3    0    0  0.10981965241E+00  0.67564346331E-01 -0.11286184130E+00  0.17268054400E+00  0.21341932964E-01 0.  0.
         14    1    1    2    0    0 -0.86754179927E-02 -0.15751308644E-01  0.13965267178E-01  0.22768295692E-01  0.00000000000E+00 0.  1.
     999901    1    3    3    0    0 -0.10114423442E+00 -0.51813037686E-01  0.98896574122E-01  0.84848116031E+00  0.83500000000E+00 0. -1.
        -11    1    4    4    0    0  0.69431563840E-01  0.53095106667E-01 -0.69395696226E-01  0.11160580713E+00  0.51100000000E-03 0.  1.
         11    1    4    4    0    0  0.40388088571E-01  0.14469239663E-01 -0.43466145073E-01  0.61074736867E-01  0.51100000000E-03 0. -1.
</event>
<event>
 8    1  0.5616615E+005  0.1043930E+01  0.7957747E-01            NaN
         13   -1    0    0    0    0  0.00000000000E+00  0.00000000000E+00  0.74505805969E-08  0.10566000000E+00  0.10566000000E+00 0.  1.
     999900   -1    0    0    0    0 -0.00000000000E+00 -0.00000000000E+00 -0.74505805969E-08  0.93827000000E+00  0.93827000000E+00 0.  1.
     999902    2    1    2    0    0 -0.21557766444E-01  0.18012480200E-01  0.29748223013E-02  0.10156804636E+01  0.10152875297E+01 0.  0.
     999903    2    3    3    0    0  0.41441137899E-02  0.54834192363E-01  0.15508844272E+00  0.16575106736E+00  0.19925584955E-01 0.  0.
         14    1    1    2    0    0  0.21557766444E-01 -0.18012480200E-01 -0.29748223013E-02  0.28249536363E-01  0.00000000000E+00 0.  1.
     999901    1    3    3    0    0 -0.25701880234E-01 -0.36821712163E-01 -0.15211362042E+00  0.84992939627E+00  0.83500000000E+00 0.  1.
        -11    1    4    4    0    0  0.43646841075E-02  0.85309591043E-03  0.13323484128E-01  0.14055411424E-01  0.51100000000E-03 0.  1.
         11    1    4    4    0    0 -0.22057031753E-03  0.53981096453E-01  0.14176495859E+00  0.15169565594E+00  0.51100000000E-03 0. -1.
</event>
<event>
 8    1  0.5616615E+005  0.1043930E+01  0.7957747E-01            NaN
         13   -1    0    0    0    0  0.00000000000E+00  0.00000000000E+00  0.74505805969E-08  0.10566000000E+00  0.10566000000E+00 0. -1.
     999900   -1    0    0    0    0 -0.00000000000E+00 -0.00000000000E+00 -0.74505805969E-08  0.93827000000E+00  0.93827000000E+00 0.  1.
     999902    2    1    2    0    0 -0.12695212436E-01 -0.71315403148E-03  0.19591029986E-01  0.10205743698E+01  0.10203070904E+01 0.  0.
     999903    2    3    3    0    0  0.23762473771E-01  0.13861700206E+00  0.93361113467E-01  0.17003978464E+00  0.20442662078E-01 0.  0.
         14    1    1    2    0    0  0.12695212436E-01  0.71315403148E-03 -0.19591029986E-01  0.23355630229E-01  0.00000000000E+00 0.  1.
     999901    1    3    3    0    0 -0.36457686207E-01 -0.13933015610E+00 -0.73770083481E-01  0.85053458513E+00  0.83500000000E+00 0. -1.
        -11    1    4    4    0    0  0.96034834250E-02  0.92442651212E-01  0.70203118516E-01  0.11647578988E+00  0.51100000000E-03 0.  1.
         11    1    4    4    0    0  0.14158990346E-01  0.46174350852E-01  0.23157994951E-01  0.53563994767E-01  0.51100000000E-03 0. -1.
</event>
<event>
 8    1  0.5616615E+005  0.1043930E+01  0.7957747E-01            NaN
         13   -1    0    0    0    0  0.00000000000E+00  0.00000000000E+00  0.74505805969E-08  0.10566000000E+00  0.10566000000E+00 0.  1.
     999900   -1    0    0    0    0 -0.00000000000E+00 -0.00000000000E+00 -0.74505805969E-08  0.93827000000E+00  0.93827000000E+00 0.  1.
     999902    2    1    2    0    0  0.18169589646E-01  0.13192224722E-01 -0.79150342829E-02  0.10201220906E+01  0.10198442348E+01 0.  0.
     999903    2    3    3    0    0  0.11313365021E+00 -0.11724468288E+00  0.37925986644E-01  0.16844236276E+00  0.19720817257E-01 0.  0.
         14    1    1    2    0    0 -0.18169589646E-01 -0.13192224722E-01  0.79150342829E-02  0.23807909373E-01  0.00000000000E+00 0. -1.
     999901    1    3    3    0    0 -0.94964060567E-01  0.13043690761E+00 -0.45841020927E-01  0.85167972787E+00  0.83500000000E+00 0. -1.
        -11    1    4    4    0    0  0.31103466599E-01 -0.23546107405E-01  0.15098222242E-01  0.41833745282E-01  0.51100000000E-03 0. -1.
         11    1    4    4    0    0  0.82030183613E-01 -0.93698575479E-01  0.22827764402E-01  0.12660861748E+00  0.51100000000E-03 0.  1.
</event>
<event>
 8    1  0.5616615E+005  0.1043930E+01  0.7957747E-01            NaN
         13   -1    0    0    0    0  0.00000000000E+00  0.00000000000E+00  0.74505805969E-08  0.10566000000E+00  0.10566000000E+00 0. -1.
     999900   -1    0    0    0    0 -0.00000000000E+00 -0.00000000000E+00 -0.74505805969E-08  0.93827000000E+00  0.93827000000E+00 0. -1.
     999902    2    1    2    0    0 -0.29070906426E-02  0.79723539112E-02  0.21132643828E-01  0.10211572479E+01  0.10209032896E+01 0.  0.
     999903    2    3    3    0    0 -0.43399360956E-02 -0.15846253703E+00  0.55126384801E-01  0.16905208984E+00  0.20260308291E-01 0.  0.
         14    1    1    2    0    0  0.29070906426E-02 -0.79723539112E-02 -0.21132643828E-01  0.22772752096E-01  0.00000000000E+00 0.  1.
     999901    1    3    3    0    0  0.14328454530E-02  0.16643489094E+00 -0.33993740973E-01  0.85210515806E+00  0.83500000000E+00 0. -1.
        -11    1    4    4    0    0 -0.12363844107E-01 -0.10336992753E+00  0.37402566286E-01  0.11062287126E+00  0.51100000000E-03 0.  1.
         11    1    4    4    0    0  0.80239080115E-02 -0.55092609494E-01  0.17723818514E-01  0.58429218585E-01  0.51100000000E-03 0. -1.
</event>
<event>
 8    1  0.5616615E+005  0.1043930E+01  0.7957747E-01            NaN
         13   -1    0    0    0    0  0.00000000000E+00  0.00000000000E+00  0.74505805969E-08  0.10566000000E+00  0.10566000000E+00 0. -1.
     999900   -1    0    0    0    0 -0.00000000000E+00 -0.00000000000E+00 -0.74505805969E-08  0.93827000000E+00  0.93827000000E+00 0.  1.
     999902    2    1    2    0    0 -0.25759022782E-02 -0.15081902466E-01  0.21136825623E-01  0.10178366205E+01  0.10175020991E+01 0.  0.
     999903    2    3    3    0    0  0.10168741598E+00  0.85652557600E-02 -0.12590375728E+00  0.16327476751E+00  0.19829256957E-01 0.  0.
         14    1    1    2    0    0  0.25759022782E-02  0.15081902466E-01 -0.21136825623E-01  0.26093379466E-01  0.00000000000E+00 0.  1.
     999901    1    3    3    0    0 -0.10426331826E+00 -0.23647158226E-01  0.14704058290E+00  0.85456185303E+00  0.83500000000E+00 0. -1.
        -11    1    4    4    0    0  0.32885815105E-01 -0.41832758649E-02 -0.50442408637E-01  0.60362855650E-01  0.51100000000E-03 0. -1.
         11    1    4    4    0    0  0.68801600878E-01  0.12748531625E-01 -0.75461348645E-01  0.10291191186E+00  0.51100000000E-03 0.  1.
</event>
<event>
 8    1  0.5616615E+005  0.1043930E+01  0.7957747E-01            NaN
         13   -1    0    0    0    0  0.00000000000E+00  0.00000000000E+00  0.74505805969E-08  0.10566000000E+00  0.10566000000E+00 0. -1.
     999900   -1    0    0    0    0 -0.00000000000E+00 -0.00000000000E+00 -0.74505805969E-08  0.93827000000E+00  0.93827000000E+00 0.  1.
     999902    2    1    2    0    0  0.20842962289E-02  0.15621738789E-01  0.17702966755E-01  0.10202281426E+01  0.10199527856E+01 0.  0.
     999903    2    3    3    0    0 -0.68648414563E-01 -0.12913700541E+00 -0.73840568802E-01  0.16491332960E+00  0.18841594674E-01 0.  0.
         14    1    1    2    0    0 -0.20842962289E-02 -0.15621738789E-01 -0.17702966755E-01  0.23701857427E-01  0.00000000000E+00 0.  1.
     999901    1    3    3    0    0  0.70732710792E-01  0.14475874420E+00  0.91543535557E-01  0.85531481298E+00  0.83500000000E+00 0. -1.
        -11    1    4    4    0    0 -0.26138984701E-01 -0.39076361262E-01 -0.15561333612E-01  0.49523981620E-01  0.51100000000E-03 0. -1.
         11    1    4    4    0    0 -0.42509429862E-01 -0.90060644144E-01 -0.58279235190E-01  0.11538934798E+00  0.51100000000E-03 0.  1.
</event>
<event>
 8    1  0.5616615E+005  0.1043930E+01  0.7957747E-01            NaN
         13   -1    0    0    0    0  0.00000000000E+00  0.00000000000E+00  0.74505805969E-08  0.10566000000E+00  0.10566000000E+00 0.  1.
     999900   -1    0    0    0    0 -0.00000000000E+00 -0.00000000000E+00 -0.74505805969E-08  0.93827000000E+00  0.93827000000E+00 0.  1.
     999902    2    1    2    0    0  0.16872297033E-01 -0.35858541040E-02 -0.19123690995E-01  0.10181763922E+01  0.10178506361E+01 0.  0.
     999903    2    3    3    0    0 -0.12332492471E+00  0.10601395391E+00 -0.11151545914E-01  0.16438722972E+00  0.21232259424E-01 0.  0.
         14    1    1    2    0    0 -0.16872297033E-01  0.35858541040E-02  0.19123690995E-01  0.25753607788E-01  0.00000000000E+00 0.  1.
     999901    1    3    3    0    0  0.14019722174E+00 -0.10959980801E+00 -0.79721450815E-02  0.85378916250E+00  0.83500000000E+00 0. -1.
        -11    1    4    4    0    0 -0.17911328886E-01  0.12094016300E-01 -0.83489714517E-02  0.23174282686E-01  0.51100000000E-03 0.  1.
         11    1    4    4    0    0 -0.10541359582E+00  0.93919937606E-01 -0.28025744622E-02  0.14121294703E+00  0.51100000000E-03 0. -1.
</event>
<event>
 8    1  0.5616615E+005  0.1043930E+01  0.7957747E-01            NaN
         13   -1    0    0    0    0  0.00000000000E+00  0.00000000000E+00  0.74505805969E-08  0.10566000000E+00  0.10566000000E+00 0.  1.
     999900   -1    0    0    0    0 -0.00000000000E+00 -0.00000000000E+00 -0.74505805969E-08  0.93827000000E+00  0.93827000000E+00 0. -1.
     999902    2    1    2    0    0 -0.48607325866E-02  0.38683860593E-02  0.23684997382E-01  0.10194438767E+01  0.10191497670E+01 0.  0.
     999903    2    3    3    0    0  0.96945294148E-01  0.56218593682E-01  0.12660369629E+00  0.17037246047E+00  0.20960893091E-01 0.  0.
         14    1    1    2    0    0  0.48607325866E-02 -0.38683860593E-02 -0.23684997382E-01  0.24486123274E-01  0.00000000000E+00 0. -1.
     999901    1    3    3    0    0 -0.10180602673E+00 -0.52350207622E-01 -0.10291869891E+00  0.84907141626E+00  0.83500000000E+00 0. -1.
        -11    1    4    4    0    0  0.57363080632E-01  0.23976304202E-01  0.79340047973E-01  0.10079925851E+00  0.51100000000E-03 0.  1.
         11    1    4    4    0    0  0.39582213517E-01  0.32242289479E-01  0.47263648318E-01  0.69573201961E-01  0.51100000000E-03 0. -1.
</event>
<event>
 8    1  0.5616615E+005  0.1043930E+01  0.7957747E-01            NaN
         13   -1    0    0    0    0  0.00000000000E+00  0.00000000000E+00  0.74505805969E-08  0.10566000000E+00  0.10566000000E+00 0.  1.
     999900   -1    0    0    0    0 -0.00000000000E+00 -0.00000000000E+00 -0.74505805969E-08  0.93827000000E+00  0.93827000000E+00 0.  1.
     999902    2    1    2    0    0 -0.64733986937E-02 -0.19998752416E-01 -0.97872485098E-02  0.10207428220E+01  0.10204794283E+01 0.  0.
     999903    2    3    3    0    0 -0.62966324721E-01  0.41199540880E-01  0.14766496649E+00  0.16695544698E+00  0.20174705156E-01 0.  0.
         14    1    1    2    0    0  0.64733986937E-02  0.19998752416E-01  0.97872485098E-02  0.23187177970E-01  0.00000000000E+00 0.  1.
     999901    1    3    3    0    0  0.56492926028E-01 -0.61198293296E-01 -0.15745221500E+00  0.85378737505E+00  0.83500000000E+00 0.  1.
        -11    1    4    4    0    0 -0.11616655168E-01  0.33198072570E-02  0.40133321415E-01  0.41915538960E-01  0.51100000000E-03 0. -1.
         11    1    4    4    0    0 -0.51349669553E-01  0.37879733623E-01  0.10753164508E+00  0.12503990802E+00  0.51100000000E-03 0.  1.
</event>
<event>
 8    1  0.5616615E+005  0.1043930E+01  0.7957747E-01            NaN
         13   -1    0    0    0    0  0.00000000000E+00  0.00000000000E+00  0.74505805969E-08  0.10566000000E+00  0.10566000000E+00 0.  1.
     999900   -1    0    0    0    0 -0.00000000000E+00 -0.00000000000E+00 -0.74505805969E-08  0.93827000000E+00  0.93827000000E+00 0. -1.
     999902    2    1    2    0    0  0.17525740499E-01 -0.29986303846E-03  0.15751271610E-01  0.10203642610E+01  0.10200920944E+01 0.  0.
     999903    2    3    3    0    0  0.15470304410E+00 -0.65965528949E-01 -0.20595220360E-01  0.17084930539E+00  0.21928045720E-01 0.  0.
         14    1    1    2    0    0 -0.17525740499E-01  0.29986303846E-03 -0.15751271610E-01  0.23565739013E-01  0.00000000000E+00 0. -1.
     999901    1    3    3    0    0 -0.13717730360E+00  0.65665665911E-01  0.36346491970E-01  0.84951495560E+00  0.83500000000E+00 0. -1.
        -11    1    4    4    0    0  0.34430160844E-01 -0.14967151486E-01 -0.13906421853E-01  0.40038747347E-01  0.51100000000E-03 0.  1.
         11    1    4    4    0    0  0.12027288325E+00 -0.50998377463E-01 -0.66887985074E-02  0.13081055804E+00  0.51100000000E-03 0. -1.
</event>
<event>
 8    1  0.5616615E+005  0.1043930E+01  0.7957747E-01            NaN
         13   -1    0    0    0    0  0.00000000000E+00  0.00000000000E+00  0.74505805969E-08  0.10566000000E+00  0.10566000000E+00 0.  1.
     999900   -1    0    0    0    0 -0.00000000000E+00 -0.00000000000E+00 -0.74505805969E-08  0.93827000000E+00  0.93827000000E+00 0. -1.
     999902    2    1    2    0    0 -0.12110493067E-01 -0.91059270193E-02 -0.19848886749E-01  0.10189588115E+01  0.10186527864E+01 0.  0.
     999903    2    3    3    0    0 -0.66087277313E-01 -0.15665959288E-01  0.14938608919E+00  0.16524808513E+00  0.19436447501E-01 0.  0.
         14    1    1    2    0    0  0.12110493067E-01  0.91059270193E-02  0.19848886749E-01  0.24971188485E-01  0.00000000000E+00 0.  1.
     999901    1    3    3    0    0  0.53976784245E-01  0.65600322690E-02 -0.16923497594E+00  0.85371072638E+00  0.83500000000E+00 0. -1.
        -11    1    4    4    0    0 -0.59917565022E-01 -0.10003044826E-01  0.11748002000E+00  0.13225729365E+00  0.51100000000E-03 0.  1.
         11    1    4    4    0    0 -0.61697122910E-02 -0.56629144625E-02  0.31906069192E-01  0.32990791476E-01  0.51100000000E-03 0. -1.
</event>
<event>
 8    1  0.5616615E+005  0.1043930E+01  0.7957747E-01            NaN
         13   -1    0    0    0    0  0.00000000000E+00  0.00000000000E+00  0.74505805969E-08  0.10566000000E+00  0.10566000000E+00 0.  1.
     999900   -1    0    0    0    0 -0.00000000000E+00 -0.00000000000E+00 -0.74505805969E-08  0.93827000000E+00  0.93827000000E+00 0.  1.
     999902    2    1    2    0    0 -0.19100695062E-01  0.11445761872E-01 -0.65557406156E-02  0.10207175087E+01  0.10204535329E+01 0.  0.
     999903    2    3    3    0    0  0.99939885308E-01 -0.72324430933E-01 -0.11045194785E+00  0.16678101994E+00  0.19936695896E-01 0.  0.
         14    1    1    2    0    0  0.19100695062E-01 -0.11445761872E-01  0.65557406156E-02  0.23212491286E-01  0.00000000000E+00 0.  1.
     999901    1    3    3    0    0 -0.11904058037E+00  0.83770192805E-01  0.10389620724E+00  0.85393648877E+00  0.83500000000E+00 0.  1.
        -11    1    4    4    0    0  0.71255747810E-02  0.15536134246E-03 -0.75318693378E-02  0.10382106233E-01  0.51100000000E-03 0.  1.
         11    1    4    4    0    0  0.92814310527E-01 -0.72479792275E-01 -0.10292007852E+00  0.15639891371E+00  0.51100000000E-03 0. -1.
</event>
<event>
 8    1  0.5616615E+005  0.1043930E+01  0.7957747E-01            NaN
         13   -1    0    0    0    0  0.00000000000E+00  0.00000000000E+00  0.74505805969E-08  0.10566000000E+00  0.10566000000E+00 0.  1.
     999900   -1    0    0    0    0 -0.00000000000E+00 -0.00000000000E+00 -0.74505805969E-08  0.93827000000E+00  0.93827000000E+00 0.  1.
     999902    2    1    2    0    0 -0.97871298427E-02 -0.65147404980E-02 -0.19233171372E-01  0.10213879363E+01  0.10211391540E+01 0.  0.
     999903    2    3    3    0    0 -0.10235196494E+00  0.49416031332E-01  0.12159667842E+00  0.16771671943E+00  0.20622242692E-01 0.  0.
         14    1    1    2    0    0  0.97871298427E-02  0.65147404980E-02  0.19233171372E-01  0.22542063689E-01  0.00000000000E+00 0.  1.
     999901    1    3    3    0    0  0.92564835097E-01 -0.55930771830E-01 -0.14082984980E+00  0.85367121688E+00  0.83500000000E+00 0. -1.
        -11    1    4    4    0    0 -0.88397218831E-01  0.49737937506E-01  0.10435468249E+00  0.14552694459E+00  0.51100000000E-03 0. -1.
         11    1    4    4    0    0 -0.13954746109E-01 -0.32190617423E-03  0.17241995935E-01  0.22189774839E-01  0.51100000000E-03 0.  1.
</event>
<event>
 8    1  0.5616615E+005  0.1043930E+01  0.7957747E-01            NaN
         13   -1    0    0    0    0  0.00000000000E+00  0.00000000000E+00  0.74505805969E-08  0.10566000000E+00  0.10566000000E+00 0.  1.
     999900   -1    0    0    0    0 -0.00000000000E+00 -0.00000000000E+00 -0.74505805969E-08  0.93827000000E+00  0.93827000000E+00 0. -1.
     999902    2    1    2    0    0  0.22950225474E-01  0.75461939512E-02 -0.12377965907E-02  0.10197392986E+01  0.10194523271E+01 0.  0.
     999903    2    3    3    0    0  0.14571606285E+00  0.19441865769E-01  0.85457431107E-01  0.17123825541E+00  0.20209167950E-01 0.  0.
         14    1    1    2    0    0 -0.22950225474E-01 -0.75461939512E-02  0.12377965907E-02  0.24190701372E-01  0.00000000000E+00 0.  1.
     999901    1    3    3    0    0 -0.12276583737E+00 -0.11895671818E-01 -0.86695227697E-01  0.84850104322E+00  0.83500000000E+00 0. -1.
        -11    1    4    4    0    0  0.61249331307E-01 -0.20047198475E-04  0.28812944605E-01  0.67689939320E-01  0.51100000000E-03 0.  1.
         11    1    4    4    0    0  0.84466731539E-01  0.19461912968E-01  0.56644486502E-01  0.10354831609E+00  0.51100000000E-03 0. -1.
</event>
<event>
 8    1  0.5616615E+005  0.1043930E+01  0.7957747E-01            NaN
         13   -1    0    0    0    0  0.00000000000E+00  0.00000000000E+00  0.74505805969E-08  0.10566000000E+00  0.10566000000E+00 0. -1.
     999900   -1    0    0    0    0 -0.00000000000E+00 -0.00000000000E+00 -0.74505805969E-08  0.93827000000E+00  0.93827000000E+00 0. -1.
     999902    2    1    2    0    0  0.16153322632E-01 -0.94220105104E-02  0.15037235641E-01  0.10199336967E+01  0.10196513734E+01 0.  0.
     999903    2    3    3    0    0 -0.24048951869E-01 -0.14250427404E+00 -0.82742239063E-01  0.16781108971E+00  0.20699359908E-01 0.  0.
         14    1    1    2    0    0 -0.16153322632E-01  0.94220105104E-02 -0.15037235641E-01  0.23996303253E-01  0.00000000000E+00 0.  1.
     999901    1    3    3    0    0  0.40202274501E-01  0.13308226353E+00  0.97779474704E-01  0.85212260703E+00  0.83500000000E+00 0.  1.
        -11    1    4    4    0    0 -0.51450283015E-02 -0.75246317994E-01 -0.51164959268E-01  0.91140517147E-01  0.51100000000E-03 0. -1.
         11    1    4    4    0    0 -0.18903923567E-01 -0.67257956045E-01 -0.31577279794E-01  0.76670572567E-01  0.51100000000E-03 0.  1.
</event>
<event>
 8    1  0.5616615E+005  0.1043930E+01  0.7957747E-01            NaN
         13   -1    0    0    0    0  0.00000000000E+00  0.00000000000E+00  0.74505805969E-08  0.10566000000E+00  0.10566000000E+00 0. -1.
     999900   -1    0    0    0    0 -0.00000000000E+00 -0.00000000000E+00 -0.74505805969E-08  0.93827000000E+00  0.93827000000E+00 0. -1.
     999902    2    1    2    0    0  0.86753906886E-02 -0.99608562245E-03  0.22285353668E-01  0.10199948464E+01  0.10197139771E+01 0.  0.
     999903    2    3    3    0    0  0.11609037344E+00  0.19355450971E-01 -0.11610505336E+00  0.16657287086E+00  0.20360000109E-01 0.  0.
         14    1    1    2    0    0 -0.86753906886E-02  0.99608562245E-03 -0.22285353668E-01  0.23935153609E-01  0.00000000000E+00 0.  1.
     999901    1    3    3    0    0 -0.10741498275E+00 -0.20351536594E-01  0.13839040703E+00  0.85342197553E+00  0.83500000000E+00 0.  1.
        -11    1    4    4    0    0  0.27503833289E-01  0.13476647898E-01 -0.31304735057E-01  0.43798726490E-01  0.51100000000E-03 0.  1.
         11    1    4    4    0    0  0.88586540150E-01  0.58788030734E-02 -0.84800318300E-01  0.12277414437E+00  0.51100000000E-03 0. -1.
</event>
<event>
 8    1  0.5616615E+005  0.1043930E+01  0.7957747E-01            NaN
         13   -1    0    0    0    0  0.00000000000E+00  0.00000000000E+00  0.74505805969E-08  0.10566000000E+00  0.10566000000E+00 0. -1.
     999900   -1    0    0    0    0 -0.00000000000E+00 -0.00000000000E+00 -0.74505805969E-08  0.93827000000E+00  0.93827000000E+00 0. -1.
     999902    2    1    2    0    0 -0.60369291886E-02  0.17056294276E-01 -0.14461044564E-01  0.10207678866E+01  0.10205050685E+01 0.  0.
     999903    2    3    3    0    0 -0.84574118261E-01  0.80094390401E-01 -0.12558800806E+00  0.17240705907E+00  0.19594728734E-01 0.  0.
         14    1    1    2    0    0  0.60369291886E-02 -0.17056294276E-01  0.14461044564E-01  0.23162113426E-01  0.00000000000E+00 0. -1.
     999901    1    3    3    0    0  0.78537189072E-01 -0.63038096125E-01  0.11112696350E+00  0.84836082751E+00  0.83500000000E+00 0.  1.
        -11    1    4    4    0    0 -0.59050031512E-01  0.44658147066E-01 -0.85782057128E-01  0.11331407136E+00  0.51100000000E-03 0. -1.
         11    1    4    4    0    0 -0.25524086749E-01  0.35436243336E-01 -0.39805950934E-01  0.59092987713E-01  0.51100000000E-03 0.  1.
</event>
<event>
 8    1  0.5616615E+005  0.1043930E+01  0.7957747E-01            NaN
         13   -1    0    0    0    0  0.00000000000E+00  0.00000000000E+00  0.74505805969E-08  0.10566000000E+00  0.10566000000E+00 0.  1.
     999900   -1    0    0    0    0 -0.00000000000E+00 -0.00000000000E+00 -0.74505805969E-08  0.93827000000E+00  0.93827000000E+00 0.  1.
     999902    2    1    2    0    0  0.11715758342E-01 -0.20537144188E-01  0.37267488836E-02  0.10199942121E+01  0.10197133277E+01 0.  0.
     999903    2    3    3    0    0  0.52381418025E-01 -0.12081830266E+00  0.10818439327E+00  0.17155658559E+00  0.19670381282E-01 0.  0.
         14    1    1    2    0    0 -0.11715758342E-01  0.20537144188E-01 -0.37267488836E-02  0.23935787895E-01  0.00000000000E+00 0. -1.
     999901    1    3    3    0    0 -0.40665659683E-01  0.10028115847E+00 -0.10445764438E+00  0.84843762652E+00  0.83500000000E+00 0.  1.
        -11    1    4    4    0    0  0.41318585634E-01 -0.96202874546E-01  0.95576916307E-01  0.14176539296E+00  0.51100000000E-03 0.  1.
         11    1    4    4    0    0  0.11062832391E-01 -0.24615428115E-01  0.12607476959E-01  0.29791192625E-01  0.51100000000E-03 0. -1.
</event>
<event>
 8    1  0.5616615E+005  0.1043930E+01  0.7957747E-01            NaN
         13   -1    0    0    0    0  0.00000000000E+00  0.00000000000E+00  0.74505805969E-08  0.10566000000E+00  0.10566000000E+00 0.  1.
     999900   -1    0    0    0    0 -0.00000000000E+00 -0.00000000000E+00 -0.74505805969E-08  0.93827000000E+00  0.93827000000E+00 0.  1.
     999902    2    1    2    0    0  0.13278884232E-01  0.20887626431E-01 -0.11715041473E-02  0.10191510951E+01  0.10188498224E+01 0.  0.
     999903    2    3    3    0    0  0.16436778737E+00 -0.32744951402E-01 -0.20361323811E-02  0.16889815769E+00  0.20819233149E-01 0.  0.
         14    1    1    2    0    0 -0.13278884232E-01 -0.20887626431E-01  0.11715041473E-02  0.24778904866E-01  0.00000000000E+00 0.  1.
     999901    1    3    3    0    0 -0.15108890313E+00  0.53632577833E-01  0.86462823383E-03  0.85025293745E+00  0.83500000000E+00 0. -1.
        -11    1    4    4    0    0  0.91940550775E-01 -0.23206779441E-01 -0.10275368947E-01  0.95380626004E-01  0.51100000000E-03 0.  1.
         11    1    4    4    0    0  0.72427236592E-01 -0.95381719607E-02  0.82392365660E-02  0.73517531683E-01  0.51100000000E-03 0. -1.
</event>
<event>
 8    1  0.5616615E+005  0.1043930E+01  0.7957747E-01            NaN
         13   -1    0    0    0    0  0.00000000000E+00  0.00000000000E+00  0.74505805969E-08  0.10566000000E+00  0.10566000000E+00 0. -1.
     999900   -1    0    0    0    0 -0.00000000000E+00 -0.00000000000E+00 -0.74505805969E-08  0.93827000000E+00  0.93827000000E+00 0.  1.
     999902    2    1    2    0    0 -0.58650955677E-02  0.22752259027E-01  0.45948589206E-02  0.10199888771E+01  0.10197078660E+01 0.  0.
     999903    2    3    3    0    0 -0.86705765767E-01  0.14714172424E+00  0.24305629977E-02  0.17191008525E+00  0.19457465033E-01 0.  0.
         14    1    1    2    0    0  0.58650955677E-02 -0.22752259027E-01 -0.45948589206E-02  0.23941122892E-01  0.00000000000E+00 0.  1.
     999901    1    3    3    0    0  0.80840670200E-01 -0.12438946521E+00  0.21642959228E-02  0.84807879185E+00  0.83500000000E+00 0. -1.
        -11    1    4    4    0    0 -0.35463560589E-01  0.42397188603E-01 -0.27736073903E-04  0.55276103529E-01  0.51100000000E-03 0.  1.
         11    1    4    4    0    0 -0.51242205178E-01  0.10474453564E+00  0.24582990716E-02  0.11663398172E+00  0.51100000000E-03 0. -1.
</event>
<event>
 8    1  0.5616615E+005  0.1043930E+01  0.7957747E-01            NaN
         13   -1    0    0    0    0  0.00000000000E+00  0.00000000000E+00  0.74505805969E-08  0.10566000000E+00  0.10566000000E+00 0. -1.
     999900   -1    0    0    0    0 -0.00000000000E+00 -0.00000000000E+00 -0.74505805969E-08  0.93827000000E+00  0.93827000000E+00 0. -1.
     999902    2    1    2    0    0 -0.84142610141E-02  0.65078512318E-02  0.21048899707E-01  0.10203459356E+01  0.10200733406E+01 0.  0.
     999903    2    3    3    0    0 -0.14596275673E+00  0.52942688265E-01  0.69862344982E-01  0.17141511672E+00  0.19858005959E-01 0.  0.
         14    1    1    2    0    0  0.84142610141E-02 -0.65078512318E-02 -0.21048899707E-01  0.23584064428E-01  0.00000000000E+00 0.  1.
     999901    1    3    3    0    0  0.13754849571E+00 -0.46434837033E-01 -0.48813445275E-01  0.84893081886E+00  0.83500000000E+00 0.  1.
        -11    1    4    4    0    0 -0.80987164790E-01  0.19181054159E-01  0.39862199504E-01  0.92282662346E-01  0.51100000000E-03 0. -1.
         11    1    4    4    0    0 -0.64975591936E-01  0.33761634107E-01  0.30000145478E-01  0.79132454371E-01  0.51100000000E-03 0.  1.
</event>
<event>
 8    1  0.5616615E+005  0.1043930E+01  0.7957747E-01            NaN
         13   -1    0    0    0    0  0.00000000000E+00  0.00000000000E+00  0.74505805969E-08  0.10566000000E+00  0.10566000000E+00 0. -1.
     999900   -1    0    0    0    0 -0.00000000000E+00 -0.00000000000E+00 -0.74505805969E-08  0.93827000000E+00  0.93827000000E+00 0.  1.
     999902    2    1    2    0    0 -0.13111784303E-01  0.47118648442E-02  0.18927297683E-01  0.10204275926E+01  0.10201569039E+01 0.  0.
     999903    2    3    3    0    0  0.78829745472E-01 -0.14561685642E+00  0.84312701146E-02  0.16697159725E+00  0.19749185504E-01 0.  0.
         14    1    1    2    0    0  0.13111784303E-01 -0.47118648442E-02 -0.18927297683E-01  0.23502407440E-01  0.00000000000E+00 0.  1.
     999901    1    3    3    0    0 -0.91941529775E-01  0.15032872126E+00  0.10496027568E-01  0.85345599531E+00  0.83500000000E+00 0. -1.
        -11    1    4    4    0    0  0.56691821164E-01 -0.10559448010E+00  0.14908533233E-01  0.12077533812E+00  0.51100000000E-03 0.  1.
         11    1    4    4    0    0  0.22137924309E-01 -0.40022376319E-01 -0.64772631185E-02  0.46196259128E-01  0.51100000000E-03 0. -1.
</event>
<event>
 8    1  0.5616615E+005  0.1043930E+01  0.7957747E-01            NaN
         13   -1    0    0    0    0  0.00000000000E+00  0.00000000000E+00  0.74505805969E-08  0.10566000000E+00  0.10566000000E+00 0. -1.
     999900   -1    0    0    0    0 -0.00000000000E+00 -0.00000000000E+00 -0.74505805969E-08  0.93827000000E+00  0.93827000000E+00 0.  1.
     999902    2    1    2    0    0 -0.16269942117E-01 -0.17064921793E-01 -0.19535373734E-02  0.10202711987E+01  0.10199968529E+01 0.  0.
     999903    2    3    3    0    0  0.15638998812E+00  0.52048556017E-02  0.50620725780E-01  0.16569735888E+00  0.20204899283E-01 0.  0.
         14    1    1    2    0    0  0.16269942117E-01  0.17064921793E-01  0.19535373734E-02  0.23658801334E-01  0.00000000000E+00 0. -1.
     999901    1    3    3    0    0 -0.17265993024E+00 -0.22269777395E-01 -0.52574263154E-01  0.85457383978E+00  0.83500000000E+00 0.  1.
        -11    1    4    4    0    0  0.12641470922E+00  0.75076831105E-02  0.33082665170E-01  0.13088837943E+00  0.51100000000E-03 0.  1.
         11    1    4    4    0    0  0.29975278904E-01 -0.23028275089E-02  0.17538060611E-01  0.34808979458E-01  0.51100000000E-03 0. -1.
</event>
<event>
 8    1  0.5616615E+005  0.1043930E+01  0.7957747E-01            NaN
         13   -1    0    0    0    0  0.00000000000E+00  0.00000000000E+00  0.74505805969E-08  0.10566000000E+00  0.10566000000E+00 0.  1.
     999900   -1    0    0    0    0 -0.00000000000E+00 -0.00000000000E+00 -0.74505805969E-08  0.93827000000E+00  0.93827000000E+00 0. -1.
     999902    2    1    2    0    0 -0.22435855297E-01 -0.65936707444E-02  0.43148795374E-02  0.10201505492E+01  0.10198733650E+01 0.  0.
     999903    2    3    3    0    0  0.82517394661E-01 -0.54921194234E-01 -0.13201272397E+00  0.16624133286E+00  0.19579669640E-01 0.  0.
         14    1    1    2    0    0  0.22435855297E-01  0.65936707444E-02 -0.43148795374E-02  0.23779450839E-01  0.00000000000E+00 0. -1.
     999901    1    3    3    0    0 -0.10495324996E+00  0.48327523490E-01  0.13632760351E+00  0.85390921630E+00  0.83500000000E+00 0.  1.
        -11    1    4    4    0    0  0.46804834965E-01 -0.19473926797E-01 -0.67953090238E-01  0.84780953019E-01  0.51100000000E-03 0.  1.
         11    1    4    4    0    0  0.35712559696E-01 -0.35447267438E-01 -0.64059633733E-01  0.81460379841E-01  0.51100000000E-03 0. -1.
</event>
<event>
 8    1  0.5616615E+005  0.1043930E+01  0.7957747E-01            NaN
         13   -1    0    0    0    0  0.00000000000E+00  0.00000000000E+00  0.74505805969E-08  0.10566000000E+00  0.10566000000E+00 0. -1.
     999900   -1    0    0    0    0 -0.00000000000E+00 -0.00000000000E+00 -0.74505805969E-08  0.93827000000E+00  0.93827000000E+00 0.  1.
     999902    2    1    2    0    0  0.18589686209E-01  0.12051085182E-01  0.89605236052E-02  0.10200323836E+01  0.10197524050E+01 0.  0.
     999903    2    3    3    0    0 -0.98882109330E-01 -0.79676397426E-01 -0.10274703935E+00  0.16451082720E+00  0.19515591632E-01 0.  0.
         14    1    1    2    0    0 -0.18589686209E-01 -0.12051085182E-01 -0.89605236052E-02  0.23897616423E-01  0.00000000000E+00 0. -1.
     999901    1    3    3    0    0  0.11747179554E+00  0.91727482608E-01  0.11170756296E+00  0.85552155638E+00  0.83500000000E+00 0. -1.
        -11    1    4    4    0    0 -0.90189141942E-02 -0.74675541960E-02 -0.30783769399E-02  0.12117867159E-01  0.51100000000E-03 0. -1.
         11    1    4    4    0    0 -0.89863195136E-01 -0.72208843230E-01 -0.99668662412E-01  0.15239296004E+00  0.51100000000E-03 0.  1.
</event>
<event>
 8    1  0.5616615E+005  0.1043930E+01  0.7957747E-01            NaN
         13   -1    0    0    0    0  0.00000000000E+00  0.00000000000E+00  0.74505805969E-08  0.10566000000E+00  0.10566000000E+00 0.  1.
     999900   -1    0    0    0    0 -0.00000000000E+00 -0.00000000000E+00 -0.74505805969E-08  0.93827000000E+00  0.93827000000E+00 0.  1.
     999902    2    1    2    0    0 -0.43374034827E-02 -0.20083840566E-01  0.10095631699E-01  0.10210368678E+01  0.10207801869E+01 0.  0.
     999903    2    3    3    0    0  0.74938180795E-01 -0.30582121672E-01 -0.14578976732E+00  0.16785453692E+00  0.19222179916E-01 0.  0.
         14    1    1    2    0    0  0.43374034827E-02  0.20083840566E-01 -0.10095631699E-01  0.22893132163E-01  0.00000000000E+00 0. -1.
     999901    1    3    3    0    0 -0.79275584278E-01  0.10498281106E-01  0.15588539902E+00  0.85318233092E+00  0.83500000000E+00 0. -1.
        -11    1    4    4    0    0  0.71298340465E-01 -0.28492548626E-01 -0.12546941729E+00  0.14709899549E+00  0.51100000000E-03 0. -1.
         11    1    4    4    0    0  0.36398403299E-02 -0.20895730462E-02 -0.20320350035E-01  0.20755541422E-01  0.51100000000E-03 0.  1.
</event>
<event>
 8    1  0.5616615E+005  0.1043930E+01  0.7957747E-01            NaN
         13   -1    0    0    0    0  0.00000000000E+00  0.00000000000E+00  0.74505805969E-08  0.10566000000E+00  0.10566000000E+00 0.  1.
     999900   -1    0    0    0    0 -0.00000000000E+00 -0.00000000000E+00 -0.74505805969E-08  0.93827000000E+00  0.93827000000E+00 0. -1.
     999902    2    1    2    0    0  0.16992370550E-01 -0.12648878846E-02  0.63557366920E-02  0.10257438518E+01  0.10255826215E+01 0.  0.
     999903    2    3    3    0    0  0.51665466695E-01  0.13912059378E+00 -0.86947975910E-01  0.17319421109E+00  0.20308229253E-01 0.  0.
         14    1    1    2    0    0 -0.16992370550E-01  0.12648878846E-02 -0.63557366920E-02  0.18186148222E-01  0.00000000000E+00 0.  1.
     999901    1    3    3    0    0 -0.34673096145E-01 -0.14038548167E+00  0.93303712602E-01  0.85254964069E+00  0.83500000000E+00 0.  1.
        -11    1    4    4    0    0  0.11155708261E-01  0.50462247434E-01 -0.37781815230E-01  0.64020425850E-01  0.51100000000E-03 0. -1.
         11    1    4    4    0    0  0.40509758434E-01  0.88658346349E-01 -0.49166160680E-01  0.10917378524E+00  0.51100000000E-03 0.  1.
</event>
<event>
 7    1  0.5616615E+005  0.1043930E+01  0.7957747E-01            NaN
         13   -1    0    0    0    0  0.00000000000E+00  0.00000000000E+00  0.74505805969E-08  0.10566000000E+00  0.10566000000E+00 0. -1.
     999900   -1    0    0    0    0 -0.00000000000E+00 -0.00000000000E+00 -0.74505805969E-08  0.93827000000E+00  0.93827000000E+00 0. -1.
     999903    2    1    2    0    0  0.22110783361E-01  0.61483153421E-01 -0.29270038340E-01  0.74220276988E-01  0.19566539710E-01 0.  0.
         14    1    1    2    0    0 -0.10142316212E+00 -0.61471597311E-02 -0.69852717405E-01  0.12330388281E+00  0.00000000000E+00 0.  1.
     999901    1    1    2    0    0  0.79312378759E-01 -0.55335993690E-01  0.99122755745E-01  0.84640584020E+00  0.83500000000E+00 0.  1.
        -11    1    3    3    0    0 -0.30612250498E-02  0.68296788039E-02 -0.48916699002E-03  0.75177135297E-02  0.51100000000E-03 0. -1.
         11    1    3    3    0    0  0.25172008411E-01  0.54653474618E-01 -0.28780871350E-01  0.66702563458E-01  0.51100000000E-03 0.  1.
</event>
<event>
 8    1  0.5616615E+005  0.1043930E+01  0.7957747E-01            NaN
         13   -1    0    0    0    0  0.00000000000E+00  0.00000000000E+00  0.74505805969E-08  0.10566000000E+00  0.10566000000E+00 0. -1.
     999900   -1    0    0    0    0 -0.00000000000E+00 -0.00000000000E+00 -0.74505805969E-08  0.93827000000E+00  0.93827000000E+00 0. -1.
     999902    2    1    2    0    0  0.18469090302E-01  0.28678849896E-02 -0.16048903935E-01  0.10192946721E+01  0.10189969231E+01 0.  0.
     999903    2    3    3    0    0 -0.11704042925E+00  0.81767196499E-01 -0.84199255862E-01  0.16696996776E+00  0.20127566756E-01 0.  0.
         14    1    1    2    0    0 -0.18469090302E-01 -0.28678849896E-02  0.16048903935E-01  0.24635327852E-01  0.00000000000E+00 0. -1.
     999901    1    3    3    0    0  0.13550951955E+00 -0.78899311509E-01  0.68150351927E-01  0.85232470439E+00  0.83500000000E+00 0.  1.
        -11    1    4    4    0    0 -0.51662145561E-01  0.29046368705E-01 -0.25616916639E-01  0.64569004623E-01  0.51100000000E-03 0.  1.
         11    1    4    4    0    0 -0.65378283687E-01  0.52720827794E-01 -0.58582339223E-01  0.10240096313E+00  0.51100000000E-03 0. -1.
</event>
<event>
 8    1  0.5616615E+005  0.1043930E+01  0.7957747E-01            NaN
         13   -1    0    0    0    0  0.00000000000E+00  0.00000000000E+00  0.74505805969E-08  0.10566000000E+00  0.10566000000E+00 0. -1.
     999900   -1    0    0    0    0 -0.00000000000E+00 -0.00000000000E+00 -0.74505805969E-08  0.93827000000E+00  0.93827000000E+00 0.  1.
     999902    2    1    2    0    0  0.14399222281E-02  0.23321679407E-01 -0.36384266887E-02  0.10202823309E+01  0.10200082463E+01 0.  0.
     999903    2    3    3    0    0 -0.16276310227E+00  0.38785276690E-01  0.12986662348E-01  0.16898734693E+00  0.19797597724E-01 0.  0.
         14    1    1    2    0    0 -0.14399222281E-02 -0.23321679407E-01  0.36384266887E-02  0.23647669128E-01  0.00000000000E+00 0. -1.
     999901    1    3    3    0    0  0.16420302450E+00 -0.15463597283E-01 -0.16625089037E-01  0.85129498394E+00  0.83500000000E+00 0.  1.
        -11    1    4    4    0    0 -0.69981735001E-01  0.14327028746E-01 -0.39828754152E-02  0.71546009001E-01  0.51100000000E-03 0.  1.
         11    1    4    4    0    0 -0.92781367270E-01  0.24458247945E-01  0.16969537763E-01  0.97441337932E-01  0.51100000000E-03 0. -1.
</event>
<event>
 7    1  0.5616615E+005  0.1043930E+01  0.7957747E-01            NaN
         13   -1    0    0    0    0  0.00000000000E+00  0.00000000000E+00  0.74505805969E-08  0.10566000000E+00  0.10566000000E+00 0. -1.
     999900   -1    0    0    0    0 -0.00000000000E+00 -0.00000000000E+00 -0.74505805969E-08  0.93827000000E+00  0.93827000000E+00 0. -1.
     999903    2    1    2    0    0  0.27776499103E-01 -0.13572557611E+00  0.45638313553E-01  0.14754557014E+00  0.22223269173E-01 0.  0.
         14    1    1    2    0    0  0.15890981718E-01  0.32822642790E-01 -0.39710163332E-01  0.53914249058E-01  0.00000000000E+00 0.  1.
     999901    1    1    2    0    0 -0.43667480821E-01  0.10290293332E+00 -0.59281502213E-02  0.84247018080E+00  0.83500000000E+00 0. -1.
        -11    1    3    3    0    0  0.33736107072E-02 -0.11351586022E-01 -0.22298203531E-02  0.12061217775E-01  0.51100000000E-03 0. -1.
         11    1    3    3    0    0  0.24402888396E-01 -0.12437399009E+00  0.47868133906E-01  0.13548435237E+00  0.51100000000E-03 0.  1.
</event>
<event>
 8    1  0.5616615E+005  0.1043930E+01  0.7957747E-01            NaN
         13   -1    0    0    0    0  0.00000000000E+00  0.00000000000E+00  0.74505805969E-08  0.10566000000E+00  0.10566000000E+00 0. -1.
     999900   -1    0    0    0    0 -0.00000000000E+00 -0.00000000000E+00 -0.74505805969E-08  0.93827000000E+00  0.93827000000E+00 0.  1.
     999902    2    1    2    0    0  0.11056639188E-01  0.25730001409E-03 -0.20978892238E-01  0.10202144061E+01  0.10199387261E+01 0.  0.
     999903    2    3    3    0    0  0.27293673139E-01  0.74633650136E-01  0.14399319197E+00  0.16567577546E+00  0.19982415150E-01 0.  0.
         14    1    1    2    0    0 -0.11056639188E-01 -0.25730001409E-03  0.20978892238E-01  0.23715593878E-01  0.00000000000E+00 0. -1.
     999901    1    3    3    0    0 -0.16237033951E-01 -0.74376350122E-01 -0.16497208420E+00  0.85453863066E+00  0.83500000000E+00 0.  1.
        -11    1    4    4    0    0 -0.31167895894E-02  0.10390494157E-01  0.18644457456E-01  0.21576692540E-01  0.51100000000E-03 0.  1.
         11    1    4    4    0    0  0.30410462729E-01  0.64243155980E-01  0.12534873451E+00  0.14409908292E+00  0.51100000000E-03 0. -1.
</event>
<event>
 8    1  0.5616615E+005  0.1043930E+01  0.7957747E-01            NaN
         13   -1    0    0    0    0  0.00000000000E+00  0.00000000000E+00  0.74505805969E-08  0.10566000000E+00  0.10566000000E+00 0.  1.
     999900   -1    0    0    0    0 -0.00000000000E+00 -0.00000000000E+00 -0.74505805969E-08  0.93827000000E+00  0.93827000000E+00 0.  1.
     999902    2    1    2    0    0  0.13057754814E-01  0.18669084686E-01 -0.84041266333E-02  0.10196468983E+01  0.10193577037E+01 0.  0.
     999903    2    3    3    0    0 -0.12299673347E-01  0.11903891694E+00 -0.12035055545E+00  0.17083943761E+00  0.19501577857E-01 0.  0.
         14    1    1    2    0    0 -0.13057754814E-01 -0.18669084686E-01  0.84041266333E-02  0.24283101702E-01  0.00000000000E+00 0.  1.
     999901    1    3    3    0    0  0.25357428161E-01 -0.10036983225E+00  0.11194642881E+00  0.84880746068E+00  0.83500000000E+00 0. -1.
        -11    1    4    4    0    0 -0.62610990122E-02  0.82875425263E-01 -0.95196553434E-01  0.12637318695E+00  0.51100000000E-03 0.  1.
         11    1    4    4    0    0 -0.60385743348E-02  0.36163491672E-01 -0.25154002011E-01  0.44466250663E-01  0.51100000000E-03 0. -1.
</event>
<event>
 8    1  0.5616615E+005  0.1043930E+01  0.7957747E-01            NaN
         13   -1    0    0    0    0  0.00000000000E+00  0.00000000000E+00  0.74505805969E-08  0.10566000000E+00  0.10566000000E+00 0.  1.
     999900   -1    0    0    0    0 -0.00000000000E+00 -0.00000000000E+00 -0.74505805969E-08  0.93827000000E+00  0.93827000000E+00 0.  1.
     999902    2    1    2    0    0 -0.20026354756E-01  0.90481107614E-02 -0.96142791240E-02  0.10199433880E+01  0.10196612953E+01 0.  0.
     999903    2    3    3    0    0  0.12335470223E+00  0.68494268393E-01 -0.87147652660E-01  0.16710788381E+00  0.20554418050E-01 0.  0.
         14    1    1    2    0    0  0.20026354756E-01 -0.90481107614E-02  0.96142791240E-02  0.23986612020E-01  0.00000000000E+00 0.  1.
     999901    1    3    3    0    0 -0.14338105699E+00 -0.59446157632E-01  0.77533373536E-01  0.85283550417E+00  0.83500000000E+00 0. -1.
        -11    1    4    4    0    0  0.85733455785E-01  0.36456853331E-01 -0.56392768299E-01  0.10890240141E+00  0.51100000000E-03 0. -1.
         11    1    4    4    0    0  0.37621246449E-01  0.32037415063E-01 -0.30754884361E-01  0.58205482399E-01  0.51100000000E-03 0.  1.
</event>
<event>
 8    1  0.5616615E+005  0.1043930E+01  0.7957747E-01            NaN
         13   -1    0    0    0    0  0.00000000000E+00  0.00000000000E+00  0.74505805969E-08  0.10566000000E+00  0.10566000000E+00 0. -1.
     999900   -1    0    0    0    0 -0.00000000000E+00 -0.00000000000E+00 -0.74505805969E-08  0.93827000000E+00  0.93827000000E+00 0. -1.
     999902    2    1    2    0    0 -0.16039401299E-02 -0.22699647635E-01  0.57055838907E-02  0.10204693880E+01  0.10201996724E+01 0.  0.
     999903    2    3    3    0    0 -0.62414407887E-01 -0.46592080477E-01 -0.14861141343E+00  0.16881952042E+00  0.18662743547E-01 0.  0.
         14    1    1    2    0    0  0.16039401299E-02  0.22699647635E-01 -0.57055838907E-02  0.23460611975E-01  0.00000000000E+00 0.  1.
     999901    1    3    3    0    0  0.60810467757E-01  0.23892432841E-01  0.15431699732E+00  0.85164986761E+00  0.83500000000E+00 0.  1.
        -11    1    4    4    0    0 -0.13908874006E-01 -0.55863581433E-02 -0.16918184231E-01  0.22608632247E-01  0.51100000000E-03 0. -1.
         11    1    4    4    0    0 -0.48505533881E-01 -0.41005722333E-01 -0.13169322920E+00  0.14621088817E+00  0.51100000000E-03 0.  1.
</event>
<event>
 8    1  0.5616615E+005  0.1043930E+01  0.7957747E-01            NaN
         13   -1    0    0    0    0  0.00000000000E+00  0.00000000000E+00  0.74505805969E-08  0.10566000000E+00  0.10566000000E+00 0.  1.
     999900   -1    0    0    0    0 -0.00000000000E+00 -0.00000000000E+00 -0.74505805969E-08  0.93827000000E+00  0.93827000000E+00 0. -1.
     999902    2    1    2    0    0  0.17070160944E-01 -0.18358228031E-02  0.15666814691E-01  0.10206875878E+01  0.10204229232E+01 0.  0.
     999903    2    3    3    0    0  0.47673162418E-01 -0.50996912629E-01 -0.15106121869E+00  0.16723776884E+00  0.16600121098E-01 0.  0.
         14    1    1    2    0    0 -0.17070160944E-01  0.18358228031E-02 -0.15666814691E-01  0.23242412151E-01  0.00000000000E+00 0. -1.
     999901    1    3    3    0    0 -0.30603001474E-01  0.49161089826E-01  0.16672803338E+00  0.85344981901E+00  0.83500000000E+00 0.  1.
        -11    1    4    4    0    0  0.18052930595E-01 -0.87178301355E-02 -0.38852293946E-01  0.43722656955E-01  0.51100000000E-03 0. -1.
         11    1    4    4    0    0  0.29620231823E-01 -0.42279082494E-01 -0.11220892475E+00  0.12351511188E+00  0.51100000000E-03 0.  1.
</event>
<event>
 8    1  0.5616615E+005  0.1043930E+01  0.7957747E-01            NaN
         13   -1    0    0    0    0  0.00000000000E+00  0.00000000000E+00  0.74505805969E-08  0.10566000000E+00  0.10566000000E+00 0.  1.
     999900   -1    0    0    0    0 -0.00000000000E+00 -0.00000000000E+00 -0.74505805969E-08  0.93827000000E+00  0.93827000000E+00 0. -1.
     999902    2    1    2    0    0  0.17890679430E-01  0.17177209814E-01 -0.14167366933E-02  0.10190876956E+01  0.10187848601E+01 0.  0.
     999903    2    3    3    0    0  0.82563617676E-01 -0.70576395237E-01 -0.12597420867E+00  0.16783987736E+00  0.22426427588E-01 0.  0.
         14    1    1    2    0    0 -0.17890679430E-01 -0.17177209814E-01  0.14167366933E-02  0.24842304449E-01  0.00000000000E+00 0. -1.
     999901    1    3    3    0    0 -0.64672938246E-01  0.87753605052E-01  0.12455747198E+00  0.85124781819E+00  0.83500000000E+00 0.  1.
        -11    1    4    4    0    0  0.36844973973E-01 -0.24384083073E-01 -0.36856124687E-01  0.57539296679E-01  0.51100000000E-03 0. -1.
         11    1    4    4    0    0  0.45718643704E-01 -0.46192312164E-01 -0.89118083986E-01  0.11030058069E+00  0.51100000000E-03 0.  1.
</event>
<event>
 8    1  0.5616615E+005  0.1043930E+01  0.7957747E-01            NaN
         13   -1    0    0    0    0  0.00000000000E+00  0.00000000000E+00  0.74505805969E-08  0.10566000000E+00  0.10566000000E+00 0. -1.
     999900   -1    0    0    0    0 -0.00000000000E+00 -0.00000000000E+00 -0.74505805969E-08  0.93827000000E+00  0.93827000000E+00 0.  1.
     999902    2    1    2    0    0 -0.38671603550E-02 -0.14661125354E-01  0.18312415324E-01  0.10201550535E+01  0.10198779756E+01 0.  0.
     999903    2    3    3    0    0  0.26999842407E-01 -0.95368874193E-01  0.13921071309E+00  0.17203483149E+00  0.19802700648E-01 0.  0.
         14    1    1    2    0    0  0.38671603550E-02  0.14661125354E-01 -0.18312415324E-01  0.23774946496E-01  0.00000000000E+00 0.  1.
     999901    1    3    3    0    0 -0.30867002762E-01  0.80707748839E-01 -0.12089829777E+00  0.84812022201E+00  0.83500000000E+00 0.  1.
        -11    1    4    4    0    0  0.29500126638E-02 -0.44160109867E-01  0.55298269207E-01  0.70830625978E-01  0.51100000000E-03 0. -1.
         11    1    4    4    0    0  0.24049829743E-01 -0.51208764326E-01  0.83912443882E-01  0.10120420551E+00  0.51100000000E-03 0.  1.
</event>
<event>
 8    1  0.5616615E+005  0.1043930E+01  0.7957747E-01            NaN
         13   -1    0    0    0    0  0.00000000000E+00  0.00000000000E+00  0.74505805969E-08  0.10566000000E+00  0.10566000000E+00 0.  1.
     999900   -1    0    0    0    0 -0.00000000000E+00 -0.00000000000E+00 -0.74505805969E-08  0.93827000000E+00  0.93827000000E+00 0.  1.
     999902    2    1    2    0    0 -0.13048973871E-01 -0.68966396583E-02  0.17965671811E-01  0.10206790920E+01  0.10204142317E+01 0.  0.
     999903    2    3    3    0    0 -0.23768499780E-01  0.95470710606E-01  0.13814529165E+00  0.17081903081E+00  0.20381891865E-01 0.  0.
         14    1    1    2    0    0  0.13048973871E-01  0.68966396583E-02 -0.17965671811E-01  0.23250907967E-01  0.00000000000E+00 0.  1.
     999901    1    3    3    0    0  0.10719525909E-01 -0.10236735026E+00 -0.12017961984E+00  0.84986006122E+00  0.83500000000E+00 0. -1.
        -11    1    4    4    0    0  0.54470376550E-03  0.36585469342E-01  0.45657660456E-01  0.58512189743E-01  0.51100000000E-03 0.  1.
         11    1    4    4    0    0 -0.24313203546E-01  0.58885241264E-01  0.92487631196E-01  0.11230684107E+00  0.51100000000E-03 0. -1.
</event>
<event>
 8    1  0.5616615E+005  0.1043930E+01  0.7957747E-01            NaN
         13   -1    0    0    0    0  0.00000000000E+00  0.00000000000E+00  0.74505805969E-08  0.10566000000E+00  0.10566000000E+00 0.  1.
     999900   -1    0    0    0    0 -0.00000000000E+00 -0.00000000000E+00 -0.74505805969E-08  0.93827000000E+00  0.93827000000E+00 0. -1.
     999902    2    1    2    0    0 -0.22141260954E-01 -0.87139991664E-02 -0.22588189719E-01  0.10111215326E+01  0.10105891144E+01 0.  0.
     999903    2    3    3    0    0 -0.15094921791E+00 -0.52982977540E-01  0.28327869292E-01  0.16355520642E+00  0.18840782088E-01 0.  0.
         14    1    1    2    0    0  0.22141260954E-01  0.87139991664E-02  0.22588189719E-01  0.32808467396E-01  0.00000000000E+00 0.  1.
     999901    1    3    3    0    0  0.12880795696E+00  0.44268978374E-01 -0.50916059011E-01  0.84756632619E+00  0.83500000000E+00 0. -1.
        -11    1    4    4    0    0 -0.39598099631E-01 -0.22853542275E-01  0.75046168599E-02  0.46334374757E-01  0.51100000000E-03 0. -1.
         11    1    4    4    0    0 -0.11135111828E+00 -0.30129435265E-01  0.20823252432E-01  0.11722083166E+00  0.51100000000E-03 0.  1.
</event>
<event>
 8    1  0.6069814E+005  0.1043930E+01  0.7957747E-01            NaN
         13   -1    0    0    0    0  0.00000000000E+00  0.00000000000E+00  0.74505805969E-08  0.10566000000E+00  0.10566000000E+00 0. -1.
     999900   -1    0    0    0    0 -0.00000000000E+00 -0.00000000000E+00 -0.74505805969E-08  0.93827000000E+00  0.93827000000E+00 0.  1.
     999902    2    1    2    0    0 -0.98589646314E-02 -0.54281873575E-02 -0.21547303047E-01  0.10196205230E+01  0.10193306923E+01 0.  0.
     999903    2    3    3    0    0 -0.10278334202E+00 -0.90818098065E-02 -0.13574354944E+00  0.17173251654E+00  0.20465858294E-01 0.  0.
         14    1    1    2    0    0  0.98589646314E-02  0.54281873575E-02  0.21547303047E-01  0.24309476962E-01  0.00000000000E+00 0. -1.
     999901    1    3    3    0    0  0.92924377392E-01  0.36536224490E-02  0.11419624639E+00  0.84788800650E+00  0.83500000000E+00 0. -1.
        -11    1    4    4    0    0 -0.41573283485E-01  0.24917206368E-02 -0.41787619696E-01  0.59000108917E-01  0.51100000000E-03 0.  1.
         11    1    4    4    0    0 -0.61210058538E-01 -0.11573530443E-01 -0.93955929746E-01  0.11273240762E+00  0.51100000000E-03 0. -1.
</event>
<event>
 8    1  0.5616615E+005  0.1043930E+01  0.7957747E-01            NaN
         13   -1    0    0    0    0  0.00000000000E+00  0.00000000000E+00  0.74505805969E-08  0.10566000000E+00  0.10566000000E+00 0.  1.
     999900   -1    0    0    0    0 -0.00000000000E+00 -0.00000000000E+00 -0.74505805969E-08  0.93827000000E+00  0.93827000000E+00 0.  1.
     999902    2    1    2    0    0  0.58218110697E-02  0.17624051051E-01  0.14944330861E-01  0.10201007389E+01  0.10198223786E+01 0.  0.
     999903    2    3    3    0    0 -0.14815148077E+00  0.55628647553E-01 -0.51567977752E-01  0.16757448643E+00  0.19456219860E-01 0.  0.
         14    1    1    2    0    0 -0.58218110697E-02 -0.17624051051E-01 -0.14944330861E-01  0.23829261097E-01  0.00000000000E+00 0. -1.
     999901    1    3    3    0    0  0.15397329184E+00 -0.38004596502E-01  0.66512308613E-01  0.85252625247E+00  0.83500000000E+00 0. -1.
        -11    1    4    4    0    0 -0.79383177851E-01  0.39772322259E-01 -0.26134899821E-01  0.92557121029E-01  0.51100000000E-03 0.  1.
         11    1    4    4    0    0 -0.68768302917E-01  0.15856325294E-01 -0.25433077931E-01  0.75017365402E-01  0.51100000000E-03 0. -1.
</event>
<event>
 8    1  0.5616615E+005  0.1043930E+01  0.7957747E-01            NaN
         13   -1    0    0    0    0  0.00000000000E+00  0.00000000000E+00  0.74505805969E-08  0.10566000000E+00  0.10566000000E+00 0. -1.
     999900   -1    0    0    0    0 -0.00000000000E+00 -0.00000000000E+00 -0.74505805969E-08  0.93827000000E+00  0.93827000000E+00 0. -1.
     999902    2    1    2    0    0  0.20224616043E-01  0.16253122569E-01 -0.15757226651E-01  0.10135739581E+01  0.10131192819E+01 0.  0.
     999903    2    3    3    0    0  0.91182963456E-01  0.25974972389E-01 -0.13610724759E+00  0.16691066673E+00  0.18572985918E-01 0.  0.
         14    1    1    2    0    0 -0.20224616043E-01 -0.16253122569E-01  0.15757226651E-01  0.30356041887E-01  0.00000000000E+00 0. -1.
     999901    1    3    3    0    0 -0.70958347413E-01 -0.97218498203E-02  0.12035002094E+00  0.84666329138E+00  0.83500000000E+00 0.  1.
        -11    1    4    4    0    0  0.18684036213E-01  0.41097972120E-02 -0.16102172293E-01  0.25010492116E-01  0.51100000000E-03 0.  1.
         11    1    4    4    0    0  0.72498927243E-01  0.21865175177E-01 -0.12000507530E+00  0.14190017462E+00  0.51100000000E-03 0. -1.
</event>
<event>
 8    1  0.5616615E+005  0.1043930E+01  0.7957747E-01            NaN
         13   -1    0    0    0    0  0.00000000000E+00  0.00000000000E+00  0.74505805969E-08  0.10566000000E+00  0.10566000000E+00 0.  1.
     999900   -1    0    0    0    0 -0.00000000000E+00 -0.00000000000E+00 -0.74505805969E-08  0.93827000000E+00  0.93827000000E+00 0. -1.
     999902    2    1    2    0    0  0.56705122893E-03 -0.17762987441E-01 -0.17703358298E-01  0.10188450610E+01  0.10185362066E+01 0.  0.
     999903    2    3    3    0    0  0.16486918552E-01 -0.75655209208E-01 -0.15131183607E+00  0.17109440375E+00  0.19557456278E-01 0.  0.
         14    1    1    2    0    0 -0.56705122893E-03  0.17762987441E-01  0.17703358298E-01  0.25084939006E-01  0.00000000000E+00 0. -1.
     999901    1    3    3    0    0 -0.15919867323E-01  0.57892221767E-01  0.13360847778E+00  0.84775065724E+00  0.83500000000E+00 0.  1.
        -11    1    4    4    0    0  0.19386146813E-01 -0.67851503314E-01 -0.12564124533E+00  0.14410285507E+00  0.51100000000E-03 0.  1.
         11    1    4    4    0    0 -0.28992282618E-02 -0.78037058943E-02 -0.25670590744E-01  0.26991548684E-01  0.51100000000E-03 0. -1.
</event>
<event>
 8    1  0.5616615E+005  0.1043930E+01  0.7957747E-01            NaN
         13   -1    0    0    0    0  0.00000000000E+00  0.00000000000E+00  0.74505805969E-08  0.10566000000E+00  0.10566000000E+00 0. -1.
     999900   -1    0    0    0    0 -0.00000000000E+00 -0.00000000000E+00 -0.74505805969E-08  0.93827000000E+00  0.93827000000E+00 0. -1.
     999902    2    1    2    0    0 -0.95146522850E-02  0.19695014388E-02  0.25830267400E-01  0.10163327129E+01  0.10159579583E+01 0.  0.
     999903    2    3    3    0    0  0.29429258437E-01  0.14619688087E+00 -0.61915787262E-01  0.16354754924E+00  0.25973581246E-01 0.  0.
         14    1    1    2    0    0  0.95146522850E-02 -0.19695014388E-02 -0.25830267400E-01  0.27597287149E-01  0.00000000000E+00 0.  1.
     999901    1    3    3    0    0 -0.38943910722E-01 -0.14422737943E+00  0.87746054662E-01  0.85278516361E+00  0.83500000000E+00 0. -1.
        -11    1    4    4    0    0  0.24867665516E-01  0.98832228807E-01 -0.29958452930E-01  0.10622608089E+00  0.51100000000E-03 0.  1.
         11    1    4    4    0    0  0.45615929206E-02  0.47364652064E-01 -0.31957334332E-01  0.57321468349E-01  0.51100000000E-03 0. -1.
</event>
<event>
 8    1  0.5616615E+005  0.1043930E+01  0.7957747E-01            NaN
         13   -1    0    0    0    0  0.00000000000E+00  0.00000000000E+00  0.74505805969E-08  0.10566000000E+00  0.10566000000E+00 0. -1.
     999900   -1    0    0    0    0 -0.00000000000E+00 -0.00000000000E+00 -0.74505805969E-08  0.93827000000E+00  0.93827000000E+00 0.  1.
     999902    2    1    2    0    0 -0.65961363262E-02  0.13832194043E-01  0.17921592642E-01  0.10203498794E+01  0.10200773766E+01 0.  0.
     999903    2    3    3    0    0 -0.25955333600E-01 -0.21768607553E-01  0.16647973793E+00  0.17126995490E+00  0.21687385604E-01 0.  0.
         14    1    1    2    0    0  0.65961363262E-02 -0.13832194043E-01 -0.17921592642E-01  0.23580120638E-01  0.00000000000E+00 0.  1.
     999901    1    3    3    0    0  0.19359197274E-01  0.35600801595E-01 -0.14855814528E+00  0.84907992446E+00  0.83500000000E+00 0.  1.
        -11    1    4    4    0    0 -0.18334603116E-01 -0.35742854999E-02  0.10652168678E+00  0.10814834286E+00  0.51100000000E-03 0.  1.
         11    1    4    4    0    0 -0.76207304847E-02 -0.18194322053E-01  0.59958051148E-01  0.63121612041E-01  0.51100000000E-03 0. -1.
</event>
<event>
 8    1  0.5616615E+005  0.1043930E+01  0.7957747E-01            NaN
         13   -1    0    0    0    0  0.00000000000E+00  0.00000000000E+00  0.74505805969E-08  0.10566000000E+00  0.10566000000E+00 0.  1.
     999900   -1    0    0    0    0 -0.00000000000E+00 -0.00000000000E+00 -0.74505805969E-08  0.93827000000E+00  0.93827000000E+00 0. -1.
     999902    2    1    2    0    0  0.10142374505E-01  0.16349369895E-01  0.27556429731E-01  0.10103215714E+01  0.10097624231E+01 0.  0.
     999903    2    3    3    0    0 -0.12187448153E+00 -0.86585159508E-01 -0.39784829811E-01  0.15604772015E+00  0.20437200990E-01 0.  0.
         14    1    1    2    0    0 -0.10142374505E-01 -0.16349369895E-01 -0.27556429731E-01  0.33608428646E-01  0.00000000000E+00 0. -1.
     999901    1    3    3    0    0  0.13201685604E+00  0.10293452940E+00  0.67341259541E-01  0.85427385121E+00  0.83500000000E+00 0. -1.
        -11    1    4    4    0    0 -0.62864857581E-01 -0.41565852847E-01 -0.30268092778E-01  0.81216556212E-01  0.51100000000E-03 0. -1.
         11    1    4    4    0    0 -0.59009623950E-01 -0.45019306661E-01 -0.95167370325E-02  0.74831163933E-01  0.51100000000E-03 0.  1.
</event>
<event>
 8    1  0.5616615E+005  0.1043930E+01  0.7957747E-01            NaN
         13   -1    0    0    0    0  0.00000000000E+00  0.00000000000E+00  0.74505805969E-08  0.10566000000E+00  0.10566000000E+00 0. -1.
     999900   -1    0    0    0    0 -0.00000000000E+00 -0.00000000000E+00 -0.74505805969E-08  0.93827000000E+00  0.93827000000E+00 0. -1.
     999902    2    1    2    0    0 -0.18018466174E-01  0.36935465820E-02 -0.14950840689E-01  0.10202269401E+01  0.10199515549E+01 0.  0.
     999903    2    3    3    0    0 -0.92835336494E-01 -0.13735202657E-01 -0.14271607990E+00  0.17202278916E+00  0.20418252436E-01 0.  0.
         14    1    1    2    0    0  0.18018466174E-01 -0.36935465820E-02  0.14950840689E-01  0.23703059864E-01  0.00000000000E+00 0. -1.
     999901    1    3    3    0    0  0.74816870320E-01  0.17428749239E-01  0.12776523921E+00  0.84820415098E+00  0.83500000000E+00 0.  1.
        -11    1    4    4    0    0 -0.25804962057E-01 -0.81918966226E-02 -0.27392019313E-01  0.38517360762E-01  0.51100000000E-03 0. -1.
         11    1    4    4    0    0 -0.67030374438E-01 -0.55433060341E-02 -0.11532406059E+00  0.13350542840E+00  0.51100000000E-03 0.  1.
</event>
<event>
 8    1  0.5616615E+005  0.1043930E+01  0.7957747E-01            NaN
         13   -1    0    0    0    0  0.00000000000E+00  0.00000000000E+00  0.74505805969E-08  0.10566000000E+00  0.10566000000E+00 0.  1.
     999900   -1    0    0    0    0 -0.00000000000E+00 -0.00000000000E+00 -0.74505805969E-08  0.93827000000E+00  0.93827000000E+00 0. -1.
     999902    2    1    2    0    0 -0.55209424537E-02  0.86503029612E-02 -0.20800549874E-01  0.10207357890E+01  0.10204722336E+01 0.  0.
     999903    2    3    3    0    0 -0.61935798816E-01  0.91077492074E-01 -0.13135762344E+00  0.17254669218E+00  0.19656627590E-01 0.  0.
         14    1    1    2    0    0  0.55209424537E-02 -0.86503029612E-02  0.20800549874E-01  0.23194210958E-01  0.00000000000E+00 0.  1.
     999901    1    3    3    0    0  0.56414856362E-01 -0.82427189112E-01  0.11055707357E+00  0.84818909686E+00  0.83500000000E+00 0.  1.
        -11    1    4    4    0    0 -0.55968153904E-01  0.68411947167E-01 -0.10173834196E+00  0.13477232695E+00  0.51100000000E-03 0.  1.
         11    1    4    4    0    0 -0.59676449120E-02  0.22665544907E-01 -0.29619281480E-01  0.37774365224E-01  0.51100000000E-03 0. -1.
</event>
<event>
 8    1  0.5616615E+005  0.1043930E+01  0.7957747E-01            NaN
         13   -1    0    0    0    0  0.00000000000E+00  0.00000000000E+00  0.74505805969E-08  0.10566000000E+00  0.10566000000E+00 0. -1.
     999900   -1    0    0    0    0 -0.00000000000E+00 -0.00000000000E+00 -0.74505805969E-08  0.93827000000E+00  0.93827000000E+00 0. -1.
     999902    2    1    2    0    0 -0.51030406255E-02  0.23586450198E-01 -0.49451997587E-02  0.10192963511E+01  0.10189986432E+01 0.  0.
     999903    2    3    3    0    0 -0.12780917521E+00  0.10626729927E+00 -0.30517633544E-01  0.17090265263E+00  0.25465006501E-01 0.  0.
         14    1    1    2    0    0  0.51030406255E-02 -0.23586450198E-01  0.49451997587E-02  0.24633648881E-01  0.00000000000E+00 0.  1.
     999901    1    3    3    0    0  0.12270613458E+00 -0.82680849073E-01  0.25572433785E-01  0.84839369849E+00  0.83500000000E+00 0. -1.
        -11    1    4    4    0    0 -0.67721945442E-01  0.71192777775E-01 -0.12670024667E-01  0.99073024320E-01  0.51100000000E-03 0.  1.
         11    1    4    4    0    0 -0.60087229768E-01  0.35074521496E-01 -0.17847608877E-01  0.71829628309E-01  0.51100000000E-03 0. -1.
</event>
<event>
 7    1  0.5616615E+005  0.1043930E+01  0.7957747E-01            NaN
         13   -1    0    0    0    0  0.00000000000E+00  0.00000000000E+00  0.74505805969E-08  0.10566000000E+00  0.10566000000E+00 0.  1.
     999900   -1    0    0    0    0 -0.00000000000E+00 -0.00000000000E+00 -0.74505805969E-08  0.93827000000E+00  0.93827000000E+00 0.  1.
     999902    2    1    2    0    0  0.91726606928E-02  0.15711142914E-01  0.15445769565E-01  0.10200647635E+01  0.10197855521E+01 0.  0.
         14    1    1    2    0    0 -0.91726606928E-02 -0.15711142914E-01 -0.15445769565E-01  0.23865236502E-01  0.00000000000E+00 0. -1.
     999901    1    3    3    0    0  0.16088577009E+00 -0.38936018490E-01  0.40119060240E-01  0.85219409969E+00  0.83500000000E+00 0. -1.
        -11    1    3    3    0    0 -0.88062058609E-01  0.16129595922E-01 -0.13434995060E-03  0.89528594326E-01  0.51100000000E-03 0. -1.
         11    1    3    3    0    0 -0.63651050792E-01  0.38517565481E-01 -0.24538940724E-01  0.78342069480E-01  0.51100000000E-03 0.  1.
</event>
<event>
 8    1  0.5616615E+005  0.1043930E+01  0.7957747E-01            NaN
         13   -1    0    0    0    0  0.00000000000E+00  0.00000000000E+00  0.74505805969E-08  0.10566000000E+00  0.10566000000E+00 0. -1.
     999900   -1    0    0    0    0 -0.00000000000E+00 -0.00000000000E+00 -0.74505805969E-08  0.93827000000E+00  0.93827000000E+00 0.  1.
     999902    2    1    2    0    0  0.10380303937E-01  0.69942988945E-02 -0.20031811333E-01  0.10203091534E+01  0.10200356975E+01 0.  0.
     999903    2    3    3    0    0  0.10551951065E+00 -0.94991713561E-01 -0.92570881198E-01  0.17063890443E+00  0.19760437437E-01 0.  0.
         14    1    1    2    0    0 -0.10380303937E-01 -0.69942988945E-02  0.20031811333E-01  0.23620846559E-01  0.00000000000E+00 0. -1.
     999901    1    3    3    0    0 -0.95139206714E-01  0.10198601246E+00  0.72539069864E-01  0.84967024901E+00  0.83500000000E+00 0.  1.
        -11    1    4    4    0    0  0.30929759293E-01 -0.16684913030E-01 -0.24710488466E-01  0.42964004632E-01  0.51100000000E-03 0.  1.
         11    1    4    4    0    0  0.74589751358E-01 -0.78306800531E-01 -0.67860392732E-01  0.12767489980E+00  0.51100000000E-03 0. -1.
</event>
<event>
 8    1  0.5616615E+005  0.1043930E+01  0.7957747E-01            NaN
         13   -1    0    0    0    0  0.00000000000E+00  0.00000000000E+00  0.74505805969E-08  0.10566000000E+00  0.10566000000E+00 0. -1.
     999900   -1    0    0    0    0 -0.00000000000E+00 -0.00000000000E+00 -0.74505805969E-08  0.93827000000E+00  0.93827000000E+00 0.  1.
     999902    2    1    2    0    0 -0.68509787241E-02 -0.98555909847E-02 -0.19029369153E-01  0.10214314340E+01  0.10211836215E+01 0.  0.
     999903    2    3    3    0    0 -0.85911428568E-01 -0.95390875241E-01  0.10784759460E+00  0.16885322435E+00  0.20002876700E-01 0.  0.
         14    1    1    2    0    0  0.68509787241E-02  0.98555909847E-02  0.19029369153E-01  0.22498566032E-01  0.00000000000E+00 0.  1.
     999901    1    3    3    0    0  0.79060449843E-01  0.85535284256E-01 -0.12687696375E+00  0.85257820962E+00  0.83500000000E+00 0.  1.
        -11    1    4    4    0    0 -0.69170678578E-01 -0.86482273566E-01  0.88548876487E-01  0.14179185824E+00  0.51100000000E-03 0.  1.
         11    1    4    4    0    0 -0.16740749990E-01 -0.89086016750E-02  0.19298718108E-01  0.27061366109E-01  0.51100000000E-03 0. -1.
</event>
<event>
 8    1  0.5616615E+005  0.1043930E+01  0.7957747E-01            NaN
         13   -1    0    0    0    0  0.00000000000E+00  0.00000000000E+00  0.74505805969E-08  0.10566000000E+00  0.10566000000E+00 0.  1.
     999900   -1    0    0    0    0 -0.00000000000E+00 -0.00000000000E+00 -0.74505805969E-08  0.93827000000E+00  0.93827000000E+00 0. -1.
     999902    2    1    2    0    0  0.21409946113E-01 -0.99151381330E-02 -0.64183018561E-03  0.10203268709E+01  0.10200538299E+01 0.  0.
     999903    2    3    3    0    0  0.81819401390E-02 -0.16868402306E+00  0.74457103705E-04  0.17026331327E+00  0.21641315175E-01 0.  0.
         14    1    1    2    0    0 -0.21409946113E-01  0.99151381330E-02  0.64183018561E-03  0.23603129088E-01  0.00000000000E+00 0. -1.
     999901    1    3    3    0    0  0.13228005974E-01  0.15876888493E+00 -0.71628728931E-03  0.85006355764E+00  0.83500000000E+00 0.  1.
        -11    1    4    4    0    0  0.11526304749E-01 -0.83253393843E-01 -0.77654189509E-02  0.84407026604E-01  0.51100000000E-03 0. -1.
         11    1    4    4    0    0 -0.33443646096E-02 -0.85430629215E-01  0.78398760546E-02  0.85856286667E-01  0.51100000000E-03 0.  1.
</event>
<event>
 8    1  0.5616615E+005  0.1043930E+01  0.7957747E-01            NaN
         13   -1    0    0    0    0  0.00000000000E+00  0.00000000000E+00  0.74505805969E-08  0.10566000000E+00  0.10566000000E+00 0. -1.
     999900   -1    0    0    0    0 -0.00000000000E+00 -0.00000000000E+00 -0.74505805969E-08  0.93827000000E+00  0.93827000000E+00 0. -1.
     999902    2    1    2    0    0 -0.26512309127E-02 -0.97958773053E-02  0.21353101599E-01  0.10202880207E+01  0.10200140695E+01 0.  0.
     999903    2    3    3    0    0  0.84360122590E-02 -0.84230446869E-01 -0.14158070126E+00  0.16621785015E+00  0.20429005220E-01 0.  0.
         14    1    1    2    0    0  0.26512309127E-02  0.97958773053E-02 -0.21353101599E-01  0.23641979304E-01  0.00000000000E+00 0.  1.
     999901    1    3    3    0    0 -0.11087243172E-01  0.74434569564E-01  0.16293380286E+00  0.85407017055E+00  0.83500000000E+00 0.  1.
        -11    1    4    4    0    0  0.15115530670E-01 -0.51909264838E-01 -0.86943260686E-01  0.10238380118E+00  0.51100000000E-03 0. -1.
         11    1    4    4    0    0 -0.66795184107E-02 -0.32321182031E-01 -0.54637440578E-01  0.63834048971E-01  0.51100000000E-03 0.  1.
</event>
<event>
 8    1  0.5616615E+005  0.1043930E+01  0.7957747E-01            NaN
         13   -1    0    0    0    0  0.00000000000E+00  0.00000000000E+00  0.74505805969E-08  0.10566000000E+00  0.10566000000E+00 0. -1.
     999900   -1    0    0    0    0 -0.00000000000E+00 -0.00000000000E+00 -0.74505805969E-08  0.93827000000E+00  0.93827000000E+00 0. -1.
     999902    2    1    2    0    0 -0.54054653977E-02 -0.22930043866E-01  0.26258636305E-02  0.10202255462E+01  0.10199501282E+01 0.  0.
     999903    2    3    3    0    0 -0.10240892643E+00 -0.27546989245E-01 -0.12990390719E+00  0.16921430790E+00  0.22628125525E-01 0.  0.
         14    1    1    2    0    0  0.54054653977E-02  0.22930043866E-01 -0.26258636305E-02  0.23704453752E-01  0.00000000000E+00 0.  1.
     999901    1    3    3    0    0  0.97003461036E-01  0.46169453786E-02  0.13252977082E+00  0.85101123835E+00  0.83500000000E+00 0.  1.
        -11    1    4    4    0    0 -0.59900387316E-01 -0.15420374727E-01 -0.92662077002E-01  0.11141079837E+00  0.51100000000E-03 0. -1.
         11    1    4    4    0    0 -0.42508539117E-01 -0.12126614518E-01 -0.37241830191E-01  0.57803509535E-01  0.51100000000E-03 0.  1.
</event>
<event>
 8    1  0.5616615E+005  0.1043930E+01  0.7957747E-01            NaN
         13   -1    0    0    0    0  0.00000000000E+00  0.00000000000E+00  0.74505805969E-08  0.10566000000E+00  0.10566000000E+00 0.  1.
     999900   -1    0    0    0    0 -0.00000000000E+00 -0.00000000000E+00 -0.74505805969E-08  0.93827000000E+00  0.93827000000E+00 0.  1.
     999902    2    1    2    0    0  0.21671165574E-02 -0.11823622065E-02  0.33198183853E-01  0.10106401549E+01  0.10100917329E+01 0.  0.
     999903    2    3    3    0    0 -0.12373795400E-02 -0.53446990360E-01  0.15509584354E+00  0.16516560096E+00  0.19153150392E-01 0.  0.
         14    1    1    2    0    0 -0.21671165574E-02  0.11823622065E-02 -0.33198183853E-01  0.33289845084E-01  0.00000000000E+00 0. -1.
     999901    1    3    3    0    0  0.34044960974E-02  0.52264628154E-01 -0.12189765969E+00  0.84547455396E+00  0.83500000000E+00 0.  1.
        -11    1    4    4    0    0  0.53329669297E-02 -0.44298363068E-01  0.11056386145E+00  0.11922841140E+00  0.51100000000E-03 0. -1.
         11    1    4    4    0    0 -0.65703464698E-02 -0.91486272921E-02  0.44531982095E-01  0.45937189556E-01  0.51100000000E-03 0.  1.
</event>
<event>
 8    1  0.5616615E+005  0.1043930E+01  0.7957747E-01            NaN
         13   -1    0    0    0    0  0.00000000000E+00  0.00000000000E+00  0.74505805969E-08  0.10566000000E+00  0.10566000000E+00 0. -1.
     999900   -1    0    0    0    0 -0.00000000000E+00 -0.00000000000E+00 -0.74505805969E-08  0.93827000000E+00  0.93827000000E+00 0. -1.
     999902    2    1    2    0    0  0.80610255294E-02  0.20291010254E-01 -0.85527611552E-02  0.10204810138E+01  0.10202115686E+01 0.  0.
     999903    2    3    3    0    0 -0.57684953419E-01  0.15865620019E+00  0.18344818452E-01  0.17111893595E+00  0.21114311908E-01 0.  0.
         14    1    1    2    0    0 -0.80610255294E-02 -0.20291010254E-01  0.85527611552E-02  0.23448986185E-01  0.00000000000E+00 0.  1.
     999901    1    3    3    0    0  0.65745978949E-01 -0.13836518993E+00 -0.26897579607E-01  0.84936207787E+00  0.83500000000E+00 0. -1.
        -11    1    4    4    0    0 -0.20873646075E-01  0.67160433188E-01  0.17563841875E-01  0.72491258431E-01  0.51100000000E-03 0. -1.
         11    1    4    4    0    0 -0.36811307344E-01  0.91495766997E-01  0.78097657637E-03  0.98627677516E-01  0.51100000000E-03 0.  1.
</event>
<event>
 8    1  0.5616615E+005  0.1043930E+01  0.7957747E-01            NaN
         13   -1    0    0    0    0  0.00000000000E+00  0.00000000000E+00  0.74505805969E-08  0.10566000000E+00  0.10566000000E+00 0.  1.
     999900   -1    0    0    0    0 -0.00000000000E+00 -0.00000000000E+00 -0.74505805969E-08  0.93827000000E+00  0.93827000000E+00 0.  1.
     999902    2    1    2    0    0 -0.17666046229E-01  0.10592880700E-01 -0.10772847950E-01  0.10206845152E+01  0.10204197798E+01 0.  0.
     999903    2    3    3    0    0  0.23204581017E-01  0.55865862873E-01 -0.15817249245E+00  0.17058351750E+00  0.20512236841E-01 0.  0.
         14    1    1    2    0    0  0.17666046229E-01 -0.10592880700E-01  0.10772847950E-01  0.23245484805E-01  0.00000000000E+00 0. -1.
     999901    1    3    3    0    0 -0.40870627245E-01 -0.45272982173E-01  0.14739964450E+00  0.85010099770E+00  0.83500000000E+00 0. -1.
        -11    1    4    4    0    0  0.32890681112E-02  0.28768293779E-01 -0.56451433629E-01  0.63446498530E-01  0.51100000000E-03 0. -1.
         11    1    4    4    0    0  0.19915512906E-01  0.27097569094E-01 -0.10172105882E+00  0.10713701897E+00  0.51100000000E-03 0.  1.
</event>
<event>
 8    1  0.5616615E+005  0.1043930E+01  0.7957747E-01            NaN
         13   -1    0    0    0    0  0.00000000000E+00  0.00000000000E+00  0.74505805969E-08  0.10566000000E+00  0.10566000000E+00 0.  1.
     999900   -1    0    0    0    0 -0.00000000000E+00 -0.00000000000E+00 -0.74505805969E-08  0.93827000000E+00  0.93827000000E+00 0.  1.
     999902    2    1    2    0    0 -0.96711701218E-02  0.21609932677E-02 -0.20869380147E-01  0.10208273497E+01  0.10205658947E+01 0.  0.
     999903    2    3    3    0    0  0.15110276623E+00  0.58914076615E-01  0.33398029688E-01  0.16687236092E+00  0.20689177549E-01 0.  0.
         14    1    1    2    0    0  0.96711701218E-02 -0.21609932677E-02  0.20869380147E-01  0.23102650305E-01  0.00000000000E+00 0.  1.
     999901    1    3    3    0    0 -0.16077393635E+00 -0.56753083348E-01 -0.54267409834E-01  0.85395498877E+00  0.83500000000E+00 0. -1.
        -11    1    4    4    0    0  0.91424713250E-01  0.37377775185E-01  0.30441722737E-01  0.10335635382E+00  0.51100000000E-03 0. -1.
         11    1    4    4    0    0  0.59678052978E-01  0.21536301430E-01  0.29563069504E-02  0.63516007103E-01  0.51100000000E-03 0.  1.
</event>
<event>
 8    1  0.5616615E+005  0.1043930E+01  0.7957747E-01            NaN
         13   -1    0    0    0    0  0.00000000000E+00  0.00000000000E+00  0.74505805969E-08  0.10566000000E+00  0.10566000000E+00 0.  1.
     999900   -1    0    0    0    0 -0.00000000000E+00 -0.00000000000E+00 -0.74505805969E-08  0.93827000000E+00  0.93827000000E+00 0. -1.
     999902    2    1    2    0    0 -0.30060649629E-03  0.23542757562E-01 -0.52684178219E-02  0.10198030851E+01  0.10195176429E+01 0.  0.
     999903    2    3    3    0    0 -0.30359712167E-01 -0.15991874987E+00  0.32302140235E-02  0.16431556249E+00  0.22213759449E-01 0.  0.
         14    1    1    2    0    0  0.30060649629E-03 -0.23542757562E-01  0.52684178219E-02  0.24126914935E-01  0.00000000000E+00 0.  1.
     999901    1    3    3    0    0  0.30059105671E-01  0.18346150744E+00 -0.84986318453E-02  0.85548752258E+00  0.83500000000E+00 0.  1.
        -11    1    4    4    0    0 -0.15540134123E-01 -0.11201575304E+00  0.10790202664E-01  0.11360331989E+00  0.51100000000E-03 0. -1.
         11    1    4    4    0    0 -0.14819578044E-01 -0.47902996838E-01 -0.75599886403E-02  0.50712242592E-01  0.51100000000E-03 0.  1.
</event>
<event>
 8    1  0.5795740E+005  0.1043930E+01  0.7957747E-01            NaN
         13   -1    0    0    0    0  0.00000000000E+00  0.00000000000E+00  0.74505805969E-08  0.10566000000E+00  0.10566000000E+00 0. -1.
     999900   -1    0    0    0    0 -0.00000000000E+00 -0.00000000000E+00 -0.74505805969E-08  0.93827000000E+00  0.93827000000E+00 0.  1.
     999902    2    1    2    0    0  0.12782513498E-01  0.74330343724E-02 -0.19314737245E-01  0.10196050801E+01  0.10193148766E+01 0.  0.
     999903    2    3    3    0    0  0.13206446569E+00  0.83842140159E-01 -0.67049949979E-01  0.17133025080E+00  0.19693437500E-01 0.  0.
         14    1    1    2    0    0 -0.12782513498E-01 -0.74330343724E-02  0.19314737245E-01  0.24324919859E-01  0.00000000000E+00 0. -1.
     999901    1    3    3    0    0 -0.11928195219E+00 -0.76409105787E-01  0.47735212734E-01  0.84827482935E+00  0.83500000000E+00 0. -1.
        -11    1    4    4    0    0  0.41282480745E-01  0.32480857896E-01 -0.14287619991E-01  0.54439384201E-01  0.51100000000E-03 0. -1.
         11    1    4    4    0    0  0.90781984947E-01  0.51361282263E-01 -0.52762329987E-01  0.11689086659E+00  0.51100000000E-03 0.  1.
</event>
<event>
 8    1  0.5616615E+005  0.1043930E+01  0.7957747E-01            NaN
         13   -1    0    0    0    0  0.00000000000E+00  0.00000000000E+00  0.74505805969E-08  0.10566000000E+00  0.10566000000E+00 0.  1.
     999900   -1    0    0    0    0 -0.00000000000E+00 -0.00000000000E+00 -0.74505805969E-08  0.93827000000E+00  0.93827000000E+00 0.  1.
     999902    2    1    2    0    0  0.22054111515E-01 -0.55574827329E-02  0.27499907123E-02  0.10210207901E+01  0.10207637444E+01 0.  0.
     999903    2    3    3    0    0 -0.90746437845E-01  0.60536367622E-02 -0.13873786479E+00  0.16656037833E+00  0.14919852736E-01 0.  0.
         14    1    1    2    0    0 -0.22054111515E-01  0.55574827329E-02 -0.27499907123E-02  0.22909209894E-01  0.00000000000E+00 0.  1.
     999901    1    3    3    0    0  0.11280054936E+00 -0.11611119495E-01  0.14148785550E+00  0.85446041177E+00  0.83500000000E+00 0. -1.
        -11    1    4    4    0    0 -0.36880804890E-01 -0.48538077158E-02 -0.55836186985E-01  0.67094665336E-01  0.51100000000E-03 0.  1.
         11    1    4    4    0    0 -0.53865632955E-01  0.10907444478E-01 -0.82901677802E-01  0.99465712998E-01  0.51100000000E-03 0. -1.
</event>
<event>
 8    1  0.5616615E+005  0.1043930E+01  0.7957747E-01            NaN
         13   -1    0    0    0    0  0.00000000000E+00  0.00000000000E+00  0.74505805969E-08  0.10566000000E+00  0.10566000000E+00 0. -1.
     999900   -1    0    0    0    0 -0.00000000000E+00 -0.00000000000E+00 -0.74505805969E-08  0.93827000000E+00  0.93827000000E+00 0.  1.
     999902    2    1    2    0    0  0.16342290505E-01 -0.24615940394E-01  0.18556422447E-02  0.10143249601E+01  0.10138928278E+01 0.  0.
     999903    2    3    3    0    0 -0.56797439667E-01 -0.58400261990E-01 -0.14027913586E+00  0.16349119508E+00  0.20361609948E-01 0.  0.
         14    1    1    2    0    0 -0.16342290505E-01  0.24615940394E-01 -0.18556422447E-02  0.29605039918E-01  0.00000000000E+00 0. -1.
     999901    1    3    3    0    0  0.73139730172E-01  0.33784321596E-01  0.14213477810E+00  0.85083376500E+00  0.83500000000E+00 0.  1.
        -11    1    4    4    0    0 -0.34585143023E-01 -0.47864698756E-01 -0.10538844040E+00  0.12080623327E+00  0.51100000000E-03 0.  1.
         11    1    4    4    0    0 -0.22212296644E-01 -0.10535563233E-01 -0.34890695455E-01  0.42684961815E-01  0.51100000000E-03 0. -1.
</event>
<event>
 8    1  0.5616615E+005  0.1043930E+01  0.7957747E-01            NaN
         13   -1    0    0    0    0  0.00000000000E+00  0.00000000000E+00  0.74505805969E-08  0.10566000000E+00  0.10566000000E+00 0.  1.
     999900   -1    0    0    0    0 -0.00000000000E+00 -0.00000000000E+00 -0.74505805969E-08  0.93827000000E+00  0.93827000000E+00 0.  1.
     999902    2    1    2    0    0 -0.13438396686E-01 -0.92748660547E-02  0.16392711821E-01  0.10207927001E+01  0.10205304513E+01 0.  0.
     999903    2    3    3    0    0 -0.15050825332E+00  0.68289165486E-01  0.39539077088E-01  0.17075441931E+00  0.16660992022E-01 0.  0.
         14    1    1    2    0    0  0.13438396686E-01  0.92748660547E-02 -0.16392711821E-01  0.23137299900E-01  0.00000000000E+00 0. -1.
     999901    1    3    3    0    0  0.13706985664E+00 -0.77564031541E-01 -0.23146365267E-01  0.85003828079E+00  0.83500000000E+00 0. -1.
        -11    1    4    4    0    0 -0.81671865608E-01  0.27963422443E-01  0.19852014476E-01  0.88581094068E-01  0.51100000000E-03 0. -1.
         11    1    4    4    0    0 -0.68836387715E-01  0.40325743044E-01  0.19687062612E-01  0.82173325240E-01  0.51100000000E-03 0.  1.
</event>
<event>
 7    1  0.5616615E+005  0.1043930E+01  0.7957747E-01            NaN
         13   -1    0    0    0    0  0.00000000000E+00  0.00000000000E+00  0.74505805969E-08  0.10566000000E+00  0.10566000000E+00 0.  1.
     999900   -1    0    0    0    0 -0.00000000000E+00 -0.00000000000E+00 -0.74505805969E-08  0.93827000000E+00  0.93827000000E+00 0. -1.
     999903    2    1    2    0    0 -0.12113787746E-01 -0.12232163558E+00 -0.83044962230E-01  0.14967967826E+00  0.19955298753E-01 0.  0.
         14    1    1    2    0    0 -0.68183808684E-02 -0.26208934645E-01 -0.27693697430E-01  0.38734215497E-01  0.00000000000E+00 0. -1.
     999901    1    1    2    0    0  0.18932168615E-01  0.14853057022E+00  0.11073865966E+00  0.85551610624E+00  0.83500000000E+00 0.  1.
        -11    1    3    3    0    0 -0.50833608518E-03 -0.78492162278E-01 -0.60104390161E-01  0.98863930644E-01  0.51100000000E-03 0. -1.
         11    1    3    3    0    0 -0.11605451661E-01 -0.43829473299E-01 -0.22940572068E-01  0.50815747616E-01  0.51100000000E-03 0.  1.
</event>
<event>
 8    1  0.5616615E+005  0.1043930E+01  0.7957747E-01            NaN
         13   -1    0    0    0    0  0.00000000000E+00  0.00000000000E+00  0.74505805969E-08  0.10566000000E+00  0.10566000000E+00 0. -1.
     999900   -1    0    0    0    0 -0.00000000000E+00 -0.00000000000E+00 -0.74505805969E-08  0.93827000000E+00  0.93827000000E+00 0.  1.
     999902    2    1    2    0    0  0.16528323260E-01 -0.66326749362E-02  0.15671743882E-01  0.10202069858E+01  0.10199311312E+01 0.  0.
     999903    2    3    3    0    0  0.12600630200E+00 -0.10360893419E+00  0.50256518114E-01  0.17179026667E+00  0.19333357685E-01 0.  0.
         14    1    1    2    0    0 -0.16528323260E-01  0.66326749362E-02 -0.15671743882E-01  0.23723014204E-01  0.00000000000E+00 0.  1.
     999901    1    3    3    0    0 -0.10947797874E+00  0.96976259257E-01 -0.34584774232E-01  0.84841671913E+00  0.83500000000E+00 0. -1.
        -11    1    4    4    0    0  0.78326454997E-01 -0.74807668950E-01  0.28613686235E-01  0.11202778694E+00  0.51100000000E-03 0. -1.
         11    1    4    4    0    0  0.47679847006E-01 -0.28801265244E-01  0.21642831880E-01  0.59762479726E-01  0.51100000000E-03 0.  1.
</event>
<event>
 8    1  0.5616615E+005  0.1043930E+01  0.7957747E-01            NaN
         13   -1    0    0    0    0  0.00000000000E+00  0.00000000000E+00  0.74505805969E-08  0.10566000000E+00  0.10566000000E+00 0. -1.
     999900   -1    0    0    0    0 -0.00000000000E+00 -0.00000000000E+00 -0.74505805969E-08  0.93827000000E+00  0.93827000000E+00 0. -1.
     999902    2    1    2    0    0 -0.17067568471E-01 -0.11890693897E-01 -0.24475564695E-01  0.10118092316E+01  0.10112992522E+01 0.  0.
     999903    2    3    3    0    0 -0.13037438628E+00 -0.91504501543E-02 -0.99998869629E-01  0.16577453168E+00  0.20005251604E-01 0.  0.
         14    1    1    2    0    0  0.17067568471E-01  0.11890693897E-01  0.24475564695E-01  0.32120768391E-01  0.00000000000E+00 0. -1.
     999901    1    3    3    0    0  0.11330681780E+00 -0.27402437429E-02  0.75523304934E-01  0.84603469993E+00  0.83500000000E+00 0. -1.
        -11    1    4    4    0    0 -0.54061482512E-01 -0.97162318407E-02 -0.51863920482E-01  0.75545856414E-01  0.51100000000E-03 0.  1.
         11    1    4    4    0    0 -0.76312903764E-01  0.56578168635E-03 -0.48134949146E-01  0.90228675265E-01  0.51100000000E-03 0. -1.
</event>
<event>
 8    1  0.5616615E+005  0.1043930E+01  0.7957747E-01            NaN
         13   -1    0    0    0    0  0.00000000000E+00  0.00000000000E+00  0.74505805969E-08  0.10566000000E+00  0.10566000000E+00 0.  1.
     999900   -1    0    0    0    0 -0.00000000000E+00 -0.00000000000E+00 -0.74505805969E-08  0.93827000000E+00  0.93827000000E+00 0. -1.
     999902    2    1    2    0    0 -0.65935697231E-02  0.69049269256E-02  0.21072277021E-01  0.10207957389E+01  0.10205335597E+01 0.  0.
     999903    2    3    3    0    0 -0.14087680030E+00  0.67298096580E-01  0.68422194142E-01  0.17159238540E+00  0.19673418830E-01 0.  0.
         14    1    1    2    0    0  0.65935697231E-02 -0.69049269256E-02 -0.21072277021E-01  0.23134261095E-01  0.00000000000E+00 0. -1.
     999901    1    3    3    0    0  0.13428323058E+00 -0.60393169655E-01 -0.47349917120E-01  0.84920335351E+00  0.83500000000E+00 0. -1.
        -11    1    4    4    0    0 -0.11702584314E+00  0.61313906784E-01  0.51807587215E-01  0.14191099443E+00  0.51100000000E-03 0. -1.
         11    1    4    4    0    0 -0.23850957167E-01  0.59841897960E-02  0.16614606927E-01  0.29681390966E-01  0.51100000000E-03 0.  1.
</event>
<event>
 8    1  0.5616615E+005  0.1043930E+01  0.7957747E-01            NaN
         13   -1    0    0    0    0  0.00000000000E+00  0.00000000000E+00  0.74505805969E-08  0.10566000000E+00  0.10566000000E+00 0. -1.
     999900   -1    0    0    0    0 -0.00000000000E+00 -0.00000000000E+00 -0.74505805969E-08  0.93827000000E+00  0.93827000000E+00 0. -1.
     999902    2    1    2    0    0  0.16193270785E-03 -0.23656484632E-01  0.68207663809E-02  0.10193093107E+01  0.10190119197E+01 0.  0.
     999903    2    3    3    0    0  0.63357198730E-01  0.58811448865E-01 -0.13947821119E+00  0.16524667100E+00  0.19477415911E-01 0.  0.
         14    1    1    2    0    0 -0.16193270785E-03  0.23656484632E-01 -0.68207663809E-02  0.24620689296E-01  0.00000000000E+00 0. -1.
     999901    1    3    3    0    0 -0.63195266022E-01 -0.82467933497E-01  0.14629897757E+00  0.85406263971E+00  0.83500000000E+00 0.  1.
        -11    1    4    4    0    0  0.34891839802E-01  0.20044493016E-01 -0.70023800426E-01  0.80763951935E-01  0.51100000000E-03 0.  1.
         11    1    4    4    0    0  0.28465358928E-01  0.38766955849E-01 -0.69454410765E-01  0.84482719064E-01  0.51100000000E-03 0. -1.
</event>
<event>
 8    1  0.5616615E+005  0.1043930E+01  0.7957747E-01            NaN
         13   -1    0    0    0    0  0.00000000000E+00  0.00000000000E+00  0.74505805969E-08  0.10566000000E+00  0.10566000000E+00 0. -1.
     999900   -1    0    0    0    0 -0.00000000000E+00 -0.00000000000E+00 -0.74505805969E-08  0.93827000000E+00  0.93827000000E+00 0.  1.
     999902    2    1    2    0    0 -0.10899487650E-01  0.18216331007E-01 -0.10670689193E-01  0.10201708511E+01  0.10198941457E+01 0.  0.
     999903    2    3    3    0    0 -0.28906761949E-02  0.96770925857E-01 -0.14011163811E+00  0.17151607758E+00  0.20335329778E-01 0.  0.
         14    1    1    2    0    0  0.10899487650E-01 -0.18216331007E-01  0.10670689193E-01  0.23759148854E-01  0.00000000000E+00 0. -1.
     999901    1    3    3    0    0 -0.80088114551E-02 -0.78554594849E-01  0.12944094891E+00  0.84865477356E+00  0.83500000000E+00 0. -1.
        -11    1    4    4    0    0 -0.91394704727E-03  0.40296242760E-01 -0.76187068953E-01  0.86193695108E-01  0.51100000000E-03 0.  1.
         11    1    4    4    0    0 -0.19767291476E-02  0.56474683097E-01 -0.63924569153E-01  0.85322382477E-01  0.51100000000E-03 0. -1.
</event>
<event>
 8    1  0.5616615E+005  0.1043930E+01  0.7957747E-01            NaN
         13   -1    0    0    0    0  0.00000000000E+00  0.00000000000E+00  0.74505805969E-08  0.10566000000E+00  0.10566000000E+00 0. -1.
     999900   -1    0    0    0    0 -0.00000000000E+00 -0.00000000000E+00 -0.74505805969E-08  0.93827000000E+00  0.93827000000E+00 0.  1.
     999902    2    1    2    0    0  0.87265771388E-03 -0.23920431466E-01 -0.63112571294E-02  0.10191755956E+01  0.10188749256E+01 0.  0.
     999903    2    3    3    0    0  0.86928169554E-03  0.13973433188E+00  0.82541551364E-01  0.16366247283E+00  0.21115353493E-01 0.  0.
         14    1    1    2    0    0 -0.87265771388E-03  0.23920431466E-01  0.63112571294E-02  0.24754404448E-01  0.00000000000E+00 0.  1.
     999901    1    3    3    0    0  0.33760183487E-05 -0.16365476335E+00 -0.88852808494E-01  0.85551312273E+00  0.83500000000E+00 0.  1.
        -11    1    4    4    0    0  0.99194553491E-02  0.62751884107E-01  0.32109245992E-01  0.71186089601E-01  0.51100000000E-03 0.  1.
         11    1    4    4    0    0 -0.90501736536E-02  0.76982447774E-01  0.50432305372E-01  0.92476383227E-01  0.51100000000E-03 0. -1.
</event>
<event>
 8    1  0.5616615E+005  0.1043930E+01  0.7957747E-01            NaN
         13   -1    0    0    0    0  0.00000000000E+00  0.00000000000E+00  0.74505805969E-08  0.10566000000E+00  0.10566000000E+00 0.  1.
     999900   -1    0    0    0    0 -0.00000000000E+00 -0.00000000000E+00 -0.74505805969E-08  0.93827000000E+00  0.93827000000E+00 0. -1.
     999902    2    1    2    0    0 -0.17387806274E-01 -0.15080163626E-01 -0.13209818377E-03  0.10209133844E+01  0.10206538953E+01 0.  0.
     999903    2    3    3    0    0 -0.12811458704E+00 -0.40309417905E-01 -0.10509458526E+00  0.17171431535E+00  0.20068324792E-01 0.  0.
         14    1    1    2    0    0  0.17387806274E-01  0.15080163626E-01  0.13209818377E-03  0.23016615562E-01  0.00000000000E+00 0.  1.
     999901    1    3    3    0    0  0.11072678077E+00  0.25229254279E-01  0.10496248707E+00  0.84919906909E+00  0.83500000000E+00 0.  1.
        -11    1    4    4    0    0 -0.97922264085E-01 -0.28557545455E-01 -0.68675239274E-01  0.12296687691E+00  0.51100000000E-03 0. -1.
         11    1    4    4    0    0 -0.30192322958E-01 -0.11751872449E-01 -0.36419345983E-01  0.48747438441E-01  0.51100000000E-03 0.  1.
</event>
<event>
 8    1  0.5616615E+005  0.1043930E+01  0.7957747E-01            NaN
         13   -1    0    0    0    0  0.00000000000E+00  0.00000000000E+00  0.74505805969E-08  0.10566000000E+00  0.10566000000E+00 0. -1.
     999900   -1    0    0    0    0 -0.00000000000E+00 -0.00000000000E+00 -0.74505805969E-08  0.93827000000E+00  0.93827000000E+00 0. -1.
     999902    2    1    2    0    0  0.11174484739E-01  0.29491411202E-02  0.21223639165E-01  0.10197637135E+01  0.10194773279E+01 0.  0.
     999903    2    3    3    0    0 -0.13785045847E+00  0.63471161289E-01  0.70193979706E-01  0.16800409786E+00  0.16335387876E-01 0.  0.
         14    1    1    2    0    0 -0.11174484739E-01 -0.29491411202E-02 -0.21223639165E-01  0.24166286474E-01  0.00000000000E+00 0.  1.
     999901    1    3    3    0    0  0.14902494320E+00 -0.60522020169E-01 -0.48970340541E-01  0.85175961566E+00  0.83500000000E+00 0.  1.
        -11    1    4    4    0    0 -0.64382291324E-01  0.31420921434E-01  0.24369653538E-01  0.75673607516E-01  0.51100000000E-03 0. -1.
         11    1    4    4    0    0 -0.73468167141E-01  0.32050239855E-01  0.45824326168E-01  0.92330490347E-01  0.51100000000E-03 0.  1.
</event>
<event>
 8    1  0.5616615E+005  0.1043930E+01  0.7957747E-01            NaN
         13   -1    0    0    0    0  0.00000000000E+00  0.00000000000E+00  0.74505805969E-08  0.10566000000E+00  0.10566000000E+00 0.  1.
     999900   -1    0    0    0    0 -0.00000000000E+00 -0.00000000000E+00 -0.74505805969E-08  0.93827000000E+00  0.93827000000E+00 0. -1.
     999902    2    1    2    0    0 -0.91032795333E-02 -0.18768907152E-01  0.11607593472E-01  0.10200578866E+01  0.10197785123E+01 0.  0.
     999903    2    3    3    0    0  0.12611006853E+00  0.12000864986E-01 -0.10488287280E+00  0.16564319971E+00  0.19735309933E-01 0.  0.
         14    1    1    2    0    0  0.91032795333E-02  0.18768907152E-01 -0.11607593472E-01  0.23872113441E-01  0.00000000000E+00 0. -1.
     999901    1    3    3    0    0 -0.13521334806E+00 -0.30769772138E-01  0.11649046627E+00  0.85441468685E+00  0.83500000000E+00 0. -1.
        -11    1    4    4    0    0  0.64852099377E-01  0.12751815940E-01 -0.63903653466E-01  0.91936617572E-01  0.51100000000E-03 0. -1.
         11    1    4    4    0    0  0.61257969152E-01 -0.75095095427E-03 -0.40979219335E-01  0.73706582137E-01  0.51100000000E-03 0.  1.
</event>
<event>
 8    1  0.5616615E+005  0.1043930E+01  0.7957747E-01            NaN
         13   -1    0    0    0    0  0.00000000000E+00  0.00000000000E+00  0.74505805969E-08  0.10566000000E+00  0.10566000000E+00 0.  1.
     999900   -1    0    0    0    0 -0.00000000000E+00 -0.00000000000E+00 -0.74505805969E-08  0.93827000000E+00  0.93827000000E+00 0. -1.
     999902    2    1    2    0    0 -0.95672927835E-02  0.19302875402E-01  0.77103416135E-02  0.10210480539E+01  0.10207916266E+01 0.  0.
     999903    2    3    3    0    0  0.28288556614E-01 -0.16127555177E+00 -0.14499061029E-01  0.16561840087E+00  0.20228344012E-01 0.  0.
         14    1    1    2    0    0  0.95672927835E-02 -0.19302875402E-01 -0.77103416135E-02  0.22881946110E-01  0.00000000000E+00 0. -1.
     999901    1    3    3    0    0 -0.37855849398E-01  0.18057842718E+00  0.22209402643E-01  0.85542965302E+00  0.83500000000E+00 0.  1.
        -11    1    4    4    0    0  0.20535365837E-01 -0.76622778950E-01  0.31222045481E-03  0.79329125211E-01  0.51100000000E-03 0. -1.
         11    1    4    4    0    0  0.77531907769E-02 -0.84652772825E-01 -0.14811281484E-01  0.86289275662E-01  0.51100000000E-03 0.  1.
</event>
<event>
 8    1  0.5616615E+005  0.1043930E+01  0.7957747E-01            NaN
         13   -1    0    0    0    0  0.00000000000E+00  0.00000000000E+00  0.74505805969E-08  0.10566000000E+00  0.10566000000E+00 0.  1.
     999900   -1    0    0    0    0 -0.00000000000E+00 -0.00000000000E+00 -0.74505805969E-08  0.93827000000E+00  0.93827000000E+00 0.  1.
     999902    2    1    2    0    0  0.31634206717E-03 -0.34931129176E-02  0.24024019805E-01  0.10196512966E+01  0.10193622081E+01 0.  0.
     999903    2    3    3    0    0 -0.10088587713E+00 -0.93670916711E-01  0.98378063028E-01  0.17045906325E+00  0.20636087748E-01 0.  0.
         14    1    1    2    0    0 -0.31634206717E-03  0.34931129176E-02 -0.24024019805E-01  0.24278703379E-01  0.00000000000E+00 0. -1.
     999901    1    3    3    0    0  0.10120221920E+00  0.90177803793E-01 -0.74354043223E-01  0.84919223337E+00  0.83500000000E+00 0. -1.
        -11    1    4    4    0    0 -0.29846174233E-01 -0.32994223524E-01  0.21242288347E-01  0.49304247662E-01  0.51100000000E-03 0.  1.
         11    1    4    4    0    0 -0.71039702901E-01 -0.60676693187E-01  0.77135774682E-01  0.12115481559E+00  0.51100000000E-03 0. -1.
</event>
<event>
 8    1  0.5616615E+005  0.1043930E+01  0.7957747E-01            NaN
         13   -1    0    0    0    0  0.00000000000E+00  0.00000000000E+00  0.74505805969E-08  0.10566000000E+00  0.10566000000E+00 0. -1.
     999900   -1    0    0    0    0 -0.00000000000E+00 -0.00000000000E+00 -0.74505805969E-08  0.93827000000E+00  0.93827000000E+00 0. -1.
     999902    2    1    2    0    0  0.11832537420E-01  0.69088783254E-03 -0.21469393407E-01  0.10194061112E+01  0.10191110825E+01 0.  0.
     999903    2    3    3    0    0 -0.28847395682E-01  0.11955604320E+00 -0.11545114817E+00  0.16979363935E+00  0.19367308699E-01 0.  0.
         14    1    1    2    0    0 -0.11832537420E-01 -0.69088783254E-03  0.21469393407E-01  0.24523888784E-01  0.00000000000E+00 0. -1.
     999901    1    3    3    0    0  0.40679933102E-01 -0.11886515537E+00  0.93981754768E-01  0.84961247186E+00  0.83500000000E+00 0.  1.
        -11    1    4    4    0    0 -0.67644347154E-04  0.33119832065E-01 -0.25904892001E-01  0.42050593365E-01  0.51100000000E-03 0.  1.
         11    1    4    4    0    0 -0.28779751335E-01  0.86436211135E-01 -0.89546256174E-01  0.12774304599E+00  0.51100000000E-03 0. -1.
</event>
<event>
 8    1  0.5616615E+005  0.1043930E+01  0.7957747E-01            NaN
         13   -1    0    0    0    0  0.00000000000E+00  0.00000000000E+00  0.74505805969E-08  0.10566000000E+00  0.10566000000E+00 0. -1.
     999900   -1    0    0    0    0 -0.00000000000E+00 -0.00000000000E+00 -0.74505805969E-08  0.93827000000E+00  0.93827000000E+00 0.  1.
     999902    2    1    2    0    0 -0.12435818517E-01 -0.14689327024E-01 -0.12453891601E-01  0.10210056608E+01  0.10207482717E+01 0.  0.
     999903    2    3    3    0    0 -0.12705456787E+00  0.10581415196E+00 -0.30261897729E-01  0.16941851248E+00  0.21150696040E-01 0.  0.
         14    1    1    2    0    0  0.12435818517E-01  0.14689327024E-01  0.12453891601E-01  0.22924339175E-01  0.00000000000E+00 0.  1.
     999901    1    3    3    0    0  0.11461874935E+00 -0.12050347899E+00  0.17808006128E-01  0.85158714835E+00  0.83500000000E+00 0. -1.
        -11    1    4    4    0    0 -0.49126256550E-01  0.34631316221E-01 -0.19455324040E-02  0.60139532448E-01  0.51100000000E-03 0.  1.
         11    1    4    4    0    0 -0.77928311320E-01  0.71182835744E-01 -0.28316365325E-01  0.10927898003E+00  0.51100000000E-03 0. -1.
</event>
<event>
 8    1  0.5616615E+005  0.1043930E+01  0.7957747E-01            NaN
         13   -1    0    0    0    0  0.00000000000E+00  0.00000000000E+00  0.74505805969E-08  0.10566000000E+00  0.10566000000E+00 0. -1.
     999900   -1    0    0    0    0 -0.00000000000E+00 -0.00000000000E+00 -0.74505805969E-08  0.93827000000E+00  0.93827000000E+00 0. -1.
     999902    2    1    2    0    0 -0.12428022448E-01  0.16873133981E-01  0.80285653813E-02  0.10214886040E+01  0.10212420633E+01 0.  0.
     999903    2    3    3    0    0  0.49861947832E-01 -0.52099915990E-01 -0.14860988386E+00  0.16685539273E+00  0.23562882140E-01 0.  0.
         14    1    1    2    0    0  0.12428022448E-01 -0.16873133981E-01 -0.80285653813E-02  0.22441395999E-01  0.00000000000E+00 0. -1.
     999901    1    3    3    0    0 -0.62289970280E-01  0.68973049972E-01  0.15663844924E+00  0.85463321127E+00  0.83500000000E+00 0.  1.
        -11    1    4    4    0    0  0.15655992258E-01 -0.33315128146E-01 -0.74289730358E-01  0.82910994534E-01  0.51100000000E-03 0.  1.
         11    1    4    4    0    0  0.34205955573E-01 -0.18784787844E-01 -0.74320153505E-01  0.83944398199E-01  0.51100000000E-03 0. -1.
</event>
<event>
 8    1  0.5616615E+005  0.1043930E+01  0.7957747E-01            NaN
         13   -1    0    0    0    0  0.00000000000E+00  0.00000000000E+00  0.74505805969E-08  0.10566000000E+00  0.10566000000E+00 0. -1.
     999900   -1    0    0    0    0 -0.00000000000E+00 -0.00000000000E+00 -0.74505805969E-08  0.93827000000E+00  0.93827000000E+00 0.  1.
     999902    2    1    2    0    0  0.19956325120E-01  0.10280844196E-01 -0.48733455453E-02  0.10209582746E+01  0.10206998082E+01 0.  0.
     999903    2    3    3    0    0  0.13669337071E+00  0.65076874416E-01 -0.80508039059E-01  0.17268016599E+00  0.20416125770E-01 0.  0.
         14    1    1    2    0    0 -0.19956325120E-01 -0.10280844196E-01  0.48733455453E-02  0.22971725370E-01  0.00000000000E+00 0.  1.
     999901    1    3    3    0    0 -0.11673704559E+00 -0.54796030219E-01  0.75634693514E-01  0.84827810864E+00  0.83500000000E+00 0. -1.
        -11    1    4    4    0    0  0.79074425759E-01  0.46283049530E-01 -0.41359282849E-01  0.10052729421E+00  0.51100000000E-03 0. -1.
         11    1    4    4    0    0  0.57618944953E-01  0.18793824885E-01 -0.39148756210E-01  0.72152871773E-01  0.51100000000E-03 0.  1.
</event>
<event>
 8    1  0.5616615E+005  0.1043930E+01  0.7957747E-01            NaN
         13   -1    0    0    0    0  0.00000000000E+00  0.00000000000E+00  0.74505805969E-08  0.10566000000E+00  0.10566000000E+00 0.  1.
     999900   -1    0    0    0    0 -0.00000000000E+00 -0.00000000000E+00 -0.74505805969E-08  0.93827000000E+00  0.93827000000E+00 0.  1.
     999902    2    1    2    0    0  0.88857401657E-02  0.20009360365E-01 -0.90628197444E-02  0.10202347350E+01  0.10199595330E+01 0.  0.
     999903    2    3    3    0    0 -0.13476192174E+00 -0.62038626973E-01  0.70228977049E-01  0.16532028782E+00  0.19726164385E-01 0.  0.
         14    1    1    2    0    0 -0.88857401657E-02 -0.20009360365E-01  0.90628197444E-02  0.23695264975E-01  0.00000000000E+00 0.  1.
     999901    1    3    3    0    0  0.14364766190E+00  0.82047987337E-01 -0.79291796794E-01  0.85491444720E+00  0.83500000000E+00 0. -1.
        -11    1    4    4    0    0 -0.81182484710E-01 -0.43967866793E-01  0.51696542269E-01  0.10581381166E+00  0.51100000000E-03 0. -1.
         11    1    4    4    0    0 -0.53579437028E-01 -0.18070760180E-01  0.18532434781E-01  0.59506476165E-01  0.51100000000E-03 0.  1.
</event>
<event>
 8    1  0.5616615E+005  0.1043930E+01  0.7957747E-01            NaN
         13   -1    0    0    0    0  0.00000000000E+00  0.00000000000E+00  0.74505805969E-08  0.10566000000E+00  0.10566000000E+00 0.  1.
     999900   -1    0    0    0    0 -0.00000000000E+00 -0.00000000000E+00 -0.74505805969E-08  0.93827000000E+00  0.93827000000E+00 0.  1.
     999902    2    1    2    0    0 -0.20493328931E-01  0.97619579970E-02 -0.82255241469E-02  0.10197860235E+01  0.10195001727E+01 0.  0.
     999903    2    3    3    0    0  0.42437740782E-01 -0.14945621265E+00 -0.55010028164E-01  0.16613238458E+00  0.20874497950E-01 0.  0.
         14    1    1    2    0    0  0.20493328931E-01 -0.97619579970E-02  0.82255241469E-02  0.24143976518E-01  0.00000000000E+00 0.  1.
     999901    1    3    3    0    0 -0.62931069713E-01  0.15921817065E+00  0.46784504017E-01  0.85365363890E+00  0.83500000000E+00 0.  1.
        -11    1    4    4    0    0  0.28012319972E-01 -0.69979239121E-01 -0.33842559338E-01  0.82627864076E-01  0.51100000000E-03 0.  1.
         11    1    4    4    0    0  0.14425420810E-01 -0.79476973527E-01 -0.21167468826E-01  0.83504520501E-01  0.51100000000E-03 0. -1.
</event>
<event>
 8    1  0.5616615E+005  0.1043930E+01  0.7957747E-01            NaN
         13   -1    0    0    0    0  0.00000000000E+00  0.00000000000E+00  0.74505805969E-08  0.10566000000E+00  0.10566000000E+00 0. -1.
     999900   -1    0    0    0    0 -0.00000000000E+00 -0.00000000000E+00 -0.74505805969E-08  0.93827000000E+00  0.93827000000E+00 0. -1.
     999902    2    1    2    0    0  0.14688521646E-01  0.16894378612E-01  0.57811459596E-02  0.10208087036E+01  0.10205468216E+01 0.  0.
     999903    2    3    3    0    0 -0.45628258954E-01 -0.15669512617E+00  0.20849420591E-01  0.16569263953E+00  0.19597241568E-01 0.  0.
         14    1    1    2    0    0 -0.14688521646E-01 -0.16894378612E-01 -0.57811459596E-02  0.23121296361E-01  0.00000000000E+00 0.  1.
     999901    1    3    3    0    0  0.60316780600E-01  0.17358950478E+00 -0.15068274631E-01  0.85511606411E+00  0.83500000000E+00 0. -1.
        -11    1    4    4    0    0 -0.50597132139E-02 -0.40500829217E-01  0.10717433770E-01  0.42202397712E-01  0.51100000000E-03 0. -1.
         11    1    4    4    0    0 -0.40568545740E-01 -0.11619429695E+00  0.10131986821E-01  0.12349024182E+00  0.51100000000E-03 0.  1.
</event>
<event>
 8    1  0.6440322E+005  0.1043930E+01  0.7957747E-01            NaN
         13   -1    0    0    0    0  0.00000000000E+00  0.00000000000E+00  0.74505805969E-08  0.10566000000E+00  0.10566000000E+00 0.  1.
     999900   -1    0    0    0    0 -0.00000000000E+00 -0.00000000000E+00 -0.74505805969E-08  0.93827000000E+00  0.93827000000E+00 0. -1.
     999902    2    1    2    0    0  0.14694617337E-01 -0.14244532581E-01 -0.10800957892E-01  0.10207891448E+01  0.10205268144E+01 0.  0.
     999903    2    3    3    0    0 -0.16359792672E+00  0.36197678238E-02  0.21269325345E-01  0.16617761461E+00  0.19627303723E-01 0.  0.
         14    1    1    2    0    0 -0.14694617337E-01  0.14244532581E-01  0.10800957892E-01  0.23140855181E-01  0.00000000000E+00 0.  1.
     999901    1    3    3    0    0  0.17829254406E+00 -0.17864300404E-01 -0.32070283237E-01  0.85461153021E+00  0.83500000000E+00 0. -1.
        -11    1    4    4    0    0 -0.51424414266E-01 -0.15695201985E-02  0.15499641603E-01  0.53734847046E-01  0.51100000000E-03 0.  1.
         11    1    4    4    0    0 -0.11217351245E+00  0.51892880223E-02  0.57696837420E-02  0.11244276757E+00  0.51100000000E-03 0. -1.
</event>
<event>
 8    1  0.5616615E+005  0.1043930E+01  0.7957747E-01            NaN
         13   -1    0    0    0    0  0.00000000000E+00  0.00000000000E+00  0.74505805969E-08  0.10566000000E+00  0.10566000000E+00 0.  1.
     999900   -1    0    0    0    0 -0.00000000000E+00 -0.00000000000E+00 -0.74505805969E-08  0.93827000000E+00  0.93827000000E+00 0. -1.
     999902    2    1    2    0    0  0.64619092068E-02  0.75761440242E-02  0.24941981136E-01  0.10170737782E+01  0.10167191419E+01 0.  0.
     999903    2    3    3    0    0  0.67974472550E-01 -0.46163675066E-01 -0.13913139622E+00  0.16219551971E+00  0.14079324779E-01 0.  0.
         14    1    1    2    0    0 -0.64619092068E-02 -0.75761440242E-02 -0.24941981136E-01  0.26856221846E-01  0.00000000000E+00 0. -1.
     999901    1    3    3    0    0 -0.61512563344E-01  0.53739819090E-01  0.16407337735E+00  0.85487825844E+00  0.83500000000E+00 0.  1.
        -11    1    4    4    0    0  0.32770784523E-01 -0.19345699496E-01 -0.77249014844E-01  0.86115340228E-01  0.51100000000E-03 0.  1.
         11    1    4    4    0    0  0.35203688028E-01 -0.26817975571E-01 -0.61882381373E-01  0.76080179481E-01  0.51100000000E-03 0. -1.
</event>
<event>
 8    1  0.5616615E+005  0.1043930E+01  0.7957747E-01            NaN
         13   -1    0    0    0    0  0.00000000000E+00  0.00000000000E+00  0.74505805969E-08  0.10566000000E+00  0.10566000000E+00 0.  1.
     999900   -1    0    0    0    0 -0.00000000000E+00 -0.00000000000E+00 -0.74505805969E-08  0.93827000000E+00  0.93827000000E+00 0. -1.
     999902    2    1    2    0    0  0.13001184383E-01 -0.19109966433E-01  0.49117302015E-02  0.10203006389E+01  0.10200269835E+01 0.  0.
     999903    2    3    3    0    0 -0.25317650957E-01  0.22950140753E-01 -0.16212492733E+00  0.16685841431E+00  0.19736918499E-01 0.  0.
         14    1    1    2    0    0 -0.13001184383E-01  0.19109966433E-01 -0.49117302015E-02  0.23629361101E-01  0.00000000000E+00 0.  1.
     999901    1    3    3    0    0  0.38318835340E-01 -0.42060107187E-01  0.16703665753E+00  0.85344222459E+00  0.83500000000E+00 0.  1.
        -11    1    4    4    0    0 -0.16302249551E-01  0.18291185764E-01 -0.69823902167E-01  0.73999792243E-01  0.51100000000E-03 0. -1.
         11    1    4    4    0    0 -0.90154014060E-02  0.46589549888E-02 -0.92301025165E-01  0.92858622064E-01  0.51100000000E-03 0.  1.
</event>
<event>
 8    1  0.5616615E+005  0.1043930E+01  0.7957747E-01            NaN
         13   -1    0    0    0    0  0.00000000000E+00  0.00000000000E+00  0.74505805969E-08  0.10566000000E+00  0.10566000000E+00 0. -1.
     999900   -1    0    0    0    0 -0.00000000000E+00 -0.00000000000E+00 -0.74505805969E-08  0.93827000000E+00  0.93827000000E+00 0.  1.
     999902    2    1    2    0    0 -0.13359093628E-01 -0.19604980277E-02  0.19216490846E-01  0.10204442074E+01  0.10201739057E+01 0.  0.
     999903    2    3    3    0    0 -0.12511029976E+00  0.37934305873E-01  0.11019184729E+00  0.17216274292E+00  0.20153614422E-01 0.  0.
         14    1    1    2    0    0  0.13359093628E-01  0.19604980277E-02 -0.19216490846E-01  0.23485792631E-01  0.00000000000E+00 0.  1.
     999901    1    3    3    0    0  0.11175120613E+00 -0.39894803901E-01 -0.90975356440E-01  0.84828146445E+00  0.83500000000E+00 0.  1.
        -11    1    4    4    0    0 -0.20897973345E-01  0.13840240559E-01  0.16930497465E-01  0.30251948930E-01  0.51100000000E-03 0.  1.
         11    1    4    4    0    0 -0.10421232641E+00  0.24094065314E-01  0.93261349820E-01  0.14191079399E+00  0.51100000000E-03 0. -1.
</event>
<event>
 8    1  0.5616615E+005  0.1043930E+01  0.7957747E-01            NaN
         13   -1    0    0    0    0  0.00000000000E+00  0.00000000000E+00  0.74505805969E-08  0.10566000000E+00  0.10566000000E+00 0. -1.
     999900   -1    0    0    0    0 -0.00000000000E+00 -0.00000000000E+00 -0.74505805969E-08  0.93827000000E+00  0.93827000000E+00 0.  1.
     999902    2    1    2    0    0 -0.16556594544E-01 -0.15294201145E-01  0.80569824428E-02  0.10199936599E+01  0.10197127624E+01 0.  0.
     999903    2    3    3    0    0  0.11277008891E+00  0.60250330589E-01 -0.10162260112E+00  0.16460662564E+00  0.20518110463E-01 0.  0.
         14    1    1    2    0    0  0.16556594544E-01  0.15294201145E-01 -0.80569824428E-02  0.23936340105E-01  0.00000000000E+00 0.  1.
     999901    1    3    3    0    0 -0.12932668345E+00 -0.75544531734E-01  0.10967958356E+00  0.85538703426E+00  0.83500000000E+00 0. -1.
        -11    1    4    4    0    0  0.19900166439E-01  0.65192134675E-02 -0.25759872536E-01  0.33201640360E-01  0.51100000000E-03 0.  1.
         11    1    4    4    0    0  0.92869922470E-01  0.53731117121E-01 -0.75862728580E-01  0.13140498528E+00  0.51100000000E-03 0. -1.
</event>
<event>
 8    1  0.5616615E+005  0.1043930E+01  0.7957747E-01            NaN
         13   -1    0    0    0    0  0.00000000000E+00  0.00000000000E+00  0.74505805969E-08  0.10566000000E+00  0.10566000000E+00 0. -1.
     999900   -1    0    0    0    0 -0.00000000000E+00 -0.00000000000E+00 -0.74505805969E-08  0.93827000000E+00  0.93827000000E+00 0. -1.
     999902    2    1    2    0    0 -0.21584002716E-01  0.14809471199E-01  0.67620208019E-02  0.10168945689E+01  0.10165351197E+01 0.  0.
     999903    2    3    3    0    0  0.12969344384E-01  0.15253363501E+00 -0.63654928413E-01  0.16698549973E+00  0.19937239167E-01 0.  0.
         14    1    1    2    0    0  0.21584002716E-01 -0.14809471199E-01 -0.67620208019E-02  0.27035431118E-01  0.00000000000E+00 0.  1.
     999901    1    3    3    0    0 -0.34553347099E-01 -0.13772416381E+00  0.70416949215E-01  0.84990906915E+00  0.83500000000E+00 0.  1.
        -11    1    4    4    0    0  0.58845897767E-02  0.82083719034E-01 -0.44850219753E-01  0.93723895886E-01  0.51100000000E-03 0.  1.
         11    1    4    4    0    0  0.70847546069E-02  0.70449915975E-01 -0.18804708660E-01  0.73261603842E-01  0.51100000000E-03 0. -1.
</event>
<event>
 8    1  0.5616615E+005  0.1043930E+01  0.7957747E-01            NaN
         13   -1    0    0    0    0  0.00000000000E+00  0.00000000000E+00  0.74505805969E-08  0.10566000000E+00  0.10566000000E+00 0. -1.
     999900   -1    0    0    0    0 -0.00000000000E+00 -0.00000000000E+00 -0.74505805969E-08  0.93827000000E+00  0.93827000000E+00 0.  1.
     999902    2    1    2    0    0 -0.75879019727E-02 -0.18613654006E-01  0.11694808041E-01  0.10206746155E+01  0.10204096520E+01 0.  0.
     999903    2    3    3    0    0 -0.77191843138E-01  0.10208475834E+00 -0.10423663844E+00  0.16622864553E+00  0.19667416400E-01 0.  0.
         14    1    1    2    0    0  0.75879019727E-02  0.18613654006E-01 -0.11694808041E-01  0.23255384471E-01  0.00000000000E+00 0.  1.
     999901    1    3    3    0    0  0.69603941165E-01 -0.12069841235E+00  0.11593144648E+00  0.85444597000E+00  0.83500000000E+00 0. -1.
        -11    1    4    4    0    0 -0.14468855678E-01  0.25459752247E-01 -0.14896892935E-01  0.32859173898E-01  0.51100000000E-03 0.  1.
         11    1    4    4    0    0 -0.62722987460E-01  0.76625006096E-01 -0.89339745504E-01  0.13336947163E+00  0.51100000000E-03 0. -1.
</event>
<event>
 8    1  0.5616615E+005  0.1043930E+01  0.7957747E-01            NaN
         13   -1    0    0    0    0  0.00000000000E+00  0.00000000000E+00  0.74505805969E-08  0.10566000000E+00  0.10566000000E+00 0.  1.
     999900   -1    0    0    0    0 -0.00000000000E+00 -0.00000000000E+00 -0.74505805969E-08  0.93827000000E+00  0.93827000000E+00 0.  1.
     999902    2    1    2    0    0 -0.14917427607E-01 -0.19028433984E-01  0.31746074680E-02  0.10195437523E+01  0.10192520658E+01 0.  0.
     999903    2    3    3    0    0  0.56164200315E-01  0.66384441420E-01  0.14017628233E+00  0.16611395665E+00  0.19574090199E-01 0.  0.
         14    1    1    2    0    0  0.14917427607E-01  0.19028433984E-01 -0.31746074680E-02  0.24386247741E-01  0.00000000000E+00 0.  1.
     999901    1    3    3    0    0 -0.71081627922E-01 -0.85412875404E-01 -0.13700167486E+00  0.85342979561E+00  0.83500000000E+00 0.  1.
        -11    1    4    4    0    0  0.50374177168E-01  0.51850727393E-01  0.12445919215E+00  0.14393195367E+00  0.51100000000E-03 0.  1.
         11    1    4    4    0    0  0.57900231465E-02  0.14533714027E-01  0.15717090184E-01  0.22182002983E-01  0.51100000000E-03 0. -1.
</event>
<event>
 8    1  0.5616615E+005  0.1043930E+01  0.7957747E-01            NaN
         13   -1    0    0    0    0  0.00000000000E+00  0.00000000000E+00  0.74505805969E-08  0.10566000000E+00  0.10566000000E+00 0. -1.
     999900   -1    0    0    0    0 -0.00000000000E+00 -0.00000000000E+00 -0.74505805969E-08  0.93827000000E+00  0.93827000000E+00 0. -1.
     999902    2    1    2    0    0 -0.10111779562E-02 -0.83552887012E-02  0.21811606113E-01  0.10205509604E+01  0.10202831388E+01 0.  0.
     999903    2    3    3    0    0 -0.53771503243E-01 -0.13092428511E+00  0.95196837501E-01  0.17177701939E+00  0.20306735989E-01 0.  0.
         14    1    1    2    0    0  0.10111779562E-02  0.83552887012E-02 -0.21811606113E-01  0.23379039573E-01  0.00000000000E+00 0.  1.
     999901    1    3    3    0    0  0.52760325287E-01  0.12256899641E+00 -0.73385231388E-01  0.84877394104E+00  0.83500000000E+00 0. -1.
        -11    1    4    4    0    0 -0.20231460478E-01 -0.68372462161E-01  0.56210472579E-01  0.90796387173E-01  0.51100000000E-03 0.  1.
         11    1    4    4    0    0 -0.33540042766E-01 -0.62551822948E-01  0.38986364922E-01  0.80980632213E-01  0.51100000000E-03 0. -1.
</event>
<event>
 8    1  0.5616615E+005  0.1043930E+01  0.7957747E-01            NaN
         13   -1    0    0    0    0  0.00000000000E+00  0.00000000000E+00  0.74505805969E-08  0.10566000000E+00  0.10566000000E+00 0.  1.
     999900   -1    0    0    0    0 -0.00000000000E+00 -0.00000000000E+00 -0.74505805969E-08  0.93827000000E+00  0.93827000000E+00 0.  1.
     999902    2    1    2    0    0 -0.14244288192E-01 -0.18966950890E-01 -0.20754705986E-02  0.10201192346E+01  0.10198413113E+01 0.  0.
     999903    2    3    3    0    0  0.12928166037E+00 -0.32942605333E-01 -0.98881242979E-01  0.16724680894E+00  0.19875410307E-01 0.  0.
         14    1    1    2    0    0  0.14244288192E-01  0.18966950890E-01  0.20754705986E-02  0.23810765431E-01  0.00000000000E+00 0.  1.
     999901    1    3    3    0    0 -0.14352594856E+00  0.13975654442E-01  0.96805772380E-01  0.85287242563E+00  0.83500000000E+00 0. -1.
        -11    1    4    4    0    0  0.56334905619E-01 -0.22095783023E-01 -0.52576678706E-01  0.80164914291E-01  0.51100000000E-03 0.  1.
         11    1    4    4    0    0  0.72946754750E-01 -0.10846822309E-01 -0.46304564273E-01  0.87081894652E-01  0.51100000000E-03 0. -1.
</event>
<event>
 8    1  0.5616615E+005  0.1043930E+01  0.7957747E-01            NaN
         13   -1    0    0    0    0  0.00000000000E+00  0.00000000000E+00  0.74505805969E-08  0.10566000000E+00  0.10566000000E+00 0. -1.
     999900   -1    0    0    0    0 -0.00000000000E+00 -0.00000000000E+00 -0.74505805969E-08  0.93827000000E+00  0.93827000000E+00 0. -1.
     999902    2    1    2    0    0  0.11129196264E-01  0.19098627648E-01  0.85542604120E-02  0.10202278491E+01  0.10199524852E+01 0.  0.
     999903    2    3    3    0    0  0.99641224339E-02  0.70228254686E-01 -0.15141981582E+00  0.16850471259E+00  0.20846727560E-01 0.  0.
         14    1    1    2    0    0 -0.11129196264E-01 -0.19098627648E-01 -0.85542604120E-02  0.23702150930E-01  0.00000000000E+00 0. -1.
     999901    1    3    3    0    0  0.11650738299E-02 -0.51129627038E-01  0.15997407623E+00  0.85172313648E+00  0.83500000000E+00 0.  1.
        -11    1    4    4    0    0  0.14218794871E-01  0.29332145572E-01 -0.73326047807E-01  0.80246615502E-01  0.51100000000E-03 0. -1.
         11    1    4    4    0    0 -0.42546724374E-02  0.40896109113E-01 -0.78093768008E-01  0.88258097084E-01  0.51100000000E-03 0.  1.
</event>
<event>
 8    1  0.5616615E+005  0.1043930E+01  0.7957747E-01            NaN
         13   -1    0    0    0    0  0.00000000000E+00  0.00000000000E+00  0.74505805969E-08  0.10566000000E+00  0.10566000000E+00 0. -1.
     999900   -1    0    0    0    0 -0.00000000000E+00 -0.00000000000E+00 -0.74505805969E-08  0.93827000000E+00  0.93827000000E+00 0. -1.
     999902    2    1    2    0    0  0.22315381785E-01 -0.63614260846E-02  0.52379109773E-02  0.10201417736E+01  0.10198643824E+01 0.  0.
     999903    2    3    3    0    0 -0.14080567705E+00  0.25298977985E-01  0.80843427120E-01  0.16541839427E+00  0.19008116152E-01 0.  0.
         14    1    1    2    0    0 -0.22315381785E-01  0.63614260846E-02 -0.52379109773E-02  0.23788226446E-01  0.00000000000E+00 0.  1.
     999901    1    3    3    0    0  0.16312105883E+00 -0.31660404070E-01 -0.75605516143E-01  0.85472337928E+00  0.83500000000E+00 0. -1.
        -11    1    4    4    0    0 -0.10591754588E+00  0.18667746291E-01  0.69835422824E-01  0.12823516943E+00  0.51100000000E-03 0.  1.
         11    1    4    4    0    0 -0.34888131170E-01  0.66312316941E-02  0.11008004296E-01  0.37183224845E-01  0.51100000000E-03 0. -1.
</event>
<event>
 8    1  0.5616615E+005  0.1043930E+01  0.7957747E-01            NaN
         13   -1    0    0    0    0  0.00000000000E+00  0.00000000000E+00  0.74505805969E-08  0.10566000000E+00  0.10566000000E+00 0. -1.
     999900   -1    0    0    0    0 -0.00000000000E+00 -0.00000000000E+00 -0.74505805969E-08  0.93827000000E+00  0.93827000000E+00 0. -1.
     999902    2    1    2    0    0 -0.18447022141E-01 -0.11189835669E-01 -0.77453843723E-02  0.10210062999E+01  0.10207489252E+01 0.  0.
     999903    2    3    3    0    0 -0.13353736846E+00  0.21198647137E-01  0.10156766756E+00  0.17043640566E+00  0.21235956860E-01 0.  0.
         14    1    1    2    0    0  0.18447022141E-01  0.11189835669E-01  0.77453843723E-02  0.22923700121E-01  0.00000000000E+00 0. -1.
     999901    1    3    3    0    0  0.11509034632E+00 -0.32388482806E-01 -0.10931305193E+00  0.85056989422E+00  0.83500000000E+00 0. -1.
        -11    1    4    4    0    0 -0.10868677742E+00  0.87280022372E-02  0.79736719313E-01  0.13508219400E+00  0.51100000000E-03 0.  1.
         11    1    4    4    0    0 -0.24850591045E-01  0.12470644900E-01  0.21830948245E-01  0.35354211655E-01  0.51100000000E-03 0. -1.
</event>
<event>
 8    1  0.5616615E+005  0.1043930E+01  0.7957747E-01            NaN
         13   -1    0    0    0    0  0.00000000000E+00  0.00000000000E+00  0.74505805969E-08  0.10566000000E+00  0.10566000000E+00 0.  1.
     999900   -1    0    0    0    0 -0.00000000000E+00 -0.00000000000E+00 -0.74505805969E-08  0.93827000000E+00  0.93827000000E+00 0.  1.
     999902    2    1    2    0    0  0.54228104932E-02  0.14006032623E-02 -0.22771224758E-01  0.10204801122E+01  0.10202106459E+01 0.  0.
     999903    2    3    3    0    0  0.97773299632E-01  0.49148123953E-01 -0.13128768610E+00  0.17206437623E+00  0.19862951368E-01 0.  0.
         14    1    1    2    0    0 -0.54228104932E-02 -0.14006032623E-02  0.22771224758E-01  0.23449887849E-01  0.00000000000E+00 0.  1.
     999901    1    3    3    0    0 -0.92350489139E-01 -0.47747520690E-01  0.10851646134E+00  0.84841573592E+00  0.83500000000E+00 0. -1.
        -11    1    4    4    0    0  0.44187375451E-01  0.27869072744E-01 -0.49305124623E-01  0.71836382147E-01  0.51100000000E-03 0.  1.
         11    1    4    4    0    0  0.53585924182E-01  0.21279051208E-01 -0.81982561476E-01  0.10022799408E+00  0.51100000000E-03 0. -1.
</event>
<event>
 8    1  0.5616615E+005  0.1043930E+01  0.7957747E-01            NaN
         13   -1    0    0    0    0  0.00000000000E+00  0.00000000000E+00  0.74505805969E-08  0.10566000000E+00  0.10566000000E+00 0.  1.
     999900   -1    0    0    0    0 -0.00000000000E+00 -0.00000000000E+00 -0.74505805969E-08  0.93827000000E+00  0.93827000000E+00 0.  1.
     999902    2    1    2    0    0  0.71024366668E-02  0.22961123074E-01  0.24931307371E-03  0.10198941947E+01  0.10196109299E+01 0.  0.
     999903    2    3    3    0    0 -0.78577833875E-01 -0.11668114919E+00 -0.82712062780E-01  0.16493883748E+00  0.23970152814E-01 0.  0.
         14    1    1    2    0    0 -0.71024366668E-02 -0.22961123074E-01 -0.24931307371E-03  0.24035805300E-01  0.00000000000E+00 0. -1.
     999901    1    3    3    0    0  0.85680270542E-01  0.13964227226E+00  0.82961375854E-01  0.85495535722E+00  0.83500000000E+00 0. -1.
        -11    1    4    4    0    0 -0.57741132060E-02 -0.13364035031E-01 -0.17322403598E-01  0.22633263199E-01  0.51100000000E-03 0.  1.
         11    1    4    4    0    0 -0.72803720669E-01 -0.10331711416E+00 -0.65389659182E-01  0.14230557428E+00  0.51100000000E-03 0. -1.
</event>
<event>
 8    1  0.5616615E+005  0.1043930E+01  0.7957747E-01            NaN
         13   -1    0    0    0    0  0.00000000000E+00  0.00000000000E+00  0.74505805969E-08  0.10566000000E+00  0.10566000000E+00 0. -1.
     999900   -1    0    0    0    0 -0.00000000000E+00 -0.00000000000E+00 -0.74505805969E-08  0.93827000000E+00  0.93827000000E+00 0. -1.
     999902    2    1    2    0    0 -0.20028879454E-01  0.13358479770E-01  0.58336741558E-02  0.10191583075E+01  0.10188572123E+01 0.  0.
     999903    2    3    3    0    0 -0.10941244240E+00 -0.10175916436E+00 -0.74856132349E-01  0.16770229680E+00  0.13950258731E-01 0.  0.
         14    1    1    2    0    0  0.20028879454E-01 -0.13358479770E-01 -0.58336741558E-02  0.24771692476E-01  0.00000000000E+00 0.  1.
     999901    1    3    3    0    0  0.89383562951E-01  0.11511764413E+00  0.80689806504E-01  0.85145601072E+00  0.83500000000E+00 0.  1.
        -11    1    4    4    0    0 -0.80150816402E-01 -0.73127938617E-01 -0.47367870561E-01  0.11838844985E+00  0.51100000000E-03 0.  1.
         11    1    4    4    0    0 -0.29261626003E-01 -0.28631225746E-01 -0.27488261787E-01  0.49313846951E-01  0.51100000000E-03 0. -1.
</event>
<event>
 8    1  0.5616615E+005  0.1043930E+01  0.7957747E-01            NaN
         13   -1    0    0    0    0  0.00000000000E+00  0.00000000000E+00  0.74505805969E-08  0.10566000000E+00  0.10566000000E+00 0.  1.
     999900   -1    0    0    0    0 -0.00000000000E+00 -0.00000000000E+00 -0.74505805969E-08  0.93827000000E+00  0.93827000000E+00 0.  1.
     999902    2    1    2    0    0 -0.15959466536E-01 -0.12648724289E-01  0.10600743934E-01  0.10209719824E+01  0.10207138278E+01 0.  0.
     999903    2    3    3    0    0 -0.39165476336E-01  0.16248478806E+00  0.83930680904E-02  0.16748493516E+00  0.67467789905E-02 0.  0.
         14    1    1    2    0    0  0.15959466536E-01  0.12648724289E-01 -0.10600743934E-01  0.22958017558E-01  0.00000000000E+00 0.  1.
     999901    1    3    3    0    0  0.23206009800E-01 -0.17513351235E+00  0.22076758433E-02  0.85348704728E+00  0.83500000000E+00 0. -1.
        -11    1    4    4    0    0 -0.25381767093E-01  0.11516688285E+00  0.39521348267E-02  0.11799798938E+00  0.51100000000E-03 0.  1.
         11    1    4    4    0    0 -0.13783709243E-01  0.47317905212E-01  0.44409332637E-02  0.49486945788E-01  0.51100000000E-03 0. -1.
</event>
<event>
 8    1  0.5616615E+005  0.1043930E+01  0.7957747E-01            NaN
         13   -1    0    0    0    0  0.00000000000E+00  0.00000000000E+00  0.74505805969E-08  0.10566000000E+00  0.10566000000E+00 0. -1.
     999900   -1    0    0    0    0 -0.00000000000E+00 -0.00000000000E+00 -0.74505805969E-08  0.93827000000E+00  0.93827000000E+00 0.  1.
     999902    2    1    2    0    0 -0.15903595411E-01 -0.11814631988E-01 -0.13006632981E-01  0.10202301608E+01  0.10199548513E+01 0.  0.
     999903    2    3    3    0    0  0.61934479227E-01 -0.15539285403E+00  0.16148112625E-01  0.16890855830E+00  0.16926923092E-01 0.  0.
         14    1    1    2    0    0  0.15903595411E-01  0.11814631988E-01  0.13006632981E-01  0.23699839187E-01  0.00000000000E+00 0. -1.
     999901    1    3    3    0    0 -0.77838074638E-01  0.14357822204E+00 -0.29154745606E-01  0.85132160251E+00  0.83500000000E+00 0.  1.
        -11    1    4    4    0    0  0.15287329978E-01 -0.24390309624E-01 -0.91889276685E-03  0.28804429283E-01  0.51100000000E-03 0. -1.
         11    1    4    4    0    0  0.46647149250E-01 -0.13100254441E+00  0.17067005392E-01  0.14010412902E+00  0.51100000000E-03 0.  1.
</event>
<event>
 8    1  0.5616615E+005  0.1043930E+01  0.7957747E-01            NaN
         13   -1    0    0    0    0  0.00000000000E+00  0.00000000000E+00  0.74505805969E-08  0.10566000000E+00  0.10566000000E+00 0. -1.
     999900   -1    0    0    0    0 -0.00000000000E+00 -0.00000000000E+00 -0.74505805969E-08  0.93827000000E+00  0.93827000000E+00 0.  1.
     999902    2    1    2    0    0  0.18660597576E-01 -0.13165600061E-01 -0.65948595907E-02  0.10201593648E+01  0.10198823885E+01 0.  0.
     999903    2    3    3    0    0  0.10593878094E+00  0.12937303419E+00 -0.94917003485E-02  0.16859131978E+00  0.19301125475E-01 0.  0.
         14    1    1    2    0    0 -0.18660597576E-01  0.13165600061E-01  0.65948595907E-02  0.23770635243E-01  0.00000000000E+00 0.  1.
     999901    1    3    3    0    0 -0.87278183368E-01 -0.14253863425E+00  0.28968407578E-02  0.85156804498E+00  0.83500000000E+00 0. -1.
        -11    1    4    4    0    0  0.35864609530E-01  0.30504678754E-01 -0.45745762543E-02  0.47307436113E-01  0.51100000000E-03 0.  1.
         11    1    4    4    0    0  0.70074171414E-01  0.98868355436E-01 -0.49171240942E-02  0.12128388366E+00  0.51100000000E-03 0. -1.
</event>
<event>
 8    1  0.5616615E+005  0.1043930E+01  0.7957747E-01            NaN
         13   -1    0    0    0    0  0.00000000000E+00  0.00000000000E+00  0.74505805969E-08  0.10566000000E+00  0.10566000000E+00 0. -1.
     999900   -1    0    0    0    0 -0.00000000000E+00 -0.00000000000E+00 -0.74505805969E-08  0.93827000000E+00  0.93827000000E+00 0.  1.
     999902    2    1    2    0    0 -0.97952102770E-02 -0.18530296874E-01 -0.22854737727E-01  0.10129194037E+01  0.10124445967E+01 0.  0.
     999903    2    3    3    0    0  0.88527566368E-01  0.21850607265E-01 -0.13457434836E+00  0.16379970823E+00  0.20137282185E-01 0.  0.
         14    1    1    2    0    0  0.97952102770E-02  0.18530296874E-01  0.22854737727E-01  0.31010596305E-01  0.00000000000E+00 0. -1.
     999901    1    3    3    0    0 -0.98322776645E-01 -0.40380904139E-01  0.11171961064E+00  0.84911969547E+00  0.83500000000E+00 0. -1.
        -11    1    4    4    0    0  0.21199904509E-01  0.67793576020E-02 -0.19347773816E-01  0.29495645667E-01  0.51100000000E-03 0. -1.
         11    1    4    4    0    0  0.67327661858E-01  0.15071249663E-01 -0.11522657455E+00  0.13430406256E+00  0.51100000000E-03 0.  1.
</event>
<event>
 8    1  0.5616615E+005  0.1043930E+01  0.7957747E-01            NaN
         13   -1    0    0    0    0  0.00000000000E+00  0.00000000000E+00  0.74505805969E-08  0.10566000000E+00  0.10566000000E+00 0. -1.
     999900   -1    0    0    0    0 -0.00000000000E+00 -0.00000000000E+00 -0.74505805969E-08  0.93827000000E+00  0.93827000000E+00 0. -1.
     999902    2    1    2    0    0  0.12781883187E-01  0.17785076854E-01 -0.72862964008E-02  0.10208480674E+01  0.10205870865E+01 0.  0.
     999903    2    3    3    0    0  0.14439333062E+00  0.80573508993E-01 -0.45395273662E-01  0.17235454684E+00  0.17430853932E-01 0.  0.
         14    1    1    2    0    0 -0.12781883187E-01 -0.17785076854E-01  0.72862964008E-02  0.23081932583E-01  0.00000000000E+00 0. -1.
     999901    1    3    3    0    0 -0.13161144743E+00 -0.62788432139E-01  0.38108977261E-01  0.84849352057E+00  0.83500000000E+00 0.  1.
        -11    1    4    4    0    0  0.66430953304E-02  0.73630047371E-03 -0.41504449142E-02  0.78841719883E-02  0.51100000000E-03 0. -1.
         11    1    4    4    0    0  0.13775023529E+00  0.79837208519E-01 -0.41244828748E-01  0.16447037486E+00  0.51100000000E-03 0.  1.
</event>
<event>
 8    1  0.5616615E+005  0.1043930E+01  0.7957747E-01            NaN
         13   -1    0    0    0    0  0.00000000000E+00  0.00000000000E+00  0.74505805969E-08  0.10566000000E+00  0.10566000000E+00 0. -1.
     999900   -1    0    0    0    0 -0.00000000000E+00 -0.00000000000E+00 -0.74505805969E-08  0.93827000000E+00  0.93827000000E+00 0. -1.
     999902    2    1    2    0    0 -0.18621455401E-01  0.12676218490E-01  0.65902510136E-02  0.10204592411E+01  0.10201892894E+01 0.  0.
     999903    2    3    3    0    0  0.54392184409E-01 -0.14708251937E+00  0.50844476013E-01  0.16603704897E+00  0.19782913357E-01 0.  0.
         14    1    1    2    0    0  0.18621455401E-01 -0.12676218490E-01 -0.65902510136E-02  0.23470758933E-01  0.00000000000E+00 0.  1.
     999901    1    3    3    0    0 -0.73013639811E-01  0.15975873786E+00 -0.44254224999E-01  0.85442219210E+00  0.83500000000E+00 0.  1.
        -11    1    4    4    0    0  0.15634605936E-01 -0.23649441555E-01  0.50858495227E-02  0.28807359736E-01  0.51100000000E-03 0. -1.
         11    1    4    4    0    0  0.38757578473E-01 -0.12343307781E+00  0.45758626490E-01  0.13722968923E+00  0.51100000000E-03 0.  1.
</event>
<event>
 8    1  0.5616615E+005  0.1043930E+01  0.7957747E-01            NaN
         13   -1    0    0    0    0  0.00000000000E+00  0.00000000000E+00  0.74505805969E-08  0.10566000000E+00  0.10566000000E+00 0. -1.
     999900   -1    0    0    0    0 -0.00000000000E+00 -0.00000000000E+00 -0.74505805969E-08  0.93827000000E+00  0.93827000000E+00 0. -1.
     999902    2    1    2    0    0  0.14135842948E-01  0.25322569093E-02  0.18672338656E-01  0.10203738838E+01  0.10201019420E+01 0.  0.
     999903    2    3    3    0    0 -0.14558344990E+00  0.19067754346E-01  0.78981873705E-01  0.16793859872E+00  0.20177126277E-01 0.  0.
         14    1    1    2    0    0 -0.14135842948E-01 -0.25322569093E-02 -0.18672338656E-01  0.23556116229E-01  0.00000000000E+00 0.  1.
     999901    1    3    3    0    0  0.15971929285E+00 -0.16535497437E-01 -0.60309535048E-01  0.85243528505E+00  0.83500000000E+00 0. -1.
        -11    1    4    4    0    0 -0.71674444706E-01 -0.20569729780E-03  0.34491123515E-01  0.79543491610E-01  0.51100000000E-03 0. -1.
         11    1    4    4    0    0 -0.73909005196E-01  0.19273451644E-01  0.44490750190E-01  0.88395107109E-01  0.51100000000E-03 0.  1.
</event>
<event>
 8    1  0.5616615E+005  0.1043930E+01  0.7957747E-01            NaN
         13   -1    0    0    0    0  0.00000000000E+00  0.00000000000E+00  0.74505805969E-08  0.10566000000E+00  0.10566000000E+00 0.  1.
     999900   -1    0    0    0    0 -0.00000000000E+00 -0.00000000000E+00 -0.74505805969E-08  0.93827000000E+00  0.93827000000E+00 0.  1.
     999902    2    1    2    0    0 -0.18196779313E-01  0.57689434932E-02 -0.83600435453E-02  0.10230902828E+01  0.10228780147E+01 0.  0.
     999903    2    3    3    0    0 -0.13704833533E+00 -0.99097785359E-01 -0.30159115064E-01  0.17290034945E+00  0.19553550538E-01 0.  0.
         14    1    1    2    0    0  0.18196779313E-01 -0.57689434932E-02  0.83600435453E-02  0.20839717236E-01  0.00000000000E+00 0.  1.
     999901    1    3    3    0    0  0.11885155602E+00  0.10486672885E+00  0.21799071519E-01  0.85018993331E+00  0.83500000000E+00 0. -1.
        -11    1    4    4    0    0 -0.96702226416E-01 -0.79709666444E-01 -0.25545164031E-01  0.12789749038E+00  0.51100000000E-03 0. -1.
         11    1    4    4    0    0 -0.40346108915E-01 -0.19388118915E-01 -0.46139510328E-02  0.45002859073E-01  0.51100000000E-03 0.  1.
</event>
<event>
 8    1  0.5616615E+005  0.1043930E+01  0.7957747E-01            NaN
         13   -1    0    0    0    0  0.00000000000E+00  0.00000000000E+00  0.74505805969E-08  0.10566000000E+00  0.10566000000E+00 0.  1.
     999900   -1    0    0    0    0 -0.00000000000E+00 -0.00000000000E+00 -0.74505805969E-08  0.93827000000E+00  0.93827000000E+00 0. -1.
     999902    2    1    2    0    0  0.33367095778E-02 -0.18913935143E-01 -0.16139466732E-01  0.10188430919E+01  0.10185341884E+01 0.  0.
     999903    2    3    3    0    0  0.16503799713E-01 -0.16815321436E+00 -0.97494317558E-02  0.17048493208E+00  0.20547061623E-01 0.  0.
         14    1    1    2    0    0 -0.33367095778E-02  0.18913935143E-01  0.16139466732E-01  0.25086908136E-01  0.00000000000E+00 0.  1.
     999901    1    3    3    0    0 -0.13167090135E-01  0.14923927922E+00 -0.63900349765E-02  0.84835815978E+00  0.83500000000E+00 0.  1.
        -11    1    4    4    0    0  0.51623234927E-02 -0.90868090345E-01 -0.14781288718E-01  0.92208497677E-01  0.51100000000E-03 0. -1.
         11    1    4    4    0    0  0.11341476221E-01 -0.77285124018E-01  0.50318569624E-02  0.78276434403E-01  0.51100000000E-03 0.  1.
</event>
<event>
 8    1  0.5616615E+005  0.1043930E+01  0.7957747E-01            NaN
         13   -1    0    0    0    0  0.00000000000E+00  0.00000000000E+00  0.74505805969E-08  0.10566000000E+00  0.10566000000E+00 0.  1.
     999900   -1    0    0    0    0 -0.00000000000E+00 -0.00000000000E+00 -0.74505805969E-08  0.93827000000E+00  0.93827000000E+00 0.  1.
     999902    2    1    2    0    0  0.37142709680E-02 -0.16861449063E-01 -0.15544333830E-01  0.10206978975E+01  0.10204334703E+01 0.  0.
     999903    2    3    3    0    0  0.53819587049E-01  0.15240280587E+00 -0.36969928666E-01  0.16697371086E+00  0.19755538648E-01 0.  0.
         14    1    1    2    0    0 -0.37142709680E-02  0.16861449063E-01  0.15544333830E-01  0.23232102521E-01  0.00000000000E+00 0.  1.
     999901    1    3    3    0    0 -0.50105316081E-01 -0.16926425493E+00  0.21425594836E-01  0.85372418661E+00  0.83500000000E+00 0. -1.
        -11    1    4    4    0    0  0.18680874974E-01  0.30147770645E-01 -0.50836660018E-02  0.35832498457E-01  0.51100000000E-03 0.  1.
         11    1    4    4    0    0  0.35138712075E-01  0.12225503522E+00 -0.31886262664E-01  0.13114121241E+00  0.51100000000E-03 0. -1.
</event>
<event>
 7    1  0.5616615E+005  0.1043930E+01  0.7957747E-01            NaN
         13   -1    0    0    0    0  0.00000000000E+00  0.00000000000E+00  0.74505805969E-08  0.10566000000E+00  0.10566000000E+00 0.  1.
     999900   -1    0    0    0    0 -0.00000000000E+00 -0.00000000000E+00 -0.74505805969E-08  0.93827000000E+00  0.93827000000E+00 0.  1.
     999903    2    1    2    0    0  0.49045223612E-01 -0.13833170640E+00  0.32961475800E-01  0.15171989295E+00  0.19783125977E-01 0.  0.
         14    1    1    2    0    0 -0.78838912752E-02  0.39935746213E-02  0.41287267649E-01  0.42222539594E-01  0.00000000000E+00 0.  1.
     999901    1    1    2    0    0 -0.41161332337E-01  0.13433813178E+00 -0.74248743449E-01  0.84998756746E+00  0.83500000000E+00 0.  1.
        -11    1    3    3    0    0  0.82960398342E-02 -0.50226976358E-01  0.85333518951E-02  0.51620273601E-01  0.51100000000E-03 0.  1.
         11    1    3    3    0    0  0.40749183778E-01 -0.88104730045E-01  0.24428123905E-01  0.10009961935E+00  0.51100000000E-03 0. -1.
</event>
<event>
 8    1  0.5616615E+005  0.1043930E+01  0.7957747E-01            NaN
         13   -1    0    0    0    0  0.00000000000E+00  0.00000000000E+00  0.74505805969E-08  0.10566000000E+00  0.10566000000E+00 0. -1.
     999900   -1    0    0    0    0 -0.00000000000E+00 -0.00000000000E+00 -0.74505805969E-08  0.93827000000E+00  0.93827000000E+00 0. -1.
     999902    2    1    2    0    0 -0.90535289161E-02 -0.21029014865E-01 -0.15567703467E-02  0.10209820287E+01  0.10207241026E+01 0.  0.
     999903    2    3    3    0    0 -0.55676747556E-01  0.14069876199E+00  0.66568250698E-01  0.16646718577E+00  0.19594644496E-01 0.  0.
         14    1    1    2    0    0  0.90535289161E-02  0.21029014865E-01  0.15567703467E-02  0.22947971282E-01  0.00000000000E+00 0.  1.
     999901    1    3    3    0    0  0.46623218640E-01 -0.16172777686E+00 -0.68125021045E-01  0.85451484295E+00  0.83500000000E+00 0.  1.
        -11    1    4    4    0    0 -0.25951507554E-01  0.69809970780E-01  0.22229263992E-01  0.77725890559E-01  0.51100000000E-03 0.  1.
         11    1    4    4    0    0 -0.29725240002E-01  0.70888791213E-01  0.44338986706E-01  0.88741295212E-01  0.51100000000E-03 0. -1.
</event>
<event>
 8    1  0.5616615E+005  0.1043930E+01  0.7957747E-01            NaN
         13   -1    0    0    0    0  0.00000000000E+00  0.00000000000E+00  0.74505805969E-08  0.10566000000E+00  0.10566000000E+00 0.  1.
     999900   -1    0    0    0    0 -0.00000000000E+00 -0.00000000000E+00 -0.74505805969E-08  0.93827000000E+00  0.93827000000E+00 0. -1.
     999902    2    1    2    0    0 -0.99310912240E-02  0.14379729989E-01  0.14217181051E-01  0.10214015415E+01  0.10211530627E+01 0.  0.
     999903    2    3    3    0    0  0.21376988947E-02  0.12553026561E+00 -0.11211774509E+00  0.16952971376E+00  0.20187068711E-01 0.  0.
         14    1    1    2    0    0  0.99310912240E-02 -0.14379729989E-01 -0.14217181051E-01  0.22528458547E-01  0.00000000000E+00 0. -1.
     999901    1    3    3    0    0 -0.12068790119E-01 -0.11115053562E+00  0.12633492614E+00  0.85187182770E+00  0.83500000000E+00 0. -1.
        -11    1    4    4    0    0  0.11036944599E-01  0.65004218662E-01 -0.60424472475E-01  0.89435678478E-01  0.51100000000E-03 0.  1.
         11    1    4    4    0    0 -0.88992457045E-02  0.60526046943E-01 -0.51693272611E-01  0.80094035277E-01  0.51100000000E-03 0. -1.
</event>
<event>
 8    1  0.5616615E+005  0.1043930E+01  0.7957747E-01            NaN
         13   -1    0    0    0    0  0.00000000000E+00  0.00000000000E+00  0.74505805969E-08  0.10566000000E+00  0.10566000000E+00 0. -1.
     999900   -1    0    0    0    0 -0.00000000000E+00 -0.00000000000E+00 -0.74505805969E-08  0.93827000000E+00  0.93827000000E+00 0. -1.
     999902    2    1    2    0    0  0.80965252618E-02 -0.21583437799E-01 -0.11151522389E-01  0.10183222871E+01  0.10180002581E+01 0.  0.
     999903    2    3    3    0    0 -0.13343706633E+00 -0.88557787768E-01 -0.46968140404E-01  0.16801343072E+00  0.19353920666E-01 0.  0.
         14    1    1    2    0    0 -0.80965252618E-02  0.21583437799E-01  0.11151522389E-01  0.25607712903E-01  0.00000000000E+00 0.  1.
     999901    1    3    3    0    0  0.14153359159E+00  0.66974349969E-01  0.35816618015E-01  0.85030885637E+00  0.83500000000E+00 0. -1.
        -11    1    4    4    0    0 -0.47730380622E-01 -0.23626079598E-01 -0.22004980812E-01  0.57626913618E-01  0.51100000000E-03 0.  1.
         11    1    4    4    0    0 -0.85706685707E-01 -0.64931708170E-01 -0.24963159591E-01  0.11038651711E+00  0.51100000000E-03 0. -1.
</event>
<event>
 8    1  0.5616615E+005  0.1043930E+01  0.7957747E-01            NaN
         13   -1    0    0    0    0  0.00000000000E+00  0.00000000000E+00  0.74505805969E-08  0.10566000000E+00  0.10566000000E+00 0. -1.
     999900   -1    0    0    0    0 -0.00000000000E+00 -0.00000000000E+00 -0.74505805969E-08  0.93827000000E+00  0.93827000000E+00 0.  1.
     999902    2    1    2    0    0  0.21711844593E-01 -0.86676034338E-02  0.31609904855E-02  0.10203392517E+01  0.10200665004E+01 0.  0.
     999903    2    3    3    0    0 -0.98620012454E-01  0.85274018828E-01  0.10076587892E+00  0.16590581458E+00  0.19323866373E-01 0.  0.
         14    1    1    2    0    0 -0.21711844593E-01  0.86676034338E-02 -0.31609904855E-02  0.23590748308E-01  0.00000000000E+00 0.  1.
     999901    1    3    3    0    0  0.12033185705E+00 -0.93941622262E-01 -0.97604888438E-01  0.85443343712E+00  0.83500000000E+00 0.  1.
        -11    1    4    4    0    0 -0.62699490492E-01  0.42872363110E-01  0.63381117872E-01  0.98927715279E-01  0.51100000000E-03 0. -1.
         11    1    4    4    0    0 -0.35920521962E-01  0.42401655718E-01  0.37384761052E-01  0.66978099298E-01  0.51100000000E-03 0.  1.
</event>
<event>
 8    1  0.5616615E+005  0.1043930E+01  0.7957747E-01            NaN
         13   -1    0    0    0    0  0.00000000000E+00  0.00000000000E+00  0.74505805969E-08  0.10566000000E+00  0.10566000000E+00 0. -1.
     999900   -1    0    0    0    0 -0.00000000000E+00 -0.00000000000E+00 -0.74505805969E-08  0.93827000000E+00  0.93827000000E+00 0.  1.
     999902    2    1    2    0    0 -0.16952078489E-01 -0.14895524742E-01  0.64138499108E-02  0.10204696698E+01  0.10201999607E+01 0.  0.
     999903    2    3    3    0    0  0.16278008571E+00  0.77372390667E-02 -0.21696392643E-01  0.16558308166E+00  0.19743411676E-01 0.  0.
         14    1    1    2    0    0  0.16952078489E-01  0.14895524742E-01 -0.64138499108E-02  0.23460330200E-01  0.00000000000E+00 0.  1.
     999901    1    3    3    0    0 -0.17973216420E+00 -0.22632763809E-01  0.28110242554E-01  0.85488658814E+00  0.83500000000E+00 0.  1.
        -11    1    4    4    0    0  0.83870210222E-01 -0.54705015784E-02 -0.82806159052E-02  0.84456901855E-01  0.51100000000E-03 0. -1.
         11    1    4    4    0    0  0.78909875492E-01  0.13207740645E-01 -0.13415776738E-01  0.81126179804E-01  0.51100000000E-03 0.  1.
</event>
<event>
 8    1  0.5616615E+005  0.1043930E+01  0.7957747E-01            NaN
         13   -1    0    0    0    0  0.00000000000E+00  0.00000000000E+00  0.74505805969E-08  0.10566000000E+00  0.10566000000E+00 0.  1.
     999900   -1    0    0    0    0 -0.00000000000E+00 -0.00000000000E+00 -0.74505805969E-08  0.93827000000E+00  0.93827000000E+00 0. -1.
     999902    2    1    2    0    0 -0.34080206809E-03 -0.21962654321E-01 -0.89823014327E-02  0.10201990904E+01  0.10199230500E+01 0.  0.
     999903    2    3    3    0    0 -0.96275890075E-01 -0.11924519686E+00 -0.74313842871E-01  0.17157629759E+00  0.20674009502E-01 0.  0.
         14    1    1    2    0    0  0.34080206809E-03  0.21962654321E-01  0.89823014327E-02  0.23730909588E-01  0.00000000000E+00 0.  1.
     999901    1    3    3    0    0  0.95935088007E-01  0.97282542535E-01  0.65331541438E-01  0.84862279282E+00  0.83500000000E+00 0. -1.
        -11    1    4    4    0    0 -0.22714598884E-01 -0.26949253470E-01 -0.78097950595E-02  0.36103591025E-01  0.51100000000E-03 0.  1.
         11    1    4    4    0    0 -0.73561291191E-01 -0.92295943386E-01 -0.66504047812E-01  0.13547270656E+00  0.51100000000E-03 0. -1.
</event>
<event>
 8    1  0.5616615E+005  0.1043930E+01  0.7957747E-01            NaN
         13   -1    0    0    0    0  0.00000000000E+00  0.00000000000E+00  0.74505805969E-08  0.10566000000E+00  0.10566000000E+00 0.  1.
     999900   -1    0    0    0    0 -0.00000000000E+00 -0.00000000000E+00 -0.74505805969E-08  0.93827000000E+00  0.93827000000E+00 0. -1.
     999902    2    1    2    0    0 -0.93054089628E-02  0.20557436488E-01  0.12161558349E-02  0.10213318172E+01  0.10210817807E+01 0.  0.
     999903    2    3    3    0    0 -0.59025911539E-01 -0.70376798158E-01  0.13994181813E+00  0.16856515932E+00  0.19838057470E-01 0.  0.
         14    1    1    2    0    0  0.93054089628E-02 -0.20557436488E-01 -0.12161558349E-02  0.22598182802E-01  0.00000000000E+00 0.  1.
     999901    1    3    3    0    0  0.49720502577E-01  0.90934234646E-01 -0.13872566229E+00  0.85276665788E+00  0.83500000000E+00 0. -1.
        -11    1    4    4    0    0 -0.23249605458E-01 -0.27638987896E-01  0.73068523437E-01  0.81509067251E-01  0.51100000000E-03 0. -1.
         11    1    4    4    0    0 -0.35776306081E-01 -0.42737810262E-01  0.66873294691E-01  0.87056092071E-01  0.51100000000E-03 0.  1.
</event>
<event>
 8    1  0.5616615E+005  0.1043930E+01  0.7957747E-01            NaN
         13   -1    0    0    0    0  0.00000000000E+00  0.00000000000E+00  0.74505805969E-08  0.10566000000E+00  0.10566000000E+00 0. -1.
     999900   -1    0    0    0    0 -0.00000000000E+00 -0.00000000000E+00 -0.74505805969E-08  0.93827000000E+00  0.93827000000E+00 0.  1.
     999902    2    1    2    0    0 -0.18660214829E-01 -0.11248101327E-01  0.10528627623E-01  0.10197313347E+01  0.10194441719E+01 0.  0.
     999903    2    3    3    0    0  0.51848537939E-01  0.15257381957E+00  0.32634798639E-01  0.16561027260E+00  0.19866831775E-01 0.  0.
         14    1    1    2    0    0  0.18660214829E-01  0.11248101327E-01 -0.10528627623E-01  0.24198665264E-01  0.00000000000E+00 0.  1.
     999901    1    3    3    0    0 -0.70508752768E-01 -0.16382192090E+00 -0.22106171016E-01  0.85412106213E+00  0.83500000000E+00 0.  1.
        -11    1    4    4    0    0  0.92867084799E-02  0.26021793817E-01 -0.18956261720E-02  0.27698939103E-01  0.51100000000E-03 0. -1.
         11    1    4    4    0    0  0.42561829459E-01  0.12655202575E+00  0.34530424811E-01  0.13791133350E+00  0.51100000000E-03 0.  1.
</event>
<event>
 8    1  0.5616615E+005  0.1043930E+01  0.7957747E-01            NaN
         13   -1    0    0    0    0  0.00000000000E+00  0.00000000000E+00  0.74505805969E-08  0.10566000000E+00  0.10566000000E+00 0. -1.
     999900   -1    0    0    0    0 -0.00000000000E+00 -0.00000000000E+00 -0.74505805969E-08  0.93827000000E+00  0.93827000000E+00 0.  1.
     999902    2    1    2    0    0  0.57564575572E-02 -0.36821316474E-02  0.17808806155E-01  0.10248551875E+01  0.10246776599E+01 0.  0.
     999903    2    3    3    0    0 -0.95554485737E-01  0.49306197717E-01  0.13512195742E+00  0.17393859592E+00  0.20854996930E-01 0.  0.
         14    1    1    2    0    0 -0.57564575572E-02  0.36821316474E-02 -0.17808806155E-01  0.19074812548E-01  0.00000000000E+00 0.  1.
     999901    1    3    3    0    0  0.10131094329E+00 -0.52988329365E-01 -0.11731315126E+00  0.85091659153E+00  0.83500000000E+00 0.  1.
        -11    1    4    4    0    0 -0.18528105239E-01  0.72314936759E-02  0.38943291902E-01  0.43731296455E-01  0.51100000000E-03 0.  1.
         11    1    4    4    0    0 -0.77026380499E-01  0.42074704041E-01  0.96178665518E-01  0.13020729947E+00  0.51100000000E-03 0. -1.
</event>
<event>
 8    1  0.5616615E+005  0.1043930E+01  0.7957747E-01            NaN
         13   -1    0    0    0    0  0.00000000000E+00  0.00000000000E+00  0.74505805969E-08  0.10566000000E+00  0.10566000000E+00 0. -1.
     999900   -1    0    0    0    0 -0.00000000000E+00 -0.00000000000E+00 -0.74505805969E-08  0.93827000000E+00  0.93827000000E+00 0. -1.
     999902    2    1    2    0    0  0.15232814792E-01  0.13173065225E-03 -0.17272346580E-01  0.10208998034E+01  0.10206400044E+01 0.  0.
     999903    2    3    3    0    0 -0.13149439977E-01  0.40500317012E-01 -0.16509118589E+00  0.17148201196E+00  0.18379263202E-01 0.  0.
         14    1    1    2    0    0 -0.15232814792E-01 -0.13173065225E-03  0.17272346580E-01  0.23030196609E-01  0.00000000000E+00 0. -1.
     999901    1    3    3    0    0  0.28382254769E-01 -0.40368586360E-01  0.14781883931E+00  0.84941779143E+00  0.83500000000E+00 0.  1.
        -11    1    4    4    0    0 -0.25469466491E-02  0.26788497692E-01 -0.73706093593E-01  0.78466297858E-01  0.51100000000E-03 0.  1.
         11    1    4    4    0    0 -0.10602493328E-01  0.13711819320E-01 -0.91385092298E-01  0.93015714098E-01  0.51100000000E-03 0. -1.
</event>
<event>
 8    1  0.5616615E+005  0.1043930E+01  0.7957747E-01            NaN
         13   -1    0    0    0    0  0.00000000000E+00  0.00000000000E+00  0.74505805969E-08  0.10566000000E+00  0.10566000000E+00 0. -1.
     999900   -1    0    0    0    0 -0.00000000000E+00 -0.00000000000E+00 -0.74505805969E-08  0.93827000000E+00  0.93827000000E+00 0.  1.
     999902    2    1    2    0    0  0.12185204008E-01  0.40660746399E-02 -0.20941472158E-01  0.10193625944E+01  0.10190665050E+01 0.  0.
     999903    2    3    3    0    0  0.50838853608E-02 -0.16156338194E+00  0.33511209545E-01  0.16632470539E+00  0.20306013515E-01 0.  0.
         14    1    1    2    0    0 -0.12185204008E-01 -0.40660746399E-02  0.20941472158E-01  0.24567405558E-01  0.00000000000E+00 0. -1.
     999901    1    3    3    0    0  0.71013186472E-02  0.16562945658E+00 -0.54452681702E-01  0.85303788905E+00  0.83500000000E+00 0.  1.
        -11    1    4    4    0    0 -0.27264454441E-02 -0.37674963583E-01  0.12147874587E-03  0.37777139434E-01  0.51100000000E-03 0.  1.
         11    1    4    4    0    0  0.78103308049E-02 -0.12388841835E+00  0.33389730799E-01  0.12854756596E+00  0.51100000000E-03 0. -1.
</event>
<event>
 7    1  0.5616615E+005  0.1043930E+01  0.7957747E-01            NaN
         13   -1    0    0    0    0  0.00000000000E+00  0.00000000000E+00  0.74505805969E-08  0.10566000000E+00  0.10566000000E+00 0. -1.
     999900   -1    0    0    0    0 -0.00000000000E+00 -0.00000000000E+00 -0.74505805969E-08  0.93827000000E+00  0.93827000000E+00 0. -1.
     999903    2    1    2    0    0 -0.12204704749E+00 -0.25450432992E-01 -0.74825288233E-01  0.14664253920E+00  0.19026408048E-01 0.  0.
         14    1    1    2    0    0  0.78062906489E-02  0.44765219407E-01  0.27164508938E-01  0.52941227679E-01  0.00000000000E+00 0. -1.
     999901    1    1    2    0    0  0.11424075684E+00 -0.19314786415E-01  0.47660779294E-01  0.84434623312E+00  0.83500000000E+00 0.  1.
        -11    1    3    3    0    0 -0.83212937678E-01 -0.13224641936E-01 -0.40978459223E-01  0.93695140710E-01  0.51100000000E-03 0. -1.
         11    1    3    3    0    0 -0.38834109815E-01 -0.12225791057E-01 -0.33846829009E-01  0.52947398492E-01  0.51100000000E-03 0.  1.
</event>
<event>
 8    1  0.5616615E+005  0.1043930E+01  0.7957747E-01            NaN
         13   -1    0    0    0    0  0.00000000000E+00  0.00000000000E+00  0.74505805969E-08  0.10566000000E+00  0.10566000000E+00 0. -1.
     999900   -1    0    0    0    0 -0.00000000000E+00 -0.00000000000E+00 -0.74505805969E-08  0.93827000000E+00  0.93827000000E+00 0.  1.
     999902    2    1    2    0    0  0.44811336458E-02 -0.58619926979E-02  0.22437810436E-01  0.10203101174E+01  0.10200366840E+01 0.  0.
     999903    2    3    3    0    0 -0.33453821775E-01  0.46227631047E-01  0.16048368210E+00  0.17152625066E+00  0.20250688417E-01 0.  0.
         14    1    1    2    0    0 -0.44811336458E-02  0.58619926979E-02 -0.22437810436E-01  0.23619882605E-01  0.00000000000E+00 0.  1.
     999901    1    3    3    0    0  0.37934955421E-01 -0.52089623745E-01 -0.13804587167E+00  0.84878386673E+00  0.83500000000E+00 0.  1.
        -11    1    4    4    0    0 -0.30804114436E-01  0.47193718579E-01  0.14122737668E+00  0.15205779685E+00  0.51100000000E-03 0. -1.
         11    1    4    4    0    0 -0.26497073385E-02 -0.96608753167E-03  0.19256305423E-01  0.19468453807E-01  0.51100000000E-03 0.  1.
</event>
<event>
 8    1  0.5616615E+005  0.1043930E+01  0.7957747E-01            NaN
         13   -1    0    0    0    0  0.00000000000E+00  0.00000000000E+00  0.74505805969E-08  0.10566000000E+00  0.10566000000E+00 0. -1.
     999900   -1    0    0    0    0 -0.00000000000E+00 -0.00000000000E+00 -0.74505805969E-08  0.93827000000E+00  0.93827000000E+00 0.  1.
     999902    2    1    2    0    0  0.26863625220E-02 -0.23158296766E-03 -0.21939824821E-01  0.10218251117E+01  0.10215859889E+01 0.  0.
     999903    2    3    3    0    0 -0.15987807519E-02 -0.16679952933E+00 -0.27797161671E-01  0.17034255073E+00  0.20475920264E-01 0.  0.
         14    1    1    2    0    0 -0.26863625220E-02  0.23158296766E-03  0.21939824821E-01  0.22104888315E-01  0.00000000000E+00 0. -1.
     999901    1    3    3    0    0  0.42851432740E-02  0.16656794636E+00  0.58573368502E-02  0.85148256095E+00  0.83500000000E+00 0.  1.
        -11    1    4    4    0    0 -0.37023024371E-02 -0.15269051024E+00 -0.19893436885E-01  0.15402632539E+00  0.51100000000E-03 0.  1.
         11    1    4    4    0    0  0.21035216852E-02 -0.14109019085E-01 -0.79037247861E-02  0.16316225345E-01  0.51100000000E-03 0. -1.
</event>
<event>
 8    1  0.5616615E+005  0.1043930E+01  0.7957747E-01            NaN
         13   -1    0    0    0    0  0.00000000000E+00  0.00000000000E+00  0.74505805969E-08  0.10566000000E+00  0.10566000000E+00 0. -1.
     999900   -1    0    0    0    0 -0.00000000000E+00 -0.00000000000E+00 -0.74505805969E-08  0.93827000000E+00  0.93827000000E+00 0.  1.
     999902    2    1    2    0    0  0.48794638591E-02 -0.10272268747E-01 -0.21717637773E-01  0.10194150155E+01  0.10191202036E+01 0.  0.
     999903    2    3    3    0    0  0.14585454251E+00 -0.37884708102E-04 -0.85036703844E-01  0.17017240029E+00  0.21303892024E-01 0.  0.
         14    1    1    2    0    0 -0.48794638591E-02  0.10272268747E-01  0.21717637773E-01  0.24514984463E-01  0.00000000000E+00 0.  1.
     999901    1    3    3    0    0 -0.14097507865E+00 -0.10234384039E-01  0.63319066071E-01  0.84924261524E+00  0.83500000000E+00 0.  1.
        -11    1    4    4    0    0  0.13096898824E+00 -0.55387372653E-02 -0.71565929903E-01  0.14935024920E+00  0.51100000000E-03 0.  1.
         11    1    4    4    0    0  0.14885554267E-01  0.55008525572E-02 -0.13470773941E-01  0.20822151096E-01  0.51100000000E-03 0. -1.
</event>
<event>
 8    1  0.5616615E+005  0.1043930E+01  0.7957747E-01            NaN
         13   -1    0    0    0    0  0.00000000000E+00  0.00000000000E+00  0.74505805969E-08  0.10566000000E+00  0.10566000000E+00 0. -1.
     999900   -1    0    0    0    0 -0.00000000000E+00 -0.00000000000E+00 -0.74505805969E-08  0.93827000000E+00  0.93827000000E+00 0. -1.
     999902    2    1    2    0    0  0.19224196791E-01 -0.55574660183E-02  0.15014549546E-01  0.10189121690E+01  0.10186049854E+01 0.  0.
     999903    2    3    3    0    0 -0.33581307394E-01 -0.16271387319E+00  0.83733083948E-02  0.16758634201E+00  0.20286966290E-01 0.  0.
         14    1    1    2    0    0 -0.19224196791E-01  0.55574660183E-02 -0.15014549546E-01  0.25017831019E-01  0.00000000000E+00 0. -1.
     999901    1    3    3    0    0  0.52805504185E-01  0.15715640717E+00  0.66412411516E-02  0.85132582697E+00  0.83500000000E+00 0.  1.
        -11    1    4    4    0    0 -0.24924736452E-01 -0.80552271898E-01 -0.18232590264E-02  0.84341546048E-01  0.51100000000E-03 0.  1.
         11    1    4    4    0    0 -0.86565709416E-02 -0.82161601287E-01  0.10196567421E-01  0.83244795962E-01  0.51100000000E-03 0. -1.
</event>
<event>
 8    1  0.5616615E+005  0.1043930E+01  0.7957747E-01            NaN
         13   -1    0    0    0    0  0.00000000000E+00  0.00000000000E+00  0.74505805969E-08  0.10566000000E+00  0.10566000000E+00 0.  1.
     999900   -1    0    0    0    0 -0.00000000000E+00 -0.00000000000E+00 -0.74505805969E-08  0.93827000000E+00  0.93827000000E+00 0.  1.
     999902    2    1    2    0    0 -0.40720629143E-02 -0.23353095096E-01  0.34742125490E-02  0.10199713085E+01  0.10196898799E+01 0.  0.
     999903    2    3    3    0    0  0.38698130907E-01 -0.16588778740E+00  0.12014833513E-01  0.17177123172E+00  0.18566003355E-01 0.  0.
         14    1    1    2    0    0  0.40720629143E-02  0.23353095096E-01 -0.34742125490E-02  0.23958691529E-01  0.00000000000E+00 0.  1.
     999901    1    3    3    0    0 -0.42770193821E-01  0.14253469230E+00 -0.85406209644E-02  0.84820007675E+00  0.83500000000E+00 0. -1.
        -11    1    4    4    0    0  0.18391123171E-01 -0.11259538730E+00  0.12193338156E-01  0.11473836878E+00  0.51100000000E-03 0.  1.
         11    1    4    4    0    0  0.20307007736E-01 -0.53292400092E-01 -0.17850464249E-03  0.57032862944E-01  0.51100000000E-03 0. -1.
</event>
<event>
 8    1  0.5616615E+005  0.1043930E+01  0.7957747E-01            NaN
         13   -1    0    0    0    0  0.00000000000E+00  0.00000000000E+00  0.74505805969E-08  0.10566000000E+00  0.10566000000E+00 0. -1.
     999900   -1    0    0    0    0 -0.00000000000E+00 -0.00000000000E+00 -0.74505805969E-08  0.93827000000E+00  0.93827000000E+00 0.  1.
     999902    2    1    2    0    0  0.15526035068E-02 -0.13313210939E-01 -0.18253354535E-01  0.10212840928E+01  0.10210329872E+01 0.  0.
     999903    2    3    3    0    0 -0.12205050897E+00 -0.62903333942E-01 -0.10100155555E+00  0.17169055789E+00  0.20571273276E-01 0.  0.
         14    1    1    2    0    0 -0.15526035068E-02  0.13313210939E-01  0.18253354535E-01  0.22645907245E-01  0.00000000000E+00 0. -1.
     999901    1    3    3    0    0  0.12360311248E+00  0.49590123003E-01  0.82748201010E-01  0.84959353487E+00  0.83500000000E+00 0. -1.
        -11    1    4    4    0    0 -0.71574988638E-01 -0.42065721955E-01 -0.49691548058E-01  0.96757506332E-01  0.51100000000E-03 0.  1.
         11    1    4    4    0    0 -0.50475520335E-01 -0.20837611987E-01 -0.51310007487E-01  0.74933051558E-01  0.51100000000E-03 0. -1.
</event>
<event>
 8    1  0.5616615E+005  0.1043930E+01  0.7957747E-01            NaN
         13   -1    0    0    0    0  0.00000000000E+00  0.00000000000E+00  0.74505805969E-08  0.10566000000E+00  0.10566000000E+00 0.  1.
     999900   -1    0    0    0    0 -0.00000000000E+00 -0.00000000000E+00 -0.74505805969E-08  0.93827000000E+00  0.93827000000E+00 0.  1.
     999902    2    1    2    0    0  0.15750339323E-01  0.15863867154E-01 -0.77601209341E-02  0.10202666328E+01  0.10199921799E+01 0.  0.
     999903    2    3    3    0    0 -0.18436034773E-01 -0.15831777589E+00 -0.42238590807E-01  0.16591207068E+00  0.18393235282E-01 0.  0.
         14    1    1    2    0    0 -0.15750339323E-01 -0.15863867154E-01  0.77601209341E-02  0.23663367190E-01  0.00000000000E+00 0.  1.
     999901    1    3    3    0    0  0.34186374096E-01  0.17418164304E+00  0.34478469873E-01  0.85435456213E+00  0.83500000000E+00 0. -1.
        -11    1    4    4    0    0 -0.37776064003E-02 -0.84282597323E-01 -0.29457171114E-01  0.89363373776E-01  0.51100000000E-03 0.  1.
         11    1    4    4    0    0 -0.14658428372E-01 -0.74035178565E-01 -0.12781419693E-01  0.76548696905E-01  0.51100000000E-03 0. -1.
</event>
<event>
 8    1  0.5616615E+005  0.1043930E+01  0.7957747E-01            NaN
         13   -1    0    0    0    0  0.00000000000E+00  0.00000000000E+00  0.74505805969E-08  0.10566000000E+00  0.10566000000E+00 0.  1.
     999900   -1    0    0    0    0 -0.00000000000E+00 -0.00000000000E+00 -0.74505805969E-08  0.93827000000E+00  0.93827000000E+00 0.  1.
     999902    2    1    2    0    0 -0.33321797298E-02 -0.10564619724E-01 -0.20753168764E-01  0.10204053613E+01  0.10201341543E+01 0.  0.
     999903    2    3    3    0    0 -0.14879374655E+00  0.21832106935E-01 -0.76736924993E-01  0.17036548208E+00  0.22795217087E-01 0.  0.
         14    1    1    2    0    0  0.33321797298E-02  0.10564619724E-01  0.20753168764E-01  0.23524638688E-01  0.00000000000E+00 0.  1.
     999901    1    3    3    0    0  0.14546156682E+00 -0.32396726659E-01  0.55983756229E-01  0.85003987923E+00  0.83500000000E+00 0.  1.
        -11    1    4    4    0    0 -0.13244264564E+00  0.26177614715E-01 -0.70676404263E-01  0.15238680106E+00  0.51100000000E-03 0.  1.
         11    1    4    4    0    0 -0.16351100906E-01 -0.43455077797E-02 -0.60605207300E-02  0.17978681020E-01  0.51100000000E-03 0. -1.
</event>
<event>
 8    1  0.5616615E+005  0.1043930E+01  0.7957747E-01            NaN
         13   -1    0    0    0    0  0.00000000000E+00  0.00000000000E+00  0.74505805969E-08  0.10566000000E+00  0.10566000000E+00 0. -1.
     999900   -1    0    0    0    0 -0.00000000000E+00 -0.00000000000E+00 -0.74505805969E-08  0.93827000000E+00  0.93827000000E+00 0. -1.
     999902    2    1    2    0    0  0.10576982585E-02  0.19051753539E-01  0.13156184749E-01  0.10207530020E+01  0.10204898421E+01 0.  0.
     999903    2    3    3    0    0  0.19034847467E-01 -0.96455072315E-01 -0.13135335073E+00  0.16531568078E+00  0.20240187024E-01 0.  0.
         14    1    1    2    0    0 -0.10576982585E-02 -0.19051753539E-01 -0.13156184749E-01  0.23176997986E-01  0.00000000000E+00 0.  1.
     999901    1    3    3    0    0 -0.17977149209E-01  0.11550682585E+00  0.14450953548E+00  0.85543732123E+00  0.83500000000E+00 0.  1.
        -11    1    4    4    0    0  0.93491718817E-02 -0.76008886303E-01 -0.11115171563E+00  0.13498045347E+00  0.51100000000E-03 0. -1.
         11    1    4    4    0    0  0.96856755857E-02 -0.20446186013E-01 -0.20201635100E-01  0.30335227307E-01  0.51100000000E-03 0.  1.
</event>
<event>
 8    1  0.5616615E+005  0.1043930E+01  0.7957747E-01            NaN
         13   -1    0    0    0    0  0.00000000000E+00  0.00000000000E+00  0.74505805969E-08  0.10566000000E+00  0.10566000000E+00 0.  1.
     999900   -1    0    0    0    0 -0.00000000000E+00 -0.00000000000E+00 -0.74505805969E-08  0.93827000000E+00  0.93827000000E+00 0. -1.
     999902    2    1    2    0    0  0.18564473602E-01 -0.12233534855E-01 -0.79381965308E-02  0.10203225008E+01  0.10200493574E+01 0.  0.
     999903    2    3    3    0    0 -0.14362507023E+00 -0.82593907556E-01 -0.23648257301E-02  0.16679330231E+00  0.19091855116E-01 0.  0.
         14    1    1    2    0    0 -0.18564473602E-01  0.12233534855E-01  0.79381965308E-02  0.23607499218E-01  0.00000000000E+00 0.  1.
     999901    1    3    3    0    0  0.16218954383E+00  0.70360372701E-01 -0.55733708007E-02  0.85352919847E+00  0.83500000000E+00 0. -1.
        -11    1    4    4    0    0 -0.52717101374E-01 -0.27112776614E-01  0.78598541828E-02  0.59801620896E-01  0.51100000000E-03 0.  1.
         11    1    4    4    0    0 -0.90907968857E-01 -0.55481130943E-01 -0.10224679913E-01  0.10699168142E+00  0.51100000000E-03 0. -1.
</event>
<event>
 8    1  0.5616615E+005  0.1043930E+01  0.7957747E-01            NaN
         13   -1    0    0    0    0  0.00000000000E+00  0.00000000000E+00  0.74505805969E-08  0.10566000000E+00  0.10566000000E+00 0. -1.
     999900   -1    0    0    0    0 -0.00000000000E+00 -0.00000000000E+00 -0.74505805969E-08  0.93827000000E+00  0.93827000000E+00 0. -1.
     999902    2    1    2    0    0 -0.15252814250E-01 -0.13888795121E-01  0.12127716056E-01  0.10200003433E+01  0.10197196045E+01 0.  0.
     999903    2    3    3    0    0  0.20295647179E-01  0.12328579781E+00 -0.10591418164E+00  0.16487494218E+00  0.18831660786E-01 0.  0.
         14    1    1    2    0    0  0.15252814250E-01  0.13888795121E-01 -0.12127716056E-01  0.23929656688E-01  0.00000000000E+00 0.  1.
     999901    1    3    3    0    0 -0.35548461430E-01 -0.13717459293E+00  0.11804189770E+00  0.85512540114E+00  0.83500000000E+00 0.  1.
        -11    1    4    4    0    0  0.20525241636E-01  0.67338623633E-01 -0.58134173631E-01  0.91299611400E-01  0.51100000000E-03 0.  1.
         11    1    4    4    0    0 -0.22959445693E-03  0.55947174179E-01 -0.47780008012E-01  0.73575330776E-01  0.51100000000E-03 0. -1.
</event>
<event>
 8    1  0.5616615E+005  0.1043930E+01  0.7957747E-01            NaN
         13   -1    0    0    0    0  0.00000000000E+00  0.00000000000E+00  0.74505805969E-08  0.10566000000E+00  0.10566000000E+00 0.  1.
     999900   -1    0    0    0    0 -0.00000000000E+00 -0.00000000000E+00 -0.74505805969E-08  0.93827000000E+00  0.93827000000E+00 0. -1.
     999902    2    1    2    0    0  0.18253585957E-01 -0.89644388332E-02 -0.10762982326E-01  0.10209213853E+01  0.10206620785E+01 0.  0.
     999903    2    3    3    0    0 -0.13778490979E+00  0.40227706191E-01 -0.83025175715E-01  0.16698069418E+00  0.19657637587E-01 0.  0.
         14    1    1    2    0    0 -0.18253585957E-01  0.89644388332E-02  0.10762982326E-01  0.23008614744E-01  0.00000000000E+00 0.  1.
     999901    1    3    3    0    0  0.15603849574E+00 -0.49192145024E-01  0.72262193389E-01  0.85394069108E+00  0.83500000000E+00 0.  1.
        -11    1    4    4    0    0 -0.16989313913E-01  0.11594739249E-01 -0.14595994244E-01  0.25226552172E-01  0.51100000000E-03 0.  1.
         11    1    4    4    0    0 -0.12079559587E+00  0.28632966942E-01 -0.68429181471E-01  0.14175414201E+00  0.51100000000E-03 0. -1.
</event>
<event>
 8    1  0.5616615E+005  0.1043930E+01  0.7957747E-01            NaN
         13   -1    0    0    0    0  0.00000000000E+00  0.00000000000E+00  0.74505805969E-08  0.10566000000E+00  0.10566000000E+00 0. -1.
     999900   -1    0    0    0    0 -0.00000000000E+00 -0.00000000000E+00 -0.74505805969E-08  0.93827000000E+00  0.93827000000E+00 0. -1.
     999902    2    1    2    0    0 -0.20060158803E-01 -0.11503754580E-01  0.12222965088E-02  0.10207731360E+01  0.10205104384E+01 0.  0.
     999903    2    3    3    0    0  0.12863077626E+00 -0.98042281260E-01  0.38469986859E-01  0.16742074620E+00  0.19788907316E-01 0.  0.
         14    1    1    2    0    0  0.20060158803E-01  0.11503754580E-01 -0.12222965088E-02  0.23156863980E-01  0.00000000000E+00 0. -1.
     999901    1    3    3    0    0 -0.14869093507E+00  0.86538526680E-01 -0.37247690350E-01  0.85335238982E+00  0.83500000000E+00 0.  1.
        -11    1    4    4    0    0  0.47560582973E-01 -0.48395898694E-01  0.14737617554E-01  0.69437961918E-01  0.51100000000E-03 0. -1.
         11    1    4    4    0    0  0.81070193292E-01 -0.49646382566E-01  0.23732369305E-01  0.97982784284E-01  0.51100000000E-03 0.  1.
</event>
<event>
 8    1  0.7607019E+005  0.1043930E+01  0.7957747E-01            NaN
         13   -1    0    0    0    0  0.00000000000E+00  0.00000000000E+00  0.74505805969E-08  0.10566000000E+00  0.10566000000E+00 0.  1.
     999900   -1    0    0    0    0 -0.00000000000E+00 -0.00000000000E+00 -0.74505805969E-08  0.93827000000E+00  0.93827000000E+00 0.  1.
     999902    2    1    2    0    0  0.40476860037E-02 -0.17510363463E-01  0.15351047642E-01  0.10202941955E+01  0.10200203891E+01 0.  0.
     999903    2    3    3    0    0 -0.16403963750E+00 -0.26593690199E-01  0.19288957602E-01  0.16848649286E+00  0.19985178501E-01 0.  0.
         14    1    1    2    0    0 -0.40476860037E-02  0.17510363463E-01 -0.15351047642E-01  0.23635804498E-01  0.00000000000E+00 0. -1.
     999901    1    3    3    0    0  0.16808732351E+00  0.90833267362E-02 -0.39379099603E-02  0.85180770264E+00  0.83500000000E+00 0.  1.
        -11    1    4    4    0    0 -0.60123108698E-01 -0.18576935240E-01  0.11475443321E-01  0.63967473319E-01  0.51100000000E-03 0.  1.
         11    1    4    4    0    0 -0.10391652881E+00 -0.80167549597E-02  0.78135142804E-02  0.10451901954E+00  0.51100000000E-03 0. -1.
</event>
<event>
 8    1  0.5616615E+005  0.1043930E+01  0.7957747E-01            NaN
         13   -1    0    0    0    0  0.00000000000E+00  0.00000000000E+00  0.74505805969E-08  0.10566000000E+00  0.10566000000E+00 0.  1.
     999900   -1    0    0    0    0 -0.00000000000E+00 -0.00000000000E+00 -0.74505805969E-08  0.93827000000E+00  0.93827000000E+00 0.  1.
     999902    2    1    2    0    0 -0.91542989142E-03 -0.17483781140E-01 -0.13607641223E-01  0.10217559495E+01  0.10215153116E+01 0.  0.
     999903    2    3    3    0    0 -0.10369847482E+00 -0.10118843466E+00  0.85763027998E-01  0.17048022848E+00  0.26753286523E-01 0.  0.
         14    1    1    2    0    0  0.91542989142E-03  0.17483781140E-01  0.13607641223E-01  0.22174050475E-01  0.00000000000E+00 0.  1.
     999901    1    3    3    0    0  0.10278304493E+00  0.83704653522E-01 -0.99370669221E-01  0.85127572105E+00  0.83500000000E+00 0.  1.
        -11    1    4    4    0    0 -0.50767175178E-01 -0.67741677515E-01  0.46758901830E-01  0.96710376741E-01  0.51100000000E-03 0. -1.
         11    1    4    4    0    0 -0.52931299645E-01 -0.33446757146E-01  0.39004126168E-01  0.73769851734E-01  0.51100000000E-03 0.  1.
</event>
<event>
 8    1  0.5616615E+005  0.1043930E+01  0.7957747E-01            NaN
         13   -1    0    0    0    0  0.00000000000E+00  0.00000000000E+00  0.74505805969E-08  0.10566000000E+00  0.10566000000E+00 0.  1.
     999900   -1    0    0    0    0 -0.00000000000E+00 -0.00000000000E+00 -0.74505805969E-08  0.93827000000E+00  0.93827000000E+00 0.  1.
     999902    2    1    2    0    0 -0.30356509681E-02 -0.42990513209E-03  0.25944033574E-01  0.10178054354E+01  0.10174701035E+01 0.  0.
     999903    2    3    3    0    0 -0.83199907347E-01  0.32054572363E-01  0.14354876928E+00  0.17013956782E+00  0.19786439344E-01 0.  0.
         14    1    1    2    0    0  0.30356509681E-02  0.42990513209E-03 -0.25944033574E-01  0.26124564557E-01  0.00000000000E+00 0. -1.
     999901    1    3    3    0    0  0.80164256379E-01 -0.32484477495E-01 -0.11760473571E+00  0.84766586763E+00  0.83500000000E+00 0.  1.
        -11    1    4    4    0    0 -0.46330189931E-01  0.86736425798E-02  0.83645527178E-01  0.96013300706E-01  0.51100000000E-03 0.  1.
         11    1    4    4    0    0 -0.36869717416E-01  0.23380929783E-01  0.59903242106E-01  0.74126267110E-01  0.51100000000E-03 0. -1.
</event>
<event>
 8    1  0.5616615E+005  0.1043930E+01  0.7957747E-01            NaN
         13   -1    0    0    0    0  0.00000000000E+00  0.00000000000E+00  0.74505805969E-08  0.10566000000E+00  0.10566000000E+00 0.  1.
     999900   -1    0    0    0    0 -0.00000000000E+00 -0.00000000000E+00 -0.74505805969E-08  0.93827000000E+00  0.93827000000E+00 0.  1.
     999902    2    1    2    0    0  0.94084161618E-03  0.40533692590E-02  0.22532124519E-01  0.10210168679E+01  0.10207597332E+01 0.  0.
     999903    2    3    3    0    0 -0.12004486970E-01 -0.17615816275E-01  0.17018914989E+00  0.17268631192E+00  0.20044722360E-01 0.  0.
         14    1    1    2    0    0 -0.94084161618E-03 -0.40533692590E-02 -0.22532124519E-01  0.22913132057E-01  0.00000000000E+00 0. -1.
     999901    1    3    3    0    0  0.12945328586E-01  0.21669185534E-01 -0.14765702537E+00  0.84833055602E+00  0.83500000000E+00 0.  1.
        -11    1    4    4    0    0  0.48062487839E-02 -0.36632535209E-02  0.63068328681E-01  0.63359250764E-01  0.51100000000E-03 0.  1.
         11    1    4    4    0    0 -0.16810735754E-01 -0.13952562754E-01  0.10712082121E+00  0.10932706116E+00  0.51100000000E-03 0. -1.
</event>
<event>
 8    1  0.5616615E+005  0.1043930E+01  0.7957747E-01            NaN
         13   -1    0    0    0    0  0.00000000000E+00  0.00000000000E+00  0.74505805969E-08  0.10566000000E+00  0.10566000000E+00 0.  1.
     999900   -1    0    0    0    0 -0.00000000000E+00 -0.00000000000E+00 -0.74505805969E-08  0.93827000000E+00  0.93827000000E+00 0. -1.
     999902    2    1    2    0    0  0.12226576579E-02 -0.20989408137E-01 -0.10231332755E-01  0.10205477350E+01  0.10202798386E+01 0.  0.
     999903    2    3    3    0    0 -0.14142774184E+00 -0.84435053775E-01 -0.39740374748E-01  0.17056522344E+00  0.19547726073E-01 0.  0.
         14    1    1    2    0    0 -0.12226576579E-02  0.20989408137E-01  0.10231332755E-01  0.23382264981E-01  0.00000000000E+00 0.  1.
     999901    1    3    3    0    0  0.14265039950E+00  0.63445645638E-01  0.29509041994E-01  0.84998251158E+00  0.83500000000E+00 0.  1.
        -11    1    4    4    0    0 -0.10750610670E+00 -0.63967185993E-01 -0.21443695828E-01  0.12692303603E+00  0.51100000000E-03 0. -1.
         11    1    4    4    0    0 -0.33921635137E-01 -0.20467867782E-01 -0.18296678920E-01  0.43642187416E-01  0.51100000000E-03 0.  1.
</event>
<event>
 8    1  0.5616615E+005  0.1043930E+01  0.7957747E-01            NaN
         13   -1    0    0    0    0  0.00000000000E+00  0.00000000000E+00  0.74505805969E-08  0.10566000000E+00  0.10566000000E+00 0. -1.
     999900   -1    0    0    0    0 -0.00000000000E+00 -0.00000000000E+00 -0.74505805969E-08  0.93827000000E+00  0.93827000000E+00 0. -1.
     999902    2    1    2    0    0  0.12845953345E-01  0.19128670904E-01 -0.64462764680E-02  0.10200034656E+01  0.10197228010E+01 0.  0.
     999903    2    3    3    0    0 -0.11478196553E-01  0.14235555707E+00 -0.92362735288E-01  0.17124957452E+00  0.19967180007E-01 0.  0.
         14    1    1    2    0    0 -0.12845953345E-01 -0.19128670904E-01  0.64462764680E-02  0.23926534396E-01  0.00000000000E+00 0. -1.
     999901    1    3    3    0    0  0.24324149898E-01 -0.12322688617E+00  0.85916458820E-01  0.84875389109E+00  0.83500000000E+00 0.  1.
        -11    1    4    4    0    0  0.19588022603E-02  0.47590428377E-01 -0.39672043819E-01  0.61990466696E-01  0.51100000000E-03 0.  1.
         11    1    4    4    0    0 -0.13436998813E-01  0.94765128692E-01 -0.52690691469E-01  0.10925910782E+00  0.51100000000E-03 0. -1.
</event>
<event>
 8    1  0.5616615E+005  0.1043930E+01  0.7957747E-01            NaN
         13   -1    0    0    0    0  0.00000000000E+00  0.00000000000E+00  0.74505805969E-08  0.10566000000E+00  0.10566000000E+00 0.  1.
     999900   -1    0    0    0    0 -0.00000000000E+00 -0.00000000000E+00 -0.74505805969E-08  0.93827000000E+00  0.93827000000E+00 0.  1.
     999902    2    1    2    0    0  0.11030035089E-01 -0.14231881937E-01 -0.16482760090E-01  0.10195191516E+01  0.10192268693E+01 0.  0.
     999903    2    3    3    0    0  0.61556489129E-01  0.70631607076E-01  0.13372600921E+00  0.16538660414E+00  0.26306995560E-01 0.  0.
         14    1    1    2    0    0 -0.11030035089E-01  0.14231881937E-01  0.16482760090E-01  0.24410848362E-01  0.00000000000E+00 0. -1.
     999901    1    3    3    0    0 -0.50526454040E-01 -0.84863489013E-01 -0.15020876930E+00  0.85413254750E+00  0.83500000000E+00 0.  1.
        -11    1    4    4    0    0  0.49478520508E-01  0.43968825209E-01  0.10657660233E+00  0.12546001302E+00  0.51100000000E-03 0.  1.
         11    1    4    4    0    0  0.12077968621E-01  0.26662781867E-01  0.27149406880E-01  0.39926591112E-01  0.51100000000E-03 0. -1.
</event>
<event>
 8    1  0.5616615E+005  0.1043930E+01  0.7957747E-01            NaN
         13   -1    0    0    0    0  0.00000000000E+00  0.00000000000E+00  0.74505805969E-08  0.10566000000E+00  0.10566000000E+00 0. -1.
     999900   -1    0    0    0    0 -0.00000000000E+00 -0.00000000000E+00 -0.74505805969E-08  0.93827000000E+00  0.93827000000E+00 0. -1.
     999902    2    1    2    0    0  0.54751321041E-02 -0.16179058295E-01 -0.16624729236E-01  0.10200947190E+01  0.10198162163E+01 0.  0.
     999903    2    3    3    0    0  0.15890716984E+00  0.48556931885E-01  0.14721216417E-01  0.16807376447E+00  0.20562388715E-01 0.  0.
         14    1    1    2    0    0 -0.54751321041E-02  0.16179058295E-01  0.16624729236E-01  0.23835281015E-01  0.00000000000E+00 0. -1.
     999901    1    3    3    0    0 -0.15343203773E+00 -0.64735990180E-01 -0.31345945653E-01  0.85202095452E+00  0.83500000000E+00 0.  1.
        -11    1    4    4    0    0  0.53702165414E-01  0.96952098260E-02  0.12052183457E-01  0.55887708047E-01  0.51100000000E-03 0.  1.
         11    1    4    4    0    0  0.10520500442E+00  0.38861722059E-01  0.26690329596E-02  0.11218605642E+00  0.51100000000E-03 0. -1.
</event>
<event>
 8    1  0.5616615E+005  0.1043930E+01  0.7957747E-01            NaN
         13   -1    0    0    0    0  0.00000000000E+00  0.00000000000E+00  0.74505805969E-08  0.10566000000E+00  0.10566000000E+00 0.  1.
     999900   -1    0    0    0    0 -0.00000000000E+00 -0.00000000000E+00 -0.74505805969E-08  0.93827000000E+00  0.93827000000E+00 0. -1.
     999902    2    1    2    0    0  0.16900677879E-01 -0.16264696440E-01  0.14832480115E-02  0.10204273770E+01  0.10201566833E+01 0.  0.
     999903    2    3    3    0    0  0.76069043152E-01 -0.15316673929E+00  0.46825736154E-02  0.17220670968E+00  0.19664053870E-01 0.  0.
         14    1    1    2    0    0 -0.16900677879E-01  0.16264696440E-01 -0.14832480115E-02  0.23502622997E-01  0.00000000000E+00 0.  1.
     999901    1    3    3    0    0 -0.59168365273E-01  0.13690204285E+00 -0.31993256039E-02  0.84822066732E+00  0.83500000000E+00 0. -1.
        -11    1    4    4    0    0  0.52200174715E-01 -0.90716107630E-01 -0.42727196606E-02  0.10475107483E+00  0.51100000000E-03 0. -1.
         11    1    4    4    0    0  0.23868868436E-01 -0.62450631657E-01  0.89552932760E-02  0.67455634853E-01  0.51100000000E-03 0.  1.
</event>
<event>
 8    1  0.5616615E+005  0.1043930E+01  0.7957747E-01            NaN
         13   -1    0    0    0    0  0.00000000000E+00  0.00000000000E+00  0.74505805969E-08  0.10566000000E+00  0.10566000000E+00 0. -1.
     999900   -1    0    0    0    0 -0.00000000000E+00 -0.00000000000E+00 -0.74505805969E-08  0.93827000000E+00  0.93827000000E+00 0. -1.
     999902    2    1    2    0    0 -0.14809846744E-01 -0.56730619382E-02 -0.17596528649E-01  0.10202413316E+01  0.10199662845E+01 0.  0.
     999903    2    3    3    0    0  0.75155144429E-02 -0.16475417910E+00  0.29267251978E-01  0.16863905494E+00  0.19548307445E-01 0.  0.
         14    1    1    2    0    0  0.14809846744E-01  0.56730619382E-02  0.17596528649E-01  0.23688668448E-01  0.00000000000E+00 0. -1.
     999901    1    3    3    0    0 -0.22325361187E-01  0.15908111717E+00 -0.46863780628E-01  0.85160227661E+00  0.83500000000E+00 0.  1.
        -11    1    4    4    0    0  0.76766468540E-02 -0.28734108476E-01  0.92606930726E-02  0.31154477270E-01  0.51100000000E-03 0.  1.
         11    1    4    4    0    0 -0.16113241110E-03 -0.13602007063E+00  0.20006558906E-01  0.13748457767E+00  0.51100000000E-03 0. -1.
</event>
<event>
 8    1  0.5616615E+005  0.1043930E+01  0.7957747E-01            NaN
         13   -1    0    0    0    0  0.00000000000E+00  0.00000000000E+00  0.74505805969E-08  0.10566000000E+00  0.10566000000E+00 0.  1.
     999900   -1    0    0    0    0 -0.00000000000E+00 -0.00000000000E+00 -0.74505805969E-08  0.93827000000E+00  0.93827000000E+00 0.  1.
     999902    2    1    2    0    0 -0.39462867646E-02 -0.12032248790E-01  0.20216462752E-01  0.10200751565E+01  0.10197961911E+01 0.  0.
     999903    2    3    3    0    0 -0.67787450941E-01  0.14875194220E+00 -0.22793076792E-01  0.16625897562E+00  0.20006094322E-01 0.  0.
         14    1    1    2    0    0  0.39462867646E-02  0.12032248790E-01 -0.20216462752E-01  0.23854843457E-01  0.00000000000E+00 0. -1.
     999901    1    3    3    0    0  0.63841164176E-01 -0.16078419099E+00  0.43009539544E-01  0.85381618092E+00  0.83500000000E+00 0. -1.
        -11    1    4    4    0    0 -0.16873646884E-01  0.23086656392E-01 -0.89383651970E-02  0.29964464886E-01  0.51100000000E-03 0.  1.
         11    1    4    4    0    0 -0.50913804057E-01  0.12566528581E+00 -0.13854711595E-01  0.13629451073E+00  0.51100000000E-03 0. -1.
</event>
<event>
 8    1  0.6264919E+005  0.1043930E+01  0.7957747E-01            NaN
         13   -1    0    0    0    0  0.00000000000E+00  0.00000000000E+00  0.74505805969E-08  0.10566000000E+00  0.10566000000E+00 0. -1.
     999900   -1    0    0    0    0 -0.00000000000E+00 -0.00000000000E+00 -0.74505805969E-08  0.93827000000E+00  0.93827000000E+00 0. -1.
     999902    2    1    2    0    0 -0.16103832345E-01  0.26788337506E-02 -0.17276878123E-01  0.10201602696E+01  0.10198833147E+01 0.  0.
     999903    2    3    3    0    0  0.10948044500E+00 -0.90754403287E-01  0.81178810708E-01  0.16492948017E+00  0.19733336444E-01 0.  0.
         14    1    1    2    0    0  0.16103832345E-01 -0.26788337506E-02  0.17276878123E-01  0.23769730418E-01  0.00000000000E+00 0. -1.
     999901    1    3    3    0    0 -0.12558427734E+00  0.93433237038E-01 -0.98455688830E-01  0.85523078941E+00  0.83500000000E+00 0.  1.
        -11    1    4    4    0    0  0.70444190271E-01 -0.45845645487E-01  0.46471990456E-01  0.96042252009E-01  0.51100000000E-03 0. -1.
         11    1    4    4    0    0  0.39036254728E-01 -0.44908757801E-01  0.34706820251E-01  0.68887228158E-01  0.51100000000E-03 0.  1.
</event>
<event>
 8    1  0.5616615E+005  0.1043930E+01  0.7957747E-01            NaN
         13   -1    0    0    0    0  0.00000000000E+00  0.00000000000E+00  0.74505805969E-08  0.10566000000E+00  0.10566000000E+00 0.  1.
     999900   -1    0    0    0    0 -0.00000000000E+00 -0.00000000000E+00 -0.74505805969E-08  0.93827000000E+00  0.93827000000E+00 0. -1.
     999902    2    1    2    0    0  0.14239691164E-01  0.19501277742E-01  0.20867204556E-02  0.10196931883E+01  0.10194051085E+01 0.  0.
     999903    2    3    3    0    0  0.11949145918E+00 -0.84542676304E-01  0.80100205324E-01  0.16809810681E+00  0.20377872458E-01 0.  0.
         14    1    1    2    0    0 -0.14239691164E-01 -0.19501277742E-01 -0.20867204556E-02  0.24236811677E-01  0.00000000000E+00 0.  1.
     999901    1    3    3    0    0 -0.10525176801E+00  0.10404395405E+00 -0.78013484869E-01  0.85159508152E+00  0.83500000000E+00 0. -1.
        -11    1    4    4    0    0  0.48085076225E-01 -0.32210283839E-01  0.20623948895E-01  0.61443350572E-01  0.51100000000E-03 0.  1.
         11    1    4    4    0    0  0.71406382951E-01 -0.52332392465E-01  0.59476256429E-01  0.10665475623E+00  0.51100000000E-03 0. -1.
</event>
<event>
 8    1  0.5616615E+005  0.1043930E+01  0.7957747E-01            NaN
         13   -1    0    0    0    0  0.00000000000E+00  0.00000000000E+00  0.74505805969E-08  0.10566000000E+00  0.10566000000E+00 0. -1.
     999900   -1    0    0    0    0 -0.00000000000E+00 -0.00000000000E+00 -0.74505805969E-08  0.93827000000E+00  0.93827000000E+00 0. -1.
     999902    2    1    2    0    0  0.10115840370E-02 -0.18580518913E-01  0.15315450911E-01  0.10198297506E+01  0.10195449466E+01 0.  0.
     999903    2    3    3    0    0  0.19993086227E-01  0.16122144553E+00 -0.18958851137E-01  0.16479245805E+00  0.20125560786E-01 0.  0.
         14    1    1    2    0    0 -0.10115840370E-02  0.18580518913E-01 -0.15315450911E-01  0.24100249417E-01  0.00000000000E+00 0.  1.
     999901    1    3    3    0    0 -0.18981502190E-01 -0.17980196445E+00  0.34274302048E-01  0.85503729253E+00  0.83500000000E+00 0.  1.
        -11    1    4    4    0    0  0.84868061052E-02  0.13021266313E+00 -0.17750441641E-01  0.13169169608E+00  0.51100000000E-03 0. -1.
         11    1    4    4    0    0  0.11506280122E-01  0.31008782399E-01 -0.12084094958E-02  0.33100761965E-01  0.51100000000E-03 0.  1.
</event>
<event>
 8    1  0.5616615E+005  0.1043930E+01  0.7957747E-01            NaN
         13   -1    0    0    0    0  0.00000000000E+00  0.00000000000E+00  0.74505805969E-08  0.10566000000E+00  0.10566000000E+00 0.  1.
     999900   -1    0    0    0    0 -0.00000000000E+00 -0.00000000000E+00 -0.74505805969E-08  0.93827000000E+00  0.93827000000E+00 0.  1.
     999902    2    1    2    0    0  0.22134055817E-01 -0.59217766579E-02  0.55728414504E-02  0.10203494905E+01  0.10200769786E+01 0.  0.
     999903    2    3    3    0    0  0.95192955967E-01 -0.88072538002E-01 -0.10873991725E+00  0.17042081275E+00  0.20010322319E-01 0.  0.
         14    1    1    2    0    0 -0.22134055817E-01  0.59217766579E-02 -0.55728414504E-02  0.23580509484E-01  0.00000000000E+00 0. -1.
     999901    1    3    3    0    0 -0.73058900150E-01  0.82150761344E-01  0.11431275870E+00  0.84992867776E+00  0.83500000000E+00 0. -1.
        -11    1    4    4    0    0  0.53186811233E-01 -0.61860057886E-01 -0.71198923834E-01  0.10828227707E+00  0.51100000000E-03 0.  1.
         11    1    4    4    0    0  0.42006144734E-01 -0.26212480116E-01 -0.37540993420E-01  0.62138535686E-01  0.51100000000E-03 0. -1.
</event>
<event>
 8    1  0.5616615E+005  0.1043930E+01  0.7957747E-01            NaN
         13   -1    0    0    0    0  0.00000000000E+00  0.00000000000E+00  0.74505805969E-08  0.10566000000E+00  0.10566000000E+00 0. -1.
     999900   -1    0    0    0    0 -0.00000000000E+00 -0.00000000000E+00 -0.74505805969E-08  0.93827000000E+00  0.93827000000E+00 0. -1.
     999902    2    1    2    0    0  0.24316065447E-02 -0.90920686373E-03 -0.21180749223E-01  0.10225907520E+01  0.10223680759E+01 0.  0.
     999903    2    3    3    0    0 -0.13303027694E+00 -0.72479990334E-01 -0.78291713593E-01  0.17173297236E+00  0.20303147498E-01 0.  0.
         14    1    1    2    0    0 -0.24316065447E-02  0.90920686373E-03  0.21180749223E-01  0.21339247999E-01  0.00000000000E+00 0. -1.
     999901    1    3    3    0    0  0.13546188348E+00  0.71570783470E-01  0.57110964370E-01  0.85085777964E+00  0.83500000000E+00 0. -1.
        -11    1    4    4    0    0 -0.46710161339E-01 -0.35702594304E-01 -0.25659094090E-01  0.64149549047E-01  0.51100000000E-03 0.  1.
         11    1    4    4    0    0 -0.86320115597E-01 -0.36777396030E-01 -0.52632619503E-01  0.10758342331E+00  0.51100000000E-03 0. -1.
</event>
<event>
 8    1  0.5616615E+005  0.1043930E+01  0.7957747E-01            NaN
         13   -1    0    0    0    0  0.00000000000E+00  0.00000000000E+00  0.74505805969E-08  0.10566000000E+00  0.10566000000E+00 0. -1.
     999900   -1    0    0    0    0 -0.00000000000E+00 -0.00000000000E+00 -0.74505805969E-08  0.93827000000E+00  0.93827000000E+00 0. -1.
     999902    2    1    2    0    0 -0.35666130699E-02  0.96852894021E-02 -0.20429499529E-01  0.10210413563E+01  0.10207847771E+01 0.  0.
     999903    2    3    3    0    0 -0.11028072103E+00 -0.12540201396E+00 -0.90608033035E-02  0.16840384386E+00  0.19754845817E-01 0.  0.
         14    1    1    2    0    0  0.35666130699E-02 -0.96852894021E-02  0.20429499529E-01  0.22888643704E-01  0.00000000000E+00 0. -1.
     999901    1    3    3    0    0  0.10671410796E+00  0.13508730336E+00 -0.11368696226E-01  0.85263751244E+00  0.83500000000E+00 0.  1.
        -11    1    4    4    0    0 -0.10810078379E+00 -0.11666135671E+00 -0.98153483011E-02  0.15934947063E+00  0.51100000000E-03 0.  1.
         11    1    4    4    0    0 -0.21799372456E-02 -0.87406572434E-02  0.75454499759E-03  0.90543732304E-02  0.51100000000E-03 0. -1.
</event>
<event>
 8    1  0.5616615E+005  0.1043930E+01  0.7957747E-01            NaN
         13   -1    0    0    0    0  0.00000000000E+00  0.00000000000E+00  0.74505805969E-08  0.10566000000E+00  0.10566000000E+00 0.  1.
     999900   -1    0    0    0    0 -0.00000000000E+00 -0.00000000000E+00 -0.74505805969E-08  0.93827000000E+00  0.93827000000E+00 0. -1.
     999902    2    1    2    0    0  0.16187522830E-01 -0.94090234620E-02  0.14924551310E-01  0.10199861522E+01  0.10197050764E+01 0.  0.
     999903    2    3    3    0    0 -0.39589605129E-01  0.13062466607E+00 -0.90238511135E-01  0.16499796983E+00  0.21241490912E-01 0.  0.
         14    1    1    2    0    0 -0.16187522830E-01  0.94090234620E-02 -0.14924551310E-01  0.23943847846E-01  0.00000000000E+00 0. -1.
     999901    1    3    3    0    0  0.55777127959E-01 -0.14003368953E+00  0.10516306244E+00  0.85498818232E+00  0.83500000000E+00 0.  1.
        -11    1    4    4    0    0  0.12199801762E-02  0.76433929403E-03 -0.28642103917E-02  0.32461343710E-02  0.51100000000E-03 0. -1.
         11    1    4    4    0    0 -0.40809585306E-01  0.12986032678E+00 -0.87374300743E-01  0.16175183546E+00  0.51100000000E-03 0.  1.
</event>
<event>
 8    1  0.5616615E+005  0.1043930E+01  0.7957747E-01            NaN
         13   -1    0    0    0    0  0.00000000000E+00  0.00000000000E+00  0.74505805969E-08  0.10566000000E+00  0.10566000000E+00 0. -1.
     999900   -1    0    0    0    0 -0.00000000000E+00 -0.00000000000E+00 -0.74505805969E-08  0.93827000000E+00  0.93827000000E+00 0. -1.
     999902    2    1    2    0    0  0.15306987274E-01 -0.81515696616E-02 -0.15969260916E-01  0.10203552414E+01  0.10200828640E+01 0.  0.
     999903    2    3    3    0    0  0.16920351748E+00  0.50261630897E-02 -0.12426271504E-01  0.17118190964E+00  0.22220290792E-01 0.  0.
         14    1    1    2    0    0 -0.15306987274E-01  0.81515696616E-02  0.15969260916E-01  0.23574758568E-01  0.00000000000E+00 0. -1.
     999901    1    3    3    0    0 -0.15389653020E+00 -0.13177732751E-01 -0.35429894125E-02  0.84917333179E+00  0.83500000000E+00 0. -1.
        -11    1    4    4    0    0  0.10642504966E+00 -0.45571624038E-02 -0.15258211759E-01  0.10761102671E+00  0.51100000000E-03 0.  1.
         11    1    4    4    0    0  0.62778467822E-01  0.95833254935E-02  0.28319402549E-02  0.63570882928E-01  0.51100000000E-03 0. -1.
</event>
<event>
 8    1  0.5616615E+005  0.1043930E+01  0.7957747E-01            NaN
         13   -1    0    0    0    0  0.00000000000E+00  0.00000000000E+00  0.74505805969E-08  0.10566000000E+00  0.10566000000E+00 0.  1.
     999900   -1    0    0    0    0 -0.00000000000E+00 -0.00000000000E+00 -0.74505805969E-08  0.93827000000E+00  0.93827000000E+00 0. -1.
     999902    2    1    2    0    0  0.93109713453E-02  0.18501927110E-01  0.20687323302E-01  0.10146557649E+01  0.10142333757E+01 0.  0.
     999903    2    3    3    0    0  0.14370693242E+00 -0.51429525480E-01  0.59972928304E-01  0.16511409956E+00  0.19215494500E-01 0.  0.
         14    1    1    2    0    0 -0.93109713453E-02 -0.18501927110E-01 -0.20687323302E-01  0.29274235081E-01  0.00000000000E+00 0. -1.
     999901    1    3    3    0    0 -0.13439596107E+00  0.69931452591E-01 -0.39285605002E-01  0.84954166536E+00  0.83500000000E+00 0. -1.
        -11    1    4    4    0    0  0.12675739335E+00 -0.50032022110E-01  0.48754694503E-01  0.14473396755E+00  0.51100000000E-03 0.  1.
         11    1    4    4    0    0  0.16949539070E-01 -0.13975033702E-02  0.11218233801E-01  0.20380132015E-01  0.51100000000E-03 0. -1.
</event>
<event>
 8    1  0.5616615E+005  0.1043930E+01  0.7957747E-01            NaN
         13   -1    0    0    0    0  0.00000000000E+00  0.00000000000E+00  0.74505805969E-08  0.10566000000E+00  0.10566000000E+00 0.  1.
     999900   -1    0    0    0    0 -0.00000000000E+00 -0.00000000000E+00 -0.74505805969E-08  0.93827000000E+00  0.93827000000E+00 0.  1.
     999902    2    1    2    0    0 -0.13416767548E-01 -0.11156040053E-01  0.37546068528E-02  0.10260816400E+01  0.10259263950E+01 0.  0.
     999903    2    3    3    0    0  0.13786348554E+00  0.62623379524E-01 -0.76242972877E-01  0.17053869517E+00  0.18504792053E-01 0.  0.
         14    1    1    2    0    0  0.13416767548E-01  0.11156040053E-01 -0.37546068528E-02  0.17848359973E-01  0.00000000000E+00 0. -1.
     999901    1    3    3    0    0 -0.15128025309E+00 -0.73779419577E-01  0.79997579730E-01  0.85554294485E+00  0.83500000000E+00 0. -1.
        -11    1    4    4    0    0  0.81189647249E-01  0.27775752459E-01 -0.47299322570E-01  0.97983357167E-01  0.51100000000E-03 0.  1.
         11    1    4    4    0    0  0.56673838294E-01  0.34847627065E-01 -0.28943650307E-01  0.72555338006E-01  0.51100000000E-03 0. -1.
</event>
<event>
 8    1  0.5616615E+005  0.1043930E+01  0.7957747E-01            NaN
         13   -1    0    0    0    0  0.00000000000E+00  0.00000000000E+00  0.74505805969E-08  0.10566000000E+00  0.10566000000E+00 0.  1.
     999900   -1    0    0    0    0 -0.00000000000E+00 -0.00000000000E+00 -0.74505805969E-08  0.93827000000E+00  0.93827000000E+00 0. -1.
     999902    2    1    2    0    0  0.21887259466E-01 -0.22431691759E-02 -0.85405434598E-02  0.10203286268E+01  0.10200556268E+01 0.  0.
     999903    2    3    3    0    0 -0.98555685393E-01  0.12736812365E+00 -0.36265915304E-01  0.16633841230E+00  0.20430094191E-01 0.  0.
         14    1    1    2    0    0 -0.21887259466E-01  0.22431691759E-02  0.85405434598E-02  0.23601373212E-01  0.00000000000E+00 0.  1.
     999901    1    3    3    0    0  0.12044294486E+00 -0.12961129283E+00  0.27725371844E-01  0.85399021449E+00  0.83500000000E+00 0.  1.
        -11    1    4    4    0    0 -0.20028392650E-01  0.20506662881E-01 -0.13868813432E-01  0.31847524891E-01  0.51100000000E-03 0. -1.
         11    1    4    4    0    0 -0.78527292743E-01  0.10686146077E+00 -0.22397101872E-01  0.13449088741E+00  0.51100000000E-03 0.  1.
</event>
<event>
 8    1  0.5616615E+005  0.1043930E+01  0.7957747E-01            NaN
         13   -1    0    0    0    0  0.00000000000E+00  0.00000000000E+00  0.74505805969E-08  0.10566000000E+00  0.10566000000E+00 0. -1.
     999900   -1    0    0    0    0 -0.00000000000E+00 -0.00000000000E+00 -0.74505805969E-08  0.93827000000E+00  0.93827000000E+00 0.  1.
     999902    2    1    2    0    0 -0.15786595987E-02 -0.21253541588E-02  0.24066907834E-01  0.10197179090E+01  0.10194304236E+01 0.  0.
     999903    2    3    3    0    0 -0.73805305783E-01  0.83627713757E-01 -0.11993071951E+00  0.16500708439E+00  0.20078414961E-01 0.  0.
         14    1    1    2    0    0  0.15786595987E-02  0.21253541588E-02 -0.24066907834E-01  0.24212090969E-01  0.00000000000E+00 0.  1.
     999901    1    3    3    0    0  0.72226646184E-01 -0.85753067915E-01  0.14399762734E+00  0.85471082464E+00  0.83500000000E+00 0. -1.
        -11    1    4    4    0    0 -0.81056183426E-02  0.50571642786E-02 -0.18677429025E-01  0.20985314752E-01  0.51100000000E-03 0.  1.
         11    1    4    4    0    0 -0.65699687440E-01  0.78570549478E-01 -0.10125329048E+00  0.14402176964E+00  0.51100000000E-03 0. -1.
</event>
<event>
 8    1  0.5616615E+005  0.1043930E+01  0.7957747E-01            NaN
         13   -1    0    0    0    0  0.00000000000E+00  0.00000000000E+00  0.74505805969E-08  0.10566000000E+00  0.10566000000E+00 0.  1.
     999900   -1    0    0    0    0 -0.00000000000E+00 -0.00000000000E+00 -0.74505805969E-08  0.93827000000E+00  0.93827000000E+00 0. -1.
     999902    2    1    2    0    0 -0.61315822947E-02  0.72730577763E-02  0.20570059439E-01  0.10212667916E+01  0.10210152979E+01 0.  0.
     999903    2    3    3    0    0 -0.61241645087E-01  0.26089878445E-01  0.15826228240E+00  0.17298892435E+00  0.21142305171E-01 0.  0.
         14    1    1    2    0    0  0.61315822947E-02 -0.72730577763E-02 -0.20570059439E-01  0.22663208426E-01  0.00000000000E+00 0. -1.
     999901    1    3    3    0    0  0.55110062792E-01 -0.18816820669E-01 -0.13769222296E+00  0.84827786723E+00  0.83500000000E+00 0. -1.
        -11    1    4    4    0    0 -0.21876652988E-01  0.10901893663E-01  0.34912916244E-01  0.42621732403E-01  0.51100000000E-03 0. -1.
         11    1    4    4    0    0 -0.39364992099E-01  0.15187984782E-01  0.12334936615E+00  0.13036719195E+00  0.51100000000E-03 0.  1.
</event>
<event>
 8    1  0.6051613E+005  0.1043930E+01  0.7957747E-01            NaN
         13   -1    0    0    0    0  0.00000000000E+00  0.00000000000E+00  0.74505805969E-08  0.10566000000E+00  0.10566000000E+00 0.  1.
     999900   -1    0    0    0    0 -0.00000000000E+00 -0.00000000000E+00 -0.74505805969E-08  0.93827000000E+00  0.93827000000E+00 0. -1.
     999902    2    1    2    0    0 -0.94950071561E-02  0.11158421257E-02 -0.22460781672E-01  0.10195192037E+01  0.10192269226E+01 0.  0.
     999903    2    3    3    0    0  0.15317593215E+00  0.42499758898E-01 -0.47436474258E-01  0.16744922515E+00  0.22801934503E-01 0.  0.
         14    1    1    2    0    0  0.94950071561E-02 -0.11158421257E-02  0.22460781672E-01  0.24410796338E-01  0.00000000000E+00 0.  1.
     999901    1    3    3    0    0 -0.16267093930E+00 -0.41383916773E-01  0.24975692586E-01  0.85206997851E+00  0.83500000000E+00 0. -1.
        -11    1    4    4    0    0  0.11311997444E+00  0.22166325408E-01 -0.28821210068E-01  0.11882086462E+00  0.51100000000E-03 0.  1.
         11    1    4    4    0    0  0.40055957711E-01  0.20333433491E-01 -0.18615264190E-01  0.48628360527E-01  0.51100000000E-03 0. -1.
</event>
<event>
 8    1  0.5616615E+005  0.1043930E+01  0.7957747E-01            NaN
         13   -1    0    0    0    0  0.00000000000E+00  0.00000000000E+00  0.74505805969E-08  0.10566000000E+00  0.10566000000E+00 0.  1.
     999900   -1    0    0    0    0 -0.00000000000E+00 -0.00000000000E+00 -0.74505805969E-08  0.93827000000E+00  0.93827000000E+00 0.  1.
     999902    2    1    2    0    0  0.14005274606E-01  0.11956727215E-01 -0.14409856229E-01  0.10205472072E+01  0.10202792986E+01 0.  0.
     999903    2    3    3    0    0 -0.46053137542E-01  0.52409214508E-01  0.14980309822E+00  0.16647794127E+00  0.20157367139E-01 0.  0.
         14    1    1    2    0    0 -0.14005274606E-01 -0.11956727215E-01  0.14409856229E-01  0.23382792798E-01  0.00000000000E+00 0.  1.
     999901    1    3    3    0    0  0.60058412148E-01 -0.40452487293E-01 -0.16421295445E+00  0.85406926593E+00  0.83500000000E+00 0.  1.
        -11    1    4    4    0    0 -0.11355091693E-01  0.30354126905E-02  0.17837402466E-01  0.21367870397E-01  0.51100000000E-03 0. -1.
         11    1    4    4    0    0 -0.34698045849E-01  0.49373801818E-01  0.13196569576E+00  0.14511007087E+00  0.51100000000E-03 0.  1.
</event>
<event>
 8    1  0.5616615E+005  0.1043930E+01  0.7957747E-01            NaN
         13   -1    0    0    0    0  0.00000000000E+00  0.00000000000E+00  0.74505805969E-08  0.10566000000E+00  0.10566000000E+00 0.  1.
     999900   -1    0    0    0    0 -0.00000000000E+00 -0.00000000000E+00 -0.74505805969E-08  0.93827000000E+00  0.93827000000E+00 0.  1.
     999902    2    1    2    0    0 -0.25646666439E-01 -0.15704123465E-03  0.57555336275E-02  0.10176449790E+01  0.10173054610E+01 0.  0.
     999903    2    3    3    0    0 -0.11701113442E+00 -0.94680726751E-01  0.75168652448E-01  0.16951446181E+00  0.20707024330E-01 0.  0.
         14    1    1    2    0    0  0.25646666439E-01  0.15704123465E-03 -0.57555336275E-02  0.26285020995E-01  0.00000000000E+00 0. -1.
     999901    1    3    3    0    0  0.91364467977E-01  0.94523685516E-01 -0.69413118820E-01  0.84813051719E+00  0.83500000000E+00 0.  1.
        -11    1    4    4    0    0 -0.82067845476E-01 -0.77592836923E-01  0.53296136177E-01  0.12488602346E+00  0.51100000000E-03 0.  1.
         11    1    4    4    0    0 -0.34943288940E-01 -0.17087889828E-01  0.21872516271E-01  0.44628438353E-01  0.51100000000E-03 0. -1.
</event>
