<event>
 8    1  0.2928569E+004  0.1043930E+01  0.7957747E-01            NaN
         13   -1    0    0    0    0  0.00000000000E+00  0.00000000000E+00  0.74505805969E-08  0.10566000000E+00  0.10566000000E+00 0. -1.
     999900   -1    0    0    0    0 -0.00000000000E+00 -0.00000000000E+00 -0.74505805969E-08  0.93827000000E+00  0.93827000000E+00 0. -1.
     999902    2    1    2    0    0  0.12353941781E-01  0.15002474906E-02 -0.55041044283E-02  0.10303224365E+01  0.10302325744E+01 0.  0.
     999903    2    3    3    0    0 -0.71361215489E-01 -0.57844787067E-01 -0.95126946883E-01  0.13983812184E+00  0.45465611512E-01 0.  0.
         14    1    1    2    0    0 -0.12353941781E-01 -0.15002474906E-02  0.55041044283E-02  0.13607563544E-01  0.00000000000E+00 0. -1.
     999901    1    3    3    0    0  0.83715157270E-01  0.59345034557E-01  0.89622842455E-01  0.89048431461E+00  0.88000000000E+00 0.  1.
        -11    1    4    4    0    0 -0.43189724212E-01 -0.21940493143E-01 -0.21030948267E-01  0.52813818484E-01  0.51100000000E-03 0.  1.
         11    1    4    4    0    0 -0.28171491277E-01 -0.35904293924E-01 -0.74095998617E-01  0.87024303358E-01  0.51100000000E-03 0. -1.
</event>
<event>
 8    1  0.2928569E+004  0.1043930E+01  0.7957747E-01            NaN
         13   -1    0    0    0    0  0.00000000000E+00  0.00000000000E+00  0.74505805969E-08  0.10566000000E+00  0.10566000000E+00 0. -1.
     999900   -1    0    0    0    0 -0.00000000000E+00 -0.00000000000E+00 -0.74505805969E-08  0.93827000000E+00  0.93827000000E+00 0.  1.
     999902    2    1    2    0    0  0.49233085743E-02 -0.22331097781E-02 -0.12946051001E-01  0.10299005316E+01  0.10298049714E+01 0.  0.
     999903    2    3    3    0    0  0.10105703460E+00 -0.68092517858E-01 -0.55579901721E-01  0.14119540609E+00  0.44697896984E-01 0.  0.
         14    1    1    2    0    0 -0.49233085743E-02  0.22331097781E-02  0.12946051001E-01  0.14029468383E-01  0.00000000000E+00 0.  1.
     999901    1    3    3    0    0 -0.96133726026E-01  0.65859408080E-01  0.42633850720E-01  0.88870512553E+00  0.88000000000E+00 0. -1.
        -11    1    4    4    0    0  0.56165496773E-02  0.47878935978E-02  0.24898379006E-02  0.78057651228E-02  0.51100000000E-03 0. -1.
         11    1    4    4    0    0  0.95440484923E-01 -0.72880411456E-01 -0.58069739621E-01  0.13338964097E+00  0.51100000000E-03 0.  1.
</event>
<event>
 8    1  0.2928569E+004  0.1043930E+01  0.7957747E-01            NaN
         13   -1    0    0    0    0  0.00000000000E+00  0.00000000000E+00  0.74505805969E-08  0.10566000000E+00  0.10566000000E+00 0.  1.
     999900   -1    0    0    0    0 -0.00000000000E+00 -0.00000000000E+00 -0.74505805969E-08  0.93827000000E+00  0.93827000000E+00 0. -1.
     999902    2    1    2    0    0  0.35824507409E-02  0.12925861649E-02  0.11796051353E-01  0.10315343734E+01  0.10314598935E+01 0.  0.
     999903    2    3    3    0    0 -0.16245514158E-01  0.11701105593E+00  0.65380584776E-01  0.14212152509E+00  0.44366688952E-01 0.  0.
         14    1    1    2    0    0 -0.35824507409E-02 -0.12925861649E-02 -0.11796051353E-01  0.12395626641E-01  0.00000000000E+00 0. -1.
     999901    1    3    3    0    0  0.19827964899E-01 -0.11571846977E+00 -0.53584533423E-01  0.88941284827E+00  0.88000000000E+00 0. -1.
        -11    1    4    4    0    0 -0.31570726819E-01  0.83814058811E-01  0.44451588784E-01  0.99988559909E-01  0.51100000000E-03 0.  1.
         11    1    4    4    0    0  0.15325212662E-01  0.33196997121E-01  0.20928995992E-01  0.42132965184E-01  0.51100000000E-03 0. -1.
</event>
<event>
 8    1  0.2928569E+004  0.1043930E+01  0.7957747E-01            NaN
         13   -1    0    0    0    0  0.00000000000E+00  0.00000000000E+00  0.74505805969E-08  0.10566000000E+00  0.10566000000E+00 0. -1.
     999900   -1    0    0    0    0 -0.00000000000E+00 -0.00000000000E+00 -0.74505805969E-08  0.93827000000E+00  0.93827000000E+00 0.  1.
     999902    2    1    2    0    0 -0.86904796797E-02 -0.71290684483E-02 -0.77786631709E-02  0.10302604845E+01  0.10301697968E+01 0.  0.
     999903    2    3    3    0    0  0.11545909786E+00 -0.41088559767E-01  0.48485774752E-01  0.13911961366E+00  0.44545746472E-01 0.  0.
         14    1    1    2    0    0  0.86904796797E-02  0.71290684483E-02  0.77786631709E-02  0.13669515527E-01  0.00000000000E+00 0. -1.
     999901    1    3    3    0    0 -0.12414957754E+00  0.33959491319E-01 -0.56264437923E-01  0.89114087081E+00  0.88000000000E+00 0. -1.
        -11    1    4    4    0    0  0.81996805768E-01 -0.39122077950E-01  0.53173347272E-01  0.10526955457E+00  0.51100000000E-03 0. -1.
         11    1    4    4    0    0  0.33462292097E-01 -0.19664818174E-02 -0.46875725196E-02  0.33850059087E-01  0.51100000000E-03 0.  1.
</event>
<event>
 8    1  0.2928569E+004  0.1043930E+01  0.7957747E-01            NaN
         13   -1    0    0    0    0  0.00000000000E+00  0.00000000000E+00  0.74505805969E-08  0.10566000000E+00  0.10566000000E+00 0.  1.
     999900   -1    0    0    0    0 -0.00000000000E+00 -0.00000000000E+00 -0.74505805969E-08  0.93827000000E+00  0.93827000000E+00 0. -1.
     999902    2    1    2    0    0  0.34733752047E-02 -0.12524805350E-01  0.82057347012E-02  0.10285589504E+01  0.10284440895E+01 0.  0.
     999903    2    3    3    0    0 -0.51935151507E-01  0.93453365959E-01  0.74398170319E-01  0.13800692149E+00  0.45607357543E-01 0.  0.
         14    1    1    2    0    0 -0.34733752047E-02  0.12524805350E-01 -0.82057347012E-02  0.15371049618E-01  0.00000000000E+00 0. -1.
     999901    1    3    3    0    0  0.55408526712E-01 -0.10597817131E+00 -0.66192435618E-01  0.89055202889E+00  0.88000000000E+00 0.  1.
        -11    1    4    4    0    0 -0.56775837419E-02  0.57129546175E-01  0.37437985524E-01  0.68541110907E-01  0.51100000000E-03 0. -1.
         11    1    4    4    0    0 -0.46257567765E-01  0.36323819784E-01  0.36960184795E-01  0.69465810586E-01  0.51100000000E-03 0.  1.
</event>
<event>
 8    1  0.2928569E+004  0.1043930E+01  0.7957747E-01            NaN
         13   -1    0    0    0    0  0.00000000000E+00  0.00000000000E+00  0.74505805969E-08  0.10566000000E+00  0.10566000000E+00 0. -1.
     999900   -1    0    0    0    0 -0.00000000000E+00 -0.00000000000E+00 -0.74505805969E-08  0.93827000000E+00  0.93827000000E+00 0.  1.
     999902    2    1    2    0    0  0.81461935876E-02  0.10129363118E-01  0.26834281642E-02  0.10306572741E+01  0.10305718079E+01 0.  0.
     999903    2    3    3    0    0  0.54525493028E-01 -0.96539486618E-01 -0.72206245294E-01  0.13984991772E+00  0.45291895086E-01 0.  0.
         14    1    1    2    0    0 -0.81461935876E-02 -0.10129363118E-01 -0.26834281642E-02  0.13272725939E-01  0.00000000000E+00 0.  1.
     999901    1    3    3    0    0 -0.46379299440E-01  0.10666884974E+00  0.74889673458E-01  0.89080735634E+00  0.88000000000E+00 0. -1.
        -11    1    4    4    0    0  0.10922750445E-01 -0.59811299836E-01 -0.49795166115E-01  0.78590824876E-01  0.51100000000E-03 0. -1.
         11    1    4    4    0    0  0.43602742583E-01 -0.36728186782E-01 -0.22411079179E-01  0.61259092844E-01  0.51100000000E-03 0.  1.
</event>
<event>
 8    1  0.2928569E+004  0.1043930E+01  0.7957747E-01            NaN
         13   -1    0    0    0    0  0.00000000000E+00  0.00000000000E+00  0.74505805969E-08  0.10566000000E+00  0.10566000000E+00 0. -1.
     999900   -1    0    0    0    0 -0.00000000000E+00 -0.00000000000E+00 -0.74505805969E-08  0.93827000000E+00  0.93827000000E+00 0.  1.
     999902    2    1    2    0    0  0.73429508624E-02  0.94884053362E-02  0.72377188012E-02  0.10299181002E+01  0.10298227807E+01 0.  0.
     999903    2    3    3    0    0 -0.97117082118E-01  0.49236127367E-01  0.75849847916E-01  0.14019937824E+00  0.45240936703E-01 0.  0.
         14    1    1    2    0    0 -0.73429508624E-02 -0.94884053362E-02 -0.72377188012E-02  0.14011899823E-01  0.00000000000E+00 0.  1.
     999901    1    3    3    0    0  0.10446003298E+00 -0.39747722031E-01 -0.68612129115E-01  0.88971872193E+00  0.88000000000E+00 0.  1.
        -11    1    4    4    0    0 -0.45907078162E-01  0.64850068258E-02  0.12083611686E-01  0.47914402128E-01  0.51100000000E-03 0.  1.
         11    1    4    4    0    0 -0.51210003956E-01  0.42751120542E-01  0.63766236230E-01  0.92284976116E-01  0.51100000000E-03 0. -1.
</event>
<event>
 7    1  0.2928569E+004  0.1043930E+01  0.7957747E-01            NaN
         13   -1    0    0    0    0  0.00000000000E+00  0.00000000000E+00  0.74505805969E-08  0.10566000000E+00  0.10566000000E+00 0. -1.
     999900   -1    0    0    0    0 -0.00000000000E+00 -0.00000000000E+00 -0.74505805969E-08  0.93827000000E+00  0.93827000000E+00 0. -1.
     999903    2    1    2    0    0 -0.24824936084E-01 -0.62635888246E-01  0.97180595371E-01  0.12652950260E+00  0.45012386778E-01 0.  0.
         14    1    1    2    0    0  0.17988009608E-03  0.29180588366E-01  0.77508081972E-02  0.30192948216E-01  0.00000000000E+00 0. -1.
     999901    1    1    2    0    0  0.24645055988E-01  0.33455299880E-01 -0.10493140357E+00  0.88720754918E+00  0.88000000000E+00 0. -1.
        -11    1    3    3    0    0 -0.34349967305E-01 -0.62030387917E-01  0.80262387438E-01  0.10709809166E+00  0.51100000000E-03 0.  1.
         11    1    3    3    0    0  0.95250312213E-02 -0.60550032904E-03  0.16918207934E-01  0.19431410940E-01  0.51100000000E-03 0. -1.
</event>
<event>
 8    1  0.2928569E+004  0.1043930E+01  0.7957747E-01            NaN
         13   -1    0    0    0    0  0.00000000000E+00  0.00000000000E+00  0.74505805969E-08  0.10566000000E+00  0.10566000000E+00 0.  1.
     999900   -1    0    0    0    0 -0.00000000000E+00 -0.00000000000E+00 -0.74505805969E-08  0.93827000000E+00  0.93827000000E+00 0.  1.
     999902    2    1    2    0    0  0.64538854082E-03 -0.14397041449E-01  0.48371246967E-02  0.10287283848E+01  0.10286160608E+01 0.  0.
     999903    2    3    3    0    0 -0.75643926856E-03  0.76195504305E-01  0.10626942681E+00  0.13828047147E+00  0.44966327849E-01 0.  0.
         14    1    1    2    0    0 -0.64538854082E-03  0.14397041449E-01 -0.48371246967E-02  0.15201615184E-01  0.00000000000E+00 0. -1.
     999901    1    3    3    0    0  0.14018278094E-02 -0.90592545754E-01 -0.10143230211E+00  0.89044791334E+00  0.88000000000E+00 0.  1.
        -11    1    4    4    0    0 -0.10755567063E-01  0.43357969448E-01  0.89594378986E-01  0.10011498192E+00  0.51100000000E-03 0.  1.
         11    1    4    4    0    0  0.99991277947E-02  0.32837534857E-01  0.16675047820E-01  0.38165489554E-01  0.51100000000E-03 0. -1.
</event>
<event>
 8    1  0.2928569E+004  0.1043930E+01  0.7957747E-01            NaN
         13   -1    0    0    0    0  0.00000000000E+00  0.00000000000E+00  0.74505805969E-08  0.10566000000E+00  0.10566000000E+00 0.  1.
     999900   -1    0    0    0    0 -0.00000000000E+00 -0.00000000000E+00 -0.74505805969E-08  0.93827000000E+00  0.93827000000E+00 0.  1.
     999902    2    1    2    0    0 -0.10861046831E-01  0.31155899714E-02 -0.78324981280E-02  0.10301816450E+01  0.10300899011E+01 0.  0.
     999903    2    3    3    0    0 -0.72942894977E-01  0.10758091388E+00 -0.33475058971E-01  0.14146082227E+00  0.44679589377E-01 0.  0.
         14    1    1    2    0    0  0.10861046831E-01 -0.31155899714E-02  0.78324981280E-02  0.13748355031E-01  0.00000000000E+00 0.  1.
     999901    1    3    3    0    0  0.62081848146E-01 -0.10446532390E+00  0.25642560843E-01  0.88872082270E+00  0.88000000000E+00 0.  1.
        -11    1    4    4    0    0 -0.48738573040E-01  0.49548921716E-01 -0.36506913591E-01  0.78508343545E-01  0.51100000000E-03 0.  1.
         11    1    4    4    0    0 -0.24204321937E-01  0.58031992160E-01  0.30318546208E-02  0.62952478727E-01  0.51100000000E-03 0. -1.
</event>
<event>
 8    1  0.2928569E+004  0.1043930E+01  0.7957747E-01            NaN
         13   -1    0    0    0    0  0.00000000000E+00  0.00000000000E+00  0.74505805969E-08  0.10566000000E+00  0.10566000000E+00 0.  1.
     999900   -1    0    0    0    0 -0.00000000000E+00 -0.00000000000E+00 -0.74505805969E-08  0.93827000000E+00  0.93827000000E+00 0. -1.
     999902    2    1    2    0    0  0.10975849609E-01  0.19341008177E-02  0.80711042359E-02  0.10301694497E+01  0.10300775419E+01 0.  0.
     999903    2    3    3    0    0 -0.58315563222E-01  0.11745467326E+00 -0.16661400321E-01  0.13957526641E+00  0.44803432326E-01 0.  0.
         14    1    1    2    0    0 -0.10975849609E-01 -0.19341008177E-02 -0.80711042359E-02  0.13760550287E-01  0.00000000000E+00 0. -1.
     999901    1    3    3    0    0  0.69291412831E-01 -0.11552057244E+00  0.24732504557E-01  0.89059418330E+00  0.88000000000E+00 0. -1.
        -11    1    4    4    0    0 -0.13750529470E-01  0.44430894153E-01 -0.26383805104E-01  0.53474738978E-01  0.51100000000E-03 0.  1.
         11    1    4    4    0    0 -0.44565033751E-01  0.73023779108E-01  0.97224047827E-02  0.86100527433E-01  0.51100000000E-03 0. -1.
</event>
<event>
 8    1  0.2928569E+004  0.1043930E+01  0.7957747E-01            NaN
         13   -1    0    0    0    0  0.00000000000E+00  0.00000000000E+00  0.74505805969E-08  0.10566000000E+00  0.10566000000E+00 0.  1.
     999900   -1    0    0    0    0 -0.00000000000E+00 -0.00000000000E+00 -0.74505805969E-08  0.93827000000E+00  0.93827000000E+00 0.  1.
     999902    2    1    2    0    0  0.12464876344E-02  0.11871592876E-01  0.51948397690E-02  0.10309117509E+01  0.10308295511E+01 0.  0.
     999903    2    3    3    0    0  0.47634281298E-01  0.71192736917E-01  0.10407440862E+00  0.14217782298E+00  0.45228533865E-01 0.  0.
         14    1    1    2    0    0 -0.12464876344E-02 -0.11871592876E-01 -0.51948397690E-02  0.13018249078E-01  0.00000000000E+00 0. -1.
     999901    1    3    3    0    0 -0.46387793663E-01 -0.59321144040E-01 -0.98879568846E-01  0.88873392794E+00  0.88000000000E+00 0.  1.
        -11    1    4    4    0    0  0.26753947492E-01  0.49671057186E-02  0.33602882879E-01  0.43241885995E-01  0.51100000000E-03 0.  1.
         11    1    4    4    0    0  0.20880333806E-01  0.66225631198E-01  0.70471525736E-01  0.98935936989E-01  0.51100000000E-03 0. -1.
</event>
<event>
 7    1  0.2928569E+004  0.1043930E+01  0.7957747E-01            NaN
         13   -1    0    0    0    0  0.00000000000E+00  0.00000000000E+00  0.74505805969E-08  0.10566000000E+00  0.10566000000E+00 0. -1.
     999900   -1    0    0    0    0 -0.00000000000E+00 -0.00000000000E+00 -0.74505805969E-08  0.93827000000E+00  0.93827000000E+00 0. -1.
     999902    2    1    2    0    0 -0.40688563378E-02 -0.11999520449E-01  0.76216657450E-02  0.10291437269E+01  0.10290375002E+01 0.  0.
         14    1    1    2    0    0  0.40688563378E-02  0.11999520449E-01 -0.76216657450E-02  0.14786273081E-01  0.00000000000E+00 0.  1.
     999901    1    3    3    0    0  0.13273859375E-01 -0.10219902995E+00  0.91637449371E-01  0.89074028717E+00  0.88000000000E+00 0.  1.
        -11    1    3    3    0    0 -0.24818061104E-01  0.59153178107E-01 -0.20561884523E-01  0.67365323819E-01  0.51100000000E-03 0. -1.
         11    1    3    3    0    0  0.74753453910E-02  0.31046331399E-01 -0.63453899103E-01  0.71038115927E-01  0.51100000000E-03 0.  1.
</event>
<event>
 8    1  0.2928569E+004  0.1043930E+01  0.7957747E-01            NaN
         13   -1    0    0    0    0  0.00000000000E+00  0.00000000000E+00  0.74505805969E-08  0.10566000000E+00  0.10566000000E+00 0. -1.
     999900   -1    0    0    0    0 -0.00000000000E+00 -0.00000000000E+00 -0.74505805969E-08  0.93827000000E+00  0.93827000000E+00 0.  1.
     999902    2    1    2    0    0 -0.12643050252E-01 -0.74810517781E-02  0.10920114551E-02  0.10291988987E+01  0.10290934689E+01 0.  0.
     999903    2    3    3    0    0  0.75131765431E-01 -0.13337564801E-01 -0.10613649539E+00  0.13833601945E+00  0.45268375405E-01 0.  0.
         14    1    1    2    0    0  0.12643050252E-01  0.74810517781E-02 -0.10920114551E-02  0.14731101262E-01  0.00000000000E+00 0.  1.
     999901    1    3    3    0    0 -0.87774815683E-01  0.58565130228E-02  0.10722850685E+00  0.89086287929E+00  0.88000000000E+00 0.  1.
        -11    1    4    4    0    0  0.46885392123E-01 -0.16610685165E-01 -0.96038714104E-01  0.10815660213E+00  0.51100000000E-03 0.  1.
         11    1    4    4    0    0  0.28246373308E-01  0.32731203640E-02 -0.10097781287E-01  0.30179417322E-01  0.51100000000E-03 0. -1.
</event>
<event>
 7    1  0.2928569E+004  0.1043930E+01  0.7957747E-01            NaN
         13   -1    0    0    0    0  0.00000000000E+00  0.00000000000E+00  0.74505805969E-08  0.10566000000E+00  0.10566000000E+00 0.  1.
     999900   -1    0    0    0    0 -0.00000000000E+00 -0.00000000000E+00 -0.74505805969E-08  0.93827000000E+00  0.93827000000E+00 0. -1.
     999903    2    1    2    0    0 -0.10896991491E+00  0.17072903804E-01 -0.30267771638E-01  0.12265367750E+00  0.44292891122E-01 0.  0.
         14    1    1    2    0    0  0.12155146642E-02 -0.27509272652E-01 -0.18708986824E-01  0.33290595454E-01  0.00000000000E+00 0. -1.
     999901    1    1    2    0    0  0.10775440025E+00  0.10436368848E-01  0.48976758462E-01  0.88798572705E+00  0.88000000000E+00 0. -1.
        -11    1    3    3    0    0 -0.11076777624E-01 -0.69094238490E-02  0.74478801311E-02  0.15038855671E-01  0.51100000000E-03 0.  1.
         11    1    3    3    0    0 -0.97893137289E-01  0.23982327653E-01 -0.37715651769E-01  0.10761482183E+00  0.51100000000E-03 0. -1.
</event>
<event>
 8    1  0.2928569E+004  0.1043930E+01  0.7957747E-01            NaN
         13   -1    0    0    0    0  0.00000000000E+00  0.00000000000E+00  0.74505805969E-08  0.10566000000E+00  0.10566000000E+00 0.  1.
     999900   -1    0    0    0    0 -0.00000000000E+00 -0.00000000000E+00 -0.74505805969E-08  0.93827000000E+00  0.93827000000E+00 0. -1.
     999902    2    1    2    0    0 -0.13200175000E-01  0.28777625531E-02 -0.20058421348E-02  0.10302716860E+01  0.10301811479E+01 0.  0.
     999903    2    3    3    0    0  0.98325519593E-01  0.32239234279E-01  0.80977246443E-01  0.13887599974E+00  0.44966129835E-01 0.  0.
         14    1    1    2    0    0  0.13200175000E-01 -0.28777625531E-02  0.20058421348E-02  0.13658313952E-01  0.00000000000E+00 0. -1.
     999901    1    3    3    0    0 -0.11152569459E+00 -0.29361471726E-01 -0.82983088578E-01  0.89139568631E+00  0.88000000000E+00 0. -1.
        -11    1    4    4    0    0  0.71558499892E-01  0.85146018185E-03  0.51934519560E-01  0.88423974883E-01  0.51100000000E-03 0. -1.
         11    1    4    4    0    0  0.26767019702E-01  0.31387774097E-01  0.29042726883E-01  0.50452024858E-01  0.51100000000E-03 0.  1.
</event>
<event>
 8    1  0.2928569E+004  0.1043930E+01  0.7957747E-01            NaN
         13   -1    0    0    0    0  0.00000000000E+00  0.00000000000E+00  0.74505805969E-08  0.10566000000E+00  0.10566000000E+00 0.  1.
     999900   -1    0    0    0    0 -0.00000000000E+00 -0.00000000000E+00 -0.74505805969E-08  0.93827000000E+00  0.93827000000E+00 0.  1.
     999902    2    1    2    0    0  0.14834683354E-01  0.11604607064E-02  0.44406541198E-02  0.10284015130E+01  0.10282842691E+01 0.  0.
     999903    2    3    3    0    0  0.12393384550E+00 -0.44755811973E-01 -0.18428552594E-01  0.14018198390E+00  0.44144040283E-01 0.  0.
         14    1    1    2    0    0 -0.14834683354E-01 -0.11604607064E-02 -0.44406541198E-02  0.15528486993E-01  0.00000000000E+00 0. -1.
     999901    1    3    3    0    0 -0.10909916215E+00  0.45916272680E-01  0.22869206714E-01  0.88821952911E+00  0.88000000000E+00 0.  1.
        -11    1    4    4    0    0  0.84076059545E-01 -0.29961610956E-01  0.88052413477E-02  0.89689884134E-01  0.51100000000E-03 0.  1.
         11    1    4    4    0    0  0.39857785955E-01 -0.14794201017E-01 -0.27233793942E-01  0.50492099763E-01  0.51100000000E-03 0. -1.
</event>
<event>
 8    1  0.2928569E+004  0.1043930E+01  0.7957747E-01            NaN
         13   -1    0    0    0    0  0.00000000000E+00  0.00000000000E+00  0.74505805969E-08  0.10566000000E+00  0.10566000000E+00 0.  1.
     999900   -1    0    0    0    0 -0.00000000000E+00 -0.00000000000E+00 -0.74505805969E-08  0.93827000000E+00  0.93827000000E+00 0.  1.
     999902    2    1    2    0    0 -0.21499438975E-02 -0.11230338138E-01 -0.11369479969E-01  0.10278052418E+01  0.10276787471E+01 0.  0.
     999903    2    3    3    0    0 -0.12103750241E+00 -0.48304801954E-01 -0.18779657276E-01  0.13900623289E+00  0.44571587075E-01 0.  0.
         14    1    1    2    0    0  0.21499438975E-02  0.11230338138E-01  0.11369479969E-01  0.16124758238E-01  0.00000000000E+00 0.  1.
     999901    1    3    3    0    0  0.11888755851E+00  0.37074463816E-01  0.74101773070E-02  0.88879900887E+00  0.88000000000E+00 0. -1.
        -11    1    4    4    0    0 -0.10016357210E+00 -0.36306124747E-01  0.29315832793E-02  0.10658203963E+00  0.51100000000E-03 0. -1.
         11    1    4    4    0    0 -0.20873930306E-01 -0.11998677207E-01 -0.21711240555E-01  0.32424193261E-01  0.51100000000E-03 0.  1.
</event>
<event>
 7    1  0.2928569E+004  0.1043930E+01  0.7957747E-01            NaN
         13   -1    0    0    0    0  0.00000000000E+00  0.00000000000E+00  0.74505805969E-08  0.10566000000E+00  0.10566000000E+00 0.  1.
     999900   -1    0    0    0    0 -0.00000000000E+00 -0.00000000000E+00 -0.74505805969E-08  0.93827000000E+00  0.93827000000E+00 0. -1.
     999903    2    1    2    0    0  0.86237625742E-01  0.63891185999E-01 -0.17547478557E-01  0.11802083600E+00  0.45847486133E-01 0.  0.
         14    1    1    2    0    0 -0.61879397496E-02  0.28234723038E-01  0.23834166800E-01  0.37464085341E-01  0.00000000000E+00 0.  1.
     999901    1    1    2    0    0 -0.80049685993E-01 -0.92125909037E-01 -0.62866882422E-02  0.88844507866E+00  0.88000000000E+00 0. -1.
        -11    1    3    3    0    0  0.49150420158E-01  0.12360709430E-01  0.43256034658E-02  0.50867700024E-01  0.51100000000E-03 0.  1.
         11    1    3    3    0    0  0.37087205584E-01  0.51530476568E-01 -0.21873082023E-01  0.67153135977E-01  0.51100000000E-03 0. -1.
</event>
<event>
 8    1  0.2928569E+004  0.1043930E+01  0.7957747E-01            NaN
         13   -1    0    0    0    0  0.00000000000E+00  0.00000000000E+00  0.74505805969E-08  0.10566000000E+00  0.10566000000E+00 0. -1.
     999900   -1    0    0    0    0 -0.00000000000E+00 -0.00000000000E+00 -0.74505805969E-08  0.93827000000E+00  0.93827000000E+00 0. -1.
     999902    2    1    2    0    0  0.24240877636E-02 -0.69923913099E-02  0.12973840474E-01  0.10289937932E+01  0.10288853853E+01 0.  0.
     999903    2    3    3    0    0 -0.11507704705E+00  0.65779841546E-02 -0.61405712951E-01  0.13797023022E+00  0.44487371354E-01 0.  0.
         14    1    1    2    0    0 -0.24240877636E-02  0.69923913099E-02 -0.12973840474E-01  0.14936206826E-01  0.00000000000E+00 0.  1.
     999901    1    3    3    0    0  0.11750113481E+00 -0.13570375464E-01  0.74379553425E-01  0.89102356295E+00  0.88000000000E+00 0. -1.
        -11    1    4    4    0    0 -0.79169541938E-01  0.19212877278E-01 -0.24807653654E-01  0.85162385035E-01  0.51100000000E-03 0.  1.
         11    1    4    4    0    0 -0.35907505113E-01 -0.12634893123E-01 -0.36598059297E-01  0.52807845184E-01  0.51100000000E-03 0. -1.
</event>
<event>
 8    1  0.2928569E+004  0.1043930E+01  0.7957747E-01            NaN
         13   -1    0    0    0    0  0.00000000000E+00  0.00000000000E+00  0.74505805969E-08  0.10566000000E+00  0.10566000000E+00 0. -1.
     999900   -1    0    0    0    0 -0.00000000000E+00 -0.00000000000E+00 -0.74505805969E-08  0.93827000000E+00  0.93827000000E+00 0.  1.
     999902    2    1    2    0    0  0.21468822633E-03 -0.13641127093E-01  0.34664567322E-02  0.10298536808E+01  0.10297574769E+01 0.  0.
     999903    2    3    3    0    0 -0.94469868445E-01  0.88275955984E-01 -0.21429460727E-01  0.13857815451E+00  0.45027576784E-01 0.  0.
         14    1    1    2    0    0 -0.21468822633E-03  0.13641127093E-01 -0.34664567322E-02  0.14076319181E-01  0.00000000000E+00 0. -1.
     999901    1    3    3    0    0  0.94684556671E-01 -0.10191708308E+00  0.24895917459E-01  0.89127552631E+00  0.88000000000E+00 0. -1.
        -11    1    4    4    0    0 -0.43660646579E-01  0.57630120748E-01 -0.30643873853E-01  0.78528918259E-01  0.51100000000E-03 0. -1.
         11    1    4    4    0    0 -0.50809221865E-01  0.30645835236E-01  0.92144131263E-02  0.60049236249E-01  0.51100000000E-03 0.  1.
</event>
<event>
 8    1  0.2928569E+004  0.1043930E+01  0.7957747E-01            NaN
         13   -1    0    0    0    0  0.00000000000E+00  0.00000000000E+00  0.74505805969E-08  0.10566000000E+00  0.10566000000E+00 0.  1.
     999900   -1    0    0    0    0 -0.00000000000E+00 -0.00000000000E+00 -0.74505805969E-08  0.93827000000E+00  0.93827000000E+00 0.  1.
     999902    2    1    2    0    0 -0.11640080618E-01 -0.50377720989E-02 -0.46989051050E-02  0.10304040866E+01  0.10303153067E+01 0.  0.
     999903    2    3    3    0    0  0.91739034169E-01 -0.91238477843E-01 -0.29423186885E-01  0.13982613202E+00  0.44103435697E-01 0.  0.
         14    1    1    2    0    0  0.11640080618E-01  0.50377720989E-02  0.46989051050E-02  0.13525913414E-01  0.00000000000E+00 0. -1.
     999901    1    3    3    0    0 -0.10337911479E+00  0.86200705744E-01  0.24724281780E-01  0.89057795456E+00  0.88000000000E+00 0.  1.
        -11    1    4    4    0    0  0.20333157682E-01 -0.30655557345E-01 -0.27894453531E-01  0.46168843999E-01  0.51100000000E-03 0. -1.
         11    1    4    4    0    0  0.71405876488E-01 -0.60582920498E-01 -0.15287333538E-02  0.93657288023E-01  0.51100000000E-03 0.  1.
</event>
<event>
 8    1  0.2928569E+004  0.1043930E+01  0.7957747E-01            NaN
         13   -1    0    0    0    0  0.00000000000E+00  0.00000000000E+00  0.74505805969E-08  0.10566000000E+00  0.10566000000E+00 0. -1.
     999900   -1    0    0    0    0 -0.00000000000E+00 -0.00000000000E+00 -0.74505805969E-08  0.93827000000E+00  0.93827000000E+00 0.  1.
     999902    2    1    2    0    0 -0.49495484854E-02  0.26609421088E-02 -0.11528887970E-01  0.10311044824E+01  0.10310247135E+01 0.  0.
     999903    2    3    3    0    0 -0.68390087211E-01 -0.10275537829E+00  0.50185948374E-01  0.14040474426E+00  0.44260490277E-01 0.  0.
         14    1    1    2    0    0  0.49495484854E-02 -0.26609421088E-02  0.11528887970E-01  0.12825517570E-01  0.00000000000E+00 0. -1.
     999901    1    3    3    0    0  0.63440538725E-01  0.10541632040E+00 -0.61714836344E-01  0.89069973817E+00  0.88000000000E+00 0.  1.
        -11    1    4    4    0    0 -0.40543713402E-01 -0.23205284066E-01  0.14952762940E-01  0.49052259332E-01  0.51100000000E-03 0.  1.
         11    1    4    4    0    0 -0.27846373809E-01 -0.79550094221E-01  0.35233185435E-01  0.91352484924E-01  0.51100000000E-03 0. -1.
</event>
<event>
 8    1  0.2928569E+004  0.1043930E+01  0.7957747E-01            NaN
         13   -1    0    0    0    0  0.00000000000E+00  0.00000000000E+00  0.74505805969E-08  0.10566000000E+00  0.10566000000E+00 0. -1.
     999900   -1    0    0    0    0 -0.00000000000E+00 -0.00000000000E+00 -0.74505805969E-08  0.93827000000E+00  0.93827000000E+00 0.  1.
     999902    2    1    2    0    0 -0.13156429535E-01 -0.30229221943E-02  0.62499679892E-05  0.10304307505E+01  0.10303423227E+01 0.  0.
     999903    2    3    3    0    0 -0.74183378633E-02 -0.12674959335E+00 -0.41428796333E-01  0.14079145403E+00  0.44557796308E-01 0.  0.
         14    1    1    2    0    0  0.13156429535E-01  0.30229221943E-02 -0.62499679892E-05  0.13499249452E-01  0.00000000000E+00 0. -1.
     999901    1    3    3    0    0 -0.57380916721E-02  0.12372667115E+00  0.41435046301E-01  0.88963929652E+00  0.88000000000E+00 0.  1.
        -11    1    4    4    0    0 -0.16430603395E-01 -0.16451999881E-01 -0.12513670846E-01  0.26409962269E-01  0.51100000000E-03 0. -1.
         11    1    4    4    0    0  0.90122655314E-02 -0.11029759347E+00 -0.28915125487E-01  0.11438149176E+00  0.51100000000E-03 0.  1.
</event>
<event>
 8    1  0.2928569E+004  0.1043930E+01  0.7957747E-01            NaN
         13   -1    0    0    0    0  0.00000000000E+00  0.00000000000E+00  0.74505805969E-08  0.10566000000E+00  0.10566000000E+00 0.  1.
     999900   -1    0    0    0    0 -0.00000000000E+00 -0.00000000000E+00 -0.74505805969E-08  0.93827000000E+00  0.93827000000E+00 0.  1.
     999902    2    1    2    0    0 -0.43558480649E-02  0.71262843097E-02  0.12484690253E-01  0.10289091867E+01  0.10287995382E+01 0.  0.
     999903    2    3    3    0    0 -0.10168846301E+00 -0.47351553424E-01  0.70139828233E-01  0.13999659954E+00  0.45790165514E-01 0.  0.
         14    1    1    2    0    0  0.43558480649E-02 -0.71262843097E-02 -0.12484690253E-01  0.15020813265E-01  0.00000000000E+00 0. -1.
     999901    1    3    3    0    0  0.97332614944E-01  0.54477837733E-01 -0.57655137979E-01  0.88891258719E+00  0.88000000000E+00 0.  1.
        -11    1    4    4    0    0 -0.24779114469E-02  0.73007784773E-02  0.27787113409E-02  0.82111977951E-02  0.51100000000E-03 0.  1.
         11    1    4    4    0    0 -0.99210551562E-01 -0.54652331901E-01  0.67361116892E-01  0.13178540175E+00  0.51100000000E-03 0. -1.
</event>
<event>
 8    1  0.2928569E+004  0.1043930E+01  0.7957747E-01            NaN
         13   -1    0    0    0    0  0.00000000000E+00  0.00000000000E+00  0.74505805969E-08  0.10566000000E+00  0.10566000000E+00 0.  1.
     999900   -1    0    0    0    0 -0.00000000000E+00 -0.00000000000E+00 -0.74505805969E-08  0.93827000000E+00  0.93827000000E+00 0.  1.
     999902    2    1    2    0    0 -0.22806988136E-01 -0.29714096172E-02 -0.14771385021E-01  0.10165953736E+01  0.10162278150E+01 0.  0.
     999903    2    3    3    0    0 -0.10953412281E+00  0.49657283915E-01 -0.25295948648E-01  0.13070478123E+00  0.44500392276E-01 0.  0.
         14    1    1    2    0    0  0.22806988136E-01  0.29714096172E-02  0.14771385021E-01  0.27334626363E-01  0.00000000000E+00 0. -1.
     999901    1    3    3    0    0  0.86727134676E-01 -0.52628693533E-01  0.10524563626E-01  0.88589059240E+00  0.88000000000E+00 0.  1.
        -11    1    4    4    0    0 -0.57044788644E-01  0.44395723205E-01 -0.20456811961E-03  0.72286866853E-01  0.51100000000E-03 0. -1.
         11    1    4    4    0    0 -0.52489334168E-01  0.52615607107E-02 -0.25091380528E-01  0.58417914379E-01  0.51100000000E-03 0.  1.
</event>
<event>
 8    1  0.2928569E+004  0.1043930E+01  0.7957747E-01            NaN
         13   -1    0    0    0    0  0.00000000000E+00  0.00000000000E+00  0.74505805969E-08  0.10566000000E+00  0.10566000000E+00 0. -1.
     999900   -1    0    0    0    0 -0.00000000000E+00 -0.00000000000E+00 -0.74505805969E-08  0.93827000000E+00  0.93827000000E+00 0. -1.
     999902    2    1    2    0    0  0.11611398796E-01  0.46013511716E-02  0.65741711359E-02  0.10298155839E+01  0.10297188549E+01 0.  0.
     999903    2    3    3    0    0 -0.72075749809E-01  0.10814763782E+00 -0.23896478378E-01  0.13927988404E+00  0.44011579619E-01 0.  0.
         14    1    1    2    0    0 -0.11611398796E-01 -0.46013511716E-02 -0.65741711359E-02  0.14114416061E-01  0.00000000000E+00 0. -1.
     999901    1    3    3    0    0  0.83687148605E-01 -0.10354628665E+00  0.30470649514E-01  0.89053569990E+00  0.88000000000E+00 0. -1.
        -11    1    4    4    0    0 -0.65168809457E-01  0.84151322738E-01 -0.26173762366E-02  0.10646844896E+00  0.51100000000E-03 0. -1.
         11    1    4    4    0    0 -0.69069403517E-02  0.23996315087E-01 -0.21279102141E-01  0.32811435075E-01  0.51100000000E-03 0.  1.
</event>
<event>
 8    1  0.2928569E+004  0.1043930E+01  0.7957747E-01            NaN
         13   -1    0    0    0    0  0.00000000000E+00  0.00000000000E+00  0.74505805969E-08  0.10566000000E+00  0.10566000000E+00 0.  1.
     999900   -1    0    0    0    0 -0.00000000000E+00 -0.00000000000E+00 -0.74505805969E-08  0.93827000000E+00  0.93827000000E+00 0. -1.
     999902    2    1    2    0    0  0.33947845334E-02 -0.83383382515E-02 -0.98250753399E-02  0.10306039146E+01  0.10305177554E+01 0.  0.
     999903    2    3    3    0    0  0.79994829577E-01  0.56759408600E-01 -0.91229983464E-01  0.14114787711E+00  0.44486066434E-01 0.  0.
         14    1    1    2    0    0 -0.33947845334E-02  0.83383382515E-02  0.98250753399E-02  0.13326085406E-01  0.00000000000E+00 0.  1.
     999901    1    3    3    0    0 -0.76600045043E-01 -0.65097746851E-01  0.81404908124E-01  0.88945603748E+00  0.88000000000E+00 0.  1.
        -11    1    4    4    0    0  0.57567036884E-01  0.29546051790E-01 -0.82437336081E-01  0.10480032640E+00  0.51100000000E-03 0.  1.
         11    1    4    4    0    0  0.22427792693E-01  0.27213356809E-01 -0.87926473830E-02  0.36347550714E-01  0.51100000000E-03 0. -1.
</event>
<event>
 8    1  0.2928569E+004  0.1043930E+01  0.7957747E-01            NaN
         13   -1    0    0    0    0  0.00000000000E+00  0.00000000000E+00  0.74505805969E-08  0.10566000000E+00  0.10566000000E+00 0.  1.
     999900   -1    0    0    0    0 -0.00000000000E+00 -0.00000000000E+00 -0.74505805969E-08  0.93827000000E+00  0.93827000000E+00 0. -1.
     999902    2    1    2    0    0 -0.65921228434E-02 -0.10369733102E-01  0.73326142407E-02  0.10296207485E+01  0.10295213116E+01 0.  0.
     999903    2    3    3    0    0 -0.15021445370E-01  0.16997911608E-01  0.13084768850E+00  0.14053356768E+00  0.45978182207E-01 0.  0.
         14    1    1    2    0    0  0.65921228434E-02  0.10369733102E-01 -0.73326142407E-02  0.14309251545E-01  0.00000000000E+00 0. -1.
     999901    1    3    3    0    0  0.84293225261E-02 -0.27367644710E-01 -0.12351507426E+00  0.88908718078E+00  0.88000000000E+00 0. -1.
        -11    1    4    4    0    0 -0.21898847858E-02  0.63426248013E-02  0.12094022792E+00  0.12112730632E+00  0.51100000000E-03 0. -1.
         11    1    4    4    0    0 -0.12831560584E-01  0.10655286807E-01  0.99074605754E-02  0.19406261361E-01  0.51100000000E-03 0.  1.
</event>
<event>
 8    1  0.2928569E+004  0.1043930E+01  0.7957747E-01            NaN
         13   -1    0    0    0    0  0.00000000000E+00  0.00000000000E+00  0.74505805969E-08  0.10566000000E+00  0.10566000000E+00 0.  1.
     999900   -1    0    0    0    0 -0.00000000000E+00 -0.00000000000E+00 -0.74505805969E-08  0.93827000000E+00  0.93827000000E+00 0.  1.
     999902    2    1    2    0    0 -0.72360155943E-03 -0.59382561280E-02  0.12483304531E-01  0.10300873349E+01  0.10299943195E+01 0.  0.
     999903    2    3    3    0    0  0.90887341848E-01  0.93468253547E-01 -0.19001312370E-01  0.13920827452E+00  0.44956317625E-01 0.  0.
         14    1    1    2    0    0  0.72360155943E-03  0.59382561280E-02 -0.12483304531E-01  0.13842665100E-01  0.00000000000E+00 0. -1.
     999901    1    3    3    0    0 -0.91610943407E-01 -0.99406509675E-01  0.31484616901E-01  0.89087906038E+00  0.88000000000E+00 0. -1.
        -11    1    4    4    0    0  0.90554614718E-01  0.70160823843E-01 -0.14616252995E-01  0.11548409164E+00  0.51100000000E-03 0. -1.
         11    1    4    4    0    0  0.33272712983E-03  0.23307429705E-01 -0.43850593749E-02  0.23724182884E-01  0.51100000000E-03 0.  1.
</event>
<event>
 8    1  0.2928569E+004  0.1043930E+01  0.7957747E-01            NaN
         13   -1    0    0    0    0  0.00000000000E+00  0.00000000000E+00  0.74505805969E-08  0.10566000000E+00  0.10566000000E+00 0.  1.
     999900   -1    0    0    0    0 -0.00000000000E+00 -0.00000000000E+00 -0.74505805969E-08  0.93827000000E+00  0.93827000000E+00 0.  1.
     999902    2    1    2    0    0 -0.13233686329E-01  0.29930913374E-02  0.25617851165E-02  0.10301223285E+01  0.10300297859E+01 0.  0.
     999903    2    3    3    0    0  0.12510479325E+00 -0.32026040210E-01  0.20673365839E-01  0.13844306784E+00  0.45411655246E-01 0.  0.
         14    1    1    2    0    0  0.13233686329E-01 -0.29930913374E-02 -0.25617851165E-02  0.13807671512E-01  0.00000000000E+00 0. -1.
     999901    1    3    3    0    0 -0.13833847958E+00  0.35019131547E-01 -0.18111580722E-01  0.89167926064E+00  0.88000000000E+00 0. -1.
        -11    1    4    4    0    0  0.58130765605E-01 -0.35636034266E-01 -0.23454303929E-03  0.68186721431E-01  0.51100000000E-03 0.  1.
         11    1    4    4    0    0  0.66974027649E-01  0.36099940564E-02  0.20907908878E-01  0.70256346413E-01  0.51100000000E-03 0. -1.
</event>
<event>
 8    1  0.2928569E+004  0.1043930E+01  0.7957747E-01            NaN
         13   -1    0    0    0    0  0.00000000000E+00  0.00000000000E+00  0.74505805969E-08  0.10566000000E+00  0.10566000000E+00 0. -1.
     999900   -1    0    0    0    0 -0.00000000000E+00 -0.00000000000E+00 -0.74505805969E-08  0.93827000000E+00  0.93827000000E+00 0.  1.
     999902    2    1    2    0    0 -0.40654760033E-02  0.75281908674E-02  0.84576133038E-02  0.10318994981E+01  0.10318293663E+01 0.  0.
     999903    2    3    3    0    0  0.40903760980E-01 -0.18411137580E-01 -0.12828842698E+00  0.13982631694E+00  0.32884506410E-01 0.  0.
         14    1    1    2    0    0  0.40654760033E-02 -0.75281908674E-02 -0.84576133038E-02  0.12030501888E-01  0.00000000000E+00 0.  1.
     999901    1    3    3    0    0 -0.44969236983E-01  0.25939328447E-01  0.13674604029E+00  0.89207318117E+00  0.88000000000E+00 0. -1.
        -11    1    4    4    0    0  0.37898271081E-01 -0.19812767047E-01 -0.12940566660E+00  0.13628981018E+00  0.51100000000E-03 0.  1.
         11    1    4    4    0    0  0.30054898987E-02  0.14016294675E-02  0.11172396194E-02  0.35365067599E-02  0.51100000000E-03 0. -1.
</event>
<event>
 8    1  0.2928569E+004  0.1043930E+01  0.7957747E-01            NaN
         13   -1    0    0    0    0  0.00000000000E+00  0.00000000000E+00  0.74505805969E-08  0.10566000000E+00  0.10566000000E+00 0. -1.
     999900   -1    0    0    0    0 -0.00000000000E+00 -0.00000000000E+00 -0.74505805969E-08  0.93827000000E+00  0.93827000000E+00 0. -1.
     999902    2    1    2    0    0  0.92941531296E-02  0.74830556665E-02 -0.70673437659E-02  0.10300618800E+01  0.10299685198E+01 0.  0.
     999903    2    3    3    0    0 -0.11062676490E+00 -0.68117174451E-01 -0.85024424518E-02  0.13871543731E+00  0.47869097069E-01 0.  0.
         14    1    1    2    0    0 -0.92941531296E-02 -0.74830556665E-02  0.70673437659E-02  0.13868120003E-01  0.00000000000E+00 0. -1.
     999901    1    3    3    0    0  0.11992091803E+00  0.75600230117E-01  0.14350986859E-02  0.89134644268E+00  0.88000000000E+00 0. -1.
        -11    1    4    4    0    0 -0.10190833515E+00 -0.70344210034E-01  0.32892878840E-02  0.12387371470E+00  0.51100000000E-03 0.  1.
         11    1    4    4    0    0 -0.87184297530E-02  0.22270355833E-02 -0.11791730336E-01  0.14841722614E-01  0.51100000000E-03 0. -1.
</event>
<event>
 8    1  0.2928569E+004  0.1043930E+01  0.7957747E-01            NaN
         13   -1    0    0    0    0  0.00000000000E+00  0.00000000000E+00  0.74505805969E-08  0.10566000000E+00  0.10566000000E+00 0.  1.
     999900   -1    0    0    0    0 -0.00000000000E+00 -0.00000000000E+00 -0.74505805969E-08  0.93827000000E+00  0.93827000000E+00 0.  1.
     999902    2    1    2    0    0  0.97536825961E-02 -0.67234775879E-02  0.75434930878E-02  0.10298856501E+01  0.10297898857E+01 0.  0.
     999903    2    3    3    0    0 -0.19741269253E-01  0.57696414780E-01 -0.11591892351E+00  0.13844701342E+00  0.44852923065E-01 0.  0.
         14    1    1    2    0    0 -0.97536825961E-02  0.67234775879E-02 -0.75434930878E-02  0.14044349861E-01  0.00000000000E+00 0.  1.
     999901    1    3    3    0    0  0.29494951849E-01 -0.64419892368E-01  0.12346241660E+00  0.89143863672E+00  0.88000000000E+00 0. -1.
        -11    1    4    4    0    0 -0.33861975432E-01  0.46391850415E-01 -0.91929761878E-01  0.10839824447E+00  0.51100000000E-03 0.  1.
         11    1    4    4    0    0  0.14120706179E-01  0.11304564365E-01 -0.23989161633E-01  0.30048768949E-01  0.51100000000E-03 0. -1.
</event>
<event>
 8    1  0.2928569E+004  0.1043930E+01  0.7957747E-01            NaN
         13   -1    0    0    0    0  0.00000000000E+00  0.00000000000E+00  0.74505805969E-08  0.10566000000E+00  0.10566000000E+00 0.  1.
     999900   -1    0    0    0    0 -0.00000000000E+00 -0.00000000000E+00 -0.74505805969E-08  0.93827000000E+00  0.93827000000E+00 0. -1.
     999902    2    1    2    0    0 -0.23748882051E-02  0.10535157409E-01 -0.16536915890E-02  0.10330046015E+01  0.10329468246E+01 0.  0.
     999903    2    3    3    0    0  0.20819086465E-01 -0.97703028646E-01 -0.89935858805E-01  0.14168692168E+00  0.44804117095E-01 0.  0.
         14    1    1    2    0    0  0.23748882051E-02 -0.10535157409E-01  0.16536915890E-02  0.10925398459E-01  0.00000000000E+00 0.  1.
     999901    1    3    3    0    0 -0.23193974670E-01  0.10823818605E+00  0.88282167217E-01  0.89131767986E+00  0.88000000000E+00 0.  1.
        -11    1    4    4    0    0  0.31674468934E-01 -0.51431485053E-01 -0.38390063291E-01  0.71571836064E-01  0.51100000000E-03 0.  1.
         11    1    4    4    0    0 -0.10855382469E-01 -0.46271543593E-01 -0.51545795514E-01  0.70115085618E-01  0.51100000000E-03 0. -1.
</event>
<event>
 8    1  0.2928569E+004  0.1043930E+01  0.7957747E-01            NaN
         13   -1    0    0    0    0  0.00000000000E+00  0.00000000000E+00  0.74505805969E-08  0.10566000000E+00  0.10566000000E+00 0. -1.
     999900   -1    0    0    0    0 -0.00000000000E+00 -0.00000000000E+00 -0.74505805969E-08  0.93827000000E+00  0.93827000000E+00 0. -1.
     999902    2    1    2    0    0  0.11726022423E-01  0.24382732115E-02 -0.47604948760E-02  0.10310417461E+01  0.10309611899E+01 0.  0.
     999903    2    3    3    0    0 -0.60001108629E-01  0.11887093304E+00 -0.75836447538E-02  0.14047489524E+00  0.44105019745E-01 0.  0.
         14    1    1    2    0    0 -0.11726022423E-01 -0.24382732115E-02  0.47604948760E-02  0.12888253939E-01  0.00000000000E+00 0. -1.
     999901    1    3    3    0    0  0.71727131052E-01 -0.11643265983E+00  0.28231498778E-02  0.89056685082E+00  0.88000000000E+00 0. -1.
        -11    1    4    4    0    0 -0.15628592227E-01  0.78956100122E-01 -0.18007947539E-02  0.80509767260E-01  0.51100000000E-03 0.  1.
         11    1    4    4    0    0 -0.44372516401E-01  0.39914832918E-01 -0.57828499999E-02  0.59965127981E-01  0.51100000000E-03 0. -1.
</event>
<event>
 8    1  0.2928569E+004  0.1043930E+01  0.7957747E-01            NaN
         13   -1    0    0    0    0  0.00000000000E+00  0.00000000000E+00  0.74505805969E-08  0.10566000000E+00  0.10566000000E+00 0.  1.
     999900   -1    0    0    0    0 -0.00000000000E+00 -0.00000000000E+00 -0.74505805969E-08  0.93827000000E+00  0.93827000000E+00 0.  1.
     999902    2    1    2    0    0  0.15419257070E-02  0.12747567562E-01  0.88534478106E-02  0.10283331557E+01  0.10282148694E+01 0.  0.
     999903    2    3    3    0    0  0.31732941694E-01  0.17610692879E-01  0.12721424803E+00  0.13988257945E+00  0.45459377887E-01 0.  0.
         14    1    1    2    0    0 -0.15419257070E-02 -0.12747567562E-01 -0.88534478106E-02  0.15596844289E-01  0.00000000000E+00 0. -1.
     999901    1    3    3    0    0 -0.30191015987E-01 -0.48631253171E-02 -0.11836080022E+00  0.88845057626E+00  0.88000000000E+00 0.  1.
        -11    1    4    4    0    0  0.28304899172E-01  0.32153284464E-01  0.86906087727E-01  0.96891332038E-01  0.51100000000E-03 0. -1.
         11    1    4    4    0    0  0.34280425216E-02 -0.14542591585E-01  0.40308160306E-01  0.42991247410E-01  0.51100000000E-03 0.  1.
</event>
<event>
 8    1  0.2928569E+004  0.1043930E+01  0.7957747E-01            NaN
         13   -1    0    0    0    0  0.00000000000E+00  0.00000000000E+00  0.74505805969E-08  0.10566000000E+00  0.10566000000E+00 0.  1.
     999900   -1    0    0    0    0 -0.00000000000E+00 -0.00000000000E+00 -0.74505805969E-08  0.93827000000E+00  0.93827000000E+00 0. -1.
     999902    2    1    2    0    0 -0.85916318498E-02  0.10578556668E-01  0.22811629145E-02  0.10301124133E+01  0.10300197368E+01 0.  0.
     999903    2    3    3    0    0 -0.59950182301E-01 -0.10878296900E+00 -0.44497973213E-01  0.13934130793E+00  0.44812629635E-01 0.  0.
         14    1    1    2    0    0  0.85916318498E-02 -0.10578556668E-01 -0.22811629145E-02  0.13817586738E-01  0.00000000000E+00 0. -1.
     999901    1    3    3    0    0  0.51358550451E-01  0.11936152566E+00  0.46779136128E-01  0.89077110533E+00  0.88000000000E+00 0.  1.
        -11    1    4    4    0    0 -0.66114776674E-01 -0.92618701485E-01 -0.44059811263E-01  0.12202833953E+00  0.51100000000E-03 0.  1.
         11    1    4    4    0    0  0.61645943729E-02 -0.16164267510E-01 -0.43816195028E-03  0.17312968400E-01  0.51100000000E-03 0. -1.
</event>
<event>
 8    1  0.2928569E+004  0.1043930E+01  0.7957747E-01            NaN
         13   -1    0    0    0    0  0.00000000000E+00  0.00000000000E+00  0.74505805969E-08  0.10566000000E+00  0.10566000000E+00 0. -1.
     999900   -1    0    0    0    0 -0.00000000000E+00 -0.00000000000E+00 -0.74505805969E-08  0.93827000000E+00  0.93827000000E+00 0. -1.
     999902    2    1    2    0    0 -0.99055788100E-04 -0.13794982189E-01  0.15556870194E-02  0.10300472226E+01  0.10299536637E+01 0.  0.
     999903    2    3    3    0    0  0.34344140777E-02  0.33824237753E-01 -0.12756111659E+00  0.13934456489E+00  0.44600392799E-01 0.  0.
         14    1    1    2    0    0  0.99055788100E-04  0.13794982189E-01 -0.15556870194E-02  0.13882777379E-01  0.00000000000E+00 0. -1.
     999901    1    3    3    0    0 -0.35334698658E-02 -0.47619219943E-01  0.12911680361E+00  0.89070265773E+00  0.88000000000E+00 0.  1.
        -11    1    4    4    0    0  0.23905836659E-01  0.14747439509E-01 -0.64247339107E-01  0.70121021825E-01  0.51100000000E-03 0.  1.
         11    1    4    4    0    0 -0.20471422581E-01  0.19076798244E-01 -0.63313777486E-01  0.69223543064E-01  0.51100000000E-03 0. -1.
</event>
<event>
 8    1  0.2928569E+004  0.1043930E+01  0.7957747E-01            NaN
         13   -1    0    0    0    0  0.00000000000E+00  0.00000000000E+00  0.74505805969E-08  0.10566000000E+00  0.10566000000E+00 0.  1.
     999900   -1    0    0    0    0 -0.00000000000E+00 -0.00000000000E+00 -0.74505805969E-08  0.93827000000E+00  0.93827000000E+00 0. -1.
     999902    2    1    2    0    0 -0.52298528742E-02  0.95495625367E-02 -0.82962630579E-02  0.10302415565E+01  0.10301506158E+01 0.  0.
     999903    2    3    3    0    0 -0.27001611356E-01 -0.94159431470E-01 -0.89215225988E-01  0.14019804996E+00  0.45837224110E-01 0.  0.
         14    1    1    2    0    0  0.52298528742E-02 -0.95495625367E-02  0.82962630579E-02  0.13688443537E-01  0.00000000000E+00 0.  1.
     999901    1    3    3    0    0  0.21771758482E-01  0.10370899401E+00  0.80918962931E-01  0.89004350650E+00  0.88000000000E+00 0. -1.
        -11    1    4    4    0    0 -0.30607741974E-01 -0.64182282183E-01 -0.83128901001E-01  0.10939321056E+00  0.51100000000E-03 0. -1.
         11    1    4    4    0    0  0.36061306179E-02 -0.29977149287E-01 -0.60863249878E-02  0.30804839397E-01  0.51100000000E-03 0.  1.
</event>
<event>
 8    1  0.2928569E+004  0.1043930E+01  0.7957747E-01            NaN
         13   -1    0    0    0    0  0.00000000000E+00  0.00000000000E+00  0.74505805969E-08  0.10566000000E+00  0.10566000000E+00 0. -1.
     999900   -1    0    0    0    0 -0.00000000000E+00 -0.00000000000E+00 -0.74505805969E-08  0.93827000000E+00  0.93827000000E+00 0. -1.
     999902    2    1    2    0    0  0.71669657603E-03 -0.12023339693E-02  0.13701325324E-01  0.10301573613E+01  0.10300652909E+01 0.  0.
     999903    2    3    3    0    0 -0.70662963655E-01  0.11204858574E+00 -0.18990780171E-01  0.13943316130E+00  0.39151203563E-01 0.  0.
         14    1    1    2    0    0 -0.71669657603E-03  0.12023339693E-02 -0.13701325324E-01  0.13772638693E-01  0.00000000000E+00 0.  1.
     999901    1    3    3    0    0  0.71379660231E-01 -0.11325091971E+00  0.32692105494E-01  0.89072420000E+00  0.88000000000E+00 0.  1.
        -11    1    4    4    0    0  0.30971528236E-02  0.17051413709E-01 -0.64930478774E-02  0.18513882813E-01  0.51100000000E-03 0. -1.
         11    1    4    4    0    0 -0.73760116478E-01  0.94997172033E-01 -0.12497732293E-01  0.12091927849E+00  0.51100000000E-03 0.  1.
</event>
<event>
 8    1  0.2928569E+004  0.1043930E+01  0.7957747E-01            NaN
         13   -1    0    0    0    0  0.00000000000E+00  0.00000000000E+00  0.74505805969E-08  0.10566000000E+00  0.10566000000E+00 0. -1.
     999900   -1    0    0    0    0 -0.00000000000E+00 -0.00000000000E+00 -0.74505805969E-08  0.93827000000E+00  0.93827000000E+00 0.  1.
     999902    2    1    2    0    0 -0.10748090161E-01  0.47993717157E-02 -0.11693836659E-01  0.10273377962E+01  0.10272037998E+01 0.  0.
     999903    2    3    3    0    0  0.65684708487E-01 -0.10467810834E+00 -0.37310707191E-01  0.13689772781E+00  0.45573146862E-01 0.  0.
         14    1    1    2    0    0  0.10748090161E-01 -0.47993717157E-02  0.11693836659E-01  0.16592203795E-01  0.00000000000E+00 0. -1.
     999901    1    3    3    0    0 -0.76432798647E-01  0.10947748005E+00  0.25616870531E-01  0.89044006839E+00  0.88000000000E+00 0. -1.
        -11    1    4    4    0    0 -0.81201706563E-03 -0.36230832167E-01 -0.87580796586E-02  0.37286695369E-01  0.51100000000E-03 0. -1.
         11    1    4    4    0    0  0.66496725552E-01 -0.68447276168E-01 -0.28552627532E-01  0.99611032441E-01  0.51100000000E-03 0.  1.
</event>
<event>
 8    1  0.2928569E+004  0.1043930E+01  0.7957747E-01            NaN
         13   -1    0    0    0    0  0.00000000000E+00  0.00000000000E+00  0.74505805969E-08  0.10566000000E+00  0.10566000000E+00 0.  1.
     999900   -1    0    0    0    0 -0.00000000000E+00 -0.00000000000E+00 -0.74505805969E-08  0.93827000000E+00  0.93827000000E+00 0.  1.
     999902    2    1    2    0    0 -0.50420644843E-02 -0.10839760746E-01  0.64133918637E-02  0.10303633341E+01  0.10302740150E+01 0.  0.
     999903    2    3    3    0    0  0.83491591258E-01 -0.84286474602E-01  0.61897138642E-01  0.14114397193E+00  0.44892197860E-01 0.  0.
         14    1    1    2    0    0  0.50420644843E-02  0.10839760746E-01 -0.64133918637E-02  0.13566665858E-01  0.00000000000E+00 0. -1.
     999901    1    3    3    0    0 -0.88533655742E-01  0.73446713856E-01 -0.55483746778E-01  0.88921936221E+00  0.88000000000E+00 0.  1.
        -11    1    4    4    0    0  0.21166255390E-01 -0.40794167631E-01  0.42745187787E-01  0.62766126852E-01  0.51100000000E-03 0.  1.
         11    1    4    4    0    0  0.62325335868E-01 -0.43492306971E-01  0.19151950854E-01  0.78377845079E-01  0.51100000000E-03 0. -1.
</event>
<event>
 8    1  0.2928569E+004  0.1043930E+01  0.7957747E-01            NaN
         13   -1    0    0    0    0  0.00000000000E+00  0.00000000000E+00  0.74505805969E-08  0.10566000000E+00  0.10566000000E+00 0. -1.
     999900   -1    0    0    0    0 -0.00000000000E+00 -0.00000000000E+00 -0.74505805969E-08  0.93827000000E+00  0.93827000000E+00 0.  1.
     999902    2    1    2    0    0  0.65812063716E-02 -0.12868827840E-01 -0.11832603384E-02  0.10294276170E+01  0.10293254585E+01 0.  0.
     999903    2    3    3    0    0  0.75916902126E-01  0.28866711632E-01 -0.10444958956E+00  0.13970112605E+00  0.44833300043E-01 0.  0.
         14    1    1    2    0    0 -0.65812063716E-02  0.12868827840E-01  0.11832603384E-02  0.14502382988E-01  0.00000000000E+00 0.  1.
     999901    1    3    3    0    0 -0.69335695754E-01 -0.41735539473E-01  0.10326632922E+00  0.88972649096E+00  0.88000000000E+00 0.  1.
        -11    1    4    4    0    0  0.11459641577E-01  0.24551366254E-01 -0.21681662071E-01  0.34705166203E-01  0.51100000000E-03 0. -1.
         11    1    4    4    0    0  0.64457260549E-01  0.43153453780E-02 -0.82767927490E-01  0.10499595985E+00  0.51100000000E-03 0.  1.
</event>
<event>
 8    1  0.2928569E+004  0.1043930E+01  0.7957747E-01            NaN
         13   -1    0    0    0    0  0.00000000000E+00  0.00000000000E+00  0.74505805969E-08  0.10566000000E+00  0.10566000000E+00 0.  1.
     999900   -1    0    0    0    0 -0.00000000000E+00 -0.00000000000E+00 -0.74505805969E-08  0.93827000000E+00  0.93827000000E+00 0.  1.
     999902    2    1    2    0    0  0.61672970768E-02 -0.39458574414E-02  0.12306176330E-01  0.10296105265E+01  0.10295109465E+01 0.  0.
     999903    2    3    3    0    0  0.91527488407E-01 -0.87837904263E-01  0.40768687503E-01  0.14105307071E+00  0.46272068416E-01 0.  0.
         14    1    1    2    0    0 -0.61672970768E-02  0.39458574414E-02 -0.12306176330E-01  0.14319473455E-01  0.00000000000E+00 0. -1.
     999901    1    3    3    0    0 -0.85360191331E-01  0.83892046821E-01 -0.28462511173E-01  0.88855745584E+00  0.88000000000E+00 0.  1.
        -11    1    4    4    0    0  0.76645588127E-01 -0.84771502519E-01  0.21137200535E-01  0.11622304499E+00  0.51100000000E-03 0.  1.
         11    1    4    4    0    0  0.14881900280E-01 -0.30664017436E-02  0.19631486968E-01  0.24830025719E-01  0.51100000000E-03 0. -1.
</event>
<event>
 8    1  0.2928569E+004  0.1043930E+01  0.7957747E-01            NaN
         13   -1    0    0    0    0  0.00000000000E+00  0.00000000000E+00  0.74505805969E-08  0.10566000000E+00  0.10566000000E+00 0.  1.
     999900   -1    0    0    0    0 -0.00000000000E+00 -0.00000000000E+00 -0.74505805969E-08  0.93827000000E+00  0.93827000000E+00 0.  1.
     999902    2    1    2    0    0 -0.13378522572E-01 -0.14683724992E-02 -0.17981444181E-02  0.10303515499E+01  0.10302620745E+01 0.  0.
     999903    2    3    3    0    0 -0.10140936969E+00 -0.89918660529E-01 -0.42152614690E-02  0.14154407583E+00  0.40592255431E-01 0.  0.
         14    1    1    2    0    0  0.13378522572E-01  0.14683724992E-02  0.17981444181E-02  0.13578450109E-01  0.00000000000E+00 0.  1.
     999901    1    3    3    0    0  0.88030847115E-01  0.88450288030E-01  0.24171170509E-02  0.88880747406E+00  0.88000000000E+00 0.  1.
        -11    1    4    4    0    0 -0.32862154981E-01 -0.28862231664E-01 -0.20511580387E-01  0.48310823815E-01  0.51100000000E-03 0.  1.
         11    1    4    4    0    0 -0.68547214706E-01 -0.61056428865E-01  0.16296318918E-01  0.93233252013E-01  0.51100000000E-03 0. -1.
</event>
<event>
 8    1  0.2928569E+004  0.1043930E+01  0.7957747E-01            NaN
         13   -1    0    0    0    0  0.00000000000E+00  0.00000000000E+00  0.74505805969E-08  0.10566000000E+00  0.10566000000E+00 0.  1.
     999900   -1    0    0    0    0 -0.00000000000E+00 -0.00000000000E+00 -0.74505805969E-08  0.93827000000E+00  0.93827000000E+00 0.  1.
     999902    2    1    2    0    0 -0.10407387112E-01  0.27753862322E-02  0.72772901607E-02  0.10309309451E+01  0.10308489890E+01 0.  0.
     999903    2    3    3    0    0 -0.12773343198E+00  0.80780571916E-02  0.42796655949E-01  0.14241806146E+00  0.45500173801E-01 0.  0.
         14    1    1    2    0    0  0.10407387112E-01 -0.27753862322E-02 -0.72772901607E-02  0.12999054863E-01  0.00000000000E+00 0. -1.
     999901    1    3    3    0    0  0.11732604486E+00 -0.53026709595E-02 -0.35519365788E-01  0.88851288368E+00  0.88000000000E+00 0.  1.
        -11    1    4    4    0    0  0.16096232742E-02  0.47826461724E-02  0.60908947116E-02  0.79262040652E-02  0.51100000000E-03 0. -1.
         11    1    4    4    0    0 -0.12934305525E+00  0.32954110192E-02  0.36705761238E-01  0.13449185739E+00  0.51100000000E-03 0.  1.
</event>
<event>
 8    1  0.2928569E+004  0.1043930E+01  0.7957747E-01            NaN
         13   -1    0    0    0    0  0.00000000000E+00  0.00000000000E+00  0.74505805969E-08  0.10566000000E+00  0.10566000000E+00 0. -1.
     999900   -1    0    0    0    0 -0.00000000000E+00 -0.00000000000E+00 -0.74505805969E-08  0.93827000000E+00  0.93827000000E+00 0. -1.
     999902    2    1    2    0    0 -0.12827763899E-01 -0.87613756263E-02  0.25391790384E-02  0.10281895851E+01  0.10280690942E+01 0.  0.
     999903    2    3    3    0    0  0.12790104725E-01  0.55309153422E-01 -0.11636350104E+00  0.13751615722E+00  0.46341556858E-01 0.  0.
         14    1    1    2    0    0  0.12827763899E-01  0.87613756263E-02 -0.25391790384E-02  0.15740414851E-01  0.00000000000E+00 0. -1.
     999901    1    3    3    0    0 -0.25617868624E-01 -0.64070529048E-01  0.11890268008E+00  0.89067342793E+00  0.88000000000E+00 0.  1.
        -11    1    4    4    0    0 -0.11366355716E-01  0.27415936430E-01 -0.24399536793E-01  0.38424290876E-01  0.51100000000E-03 0.  1.
         11    1    4    4    0    0  0.24156460441E-01  0.27893216992E-01 -0.91963964246E-01  0.99091866346E-01  0.51100000000E-03 0. -1.
</event>
<event>
 8    1  0.2928569E+004  0.1043930E+01  0.7957747E-01            NaN
         13   -1    0    0    0    0  0.00000000000E+00  0.00000000000E+00  0.74505805969E-08  0.10566000000E+00  0.10566000000E+00 0. -1.
     999900   -1    0    0    0    0 -0.00000000000E+00 -0.00000000000E+00 -0.74505805969E-08  0.93827000000E+00  0.93827000000E+00 0.  1.
     999902    2    1    2    0    0  0.92848427878E-02 -0.78197419501E-02 -0.43478809877E-02  0.10310357866E+01  0.10309551554E+01 0.  0.
     999903    2    3    3    0    0  0.87097269730E-01  0.72393371243E-01 -0.72625866542E-01  0.14134437909E+00  0.43324155092E-01 0.  0.
         14    1    1    2    0    0 -0.92848427878E-02  0.78197419501E-02  0.43478809877E-02  0.12894213386E-01  0.00000000000E+00 0. -1.
     999901    1    3    3    0    0 -0.77812426942E-01 -0.80213113193E-01  0.68277985554E-01  0.88969140753E+00  0.88000000000E+00 0. -1.
        -11    1    4    4    0    0  0.31501524741E-01  0.29862057232E-01 -0.44602906644E-02  0.43637642431E-01  0.51100000000E-03 0.  1.
         11    1    4    4    0    0  0.55595744989E-01  0.42531314011E-01 -0.68165575878E-01  0.97706736657E-01  0.51100000000E-03 0. -1.
</event>
<event>
 8    1  0.2928569E+004  0.1043930E+01  0.7957747E-01            NaN
         13   -1    0    0    0    0  0.00000000000E+00  0.00000000000E+00  0.74505805969E-08  0.10566000000E+00  0.10566000000E+00 0.  1.
     999900   -1    0    0    0    0 -0.00000000000E+00 -0.00000000000E+00 -0.74505805969E-08  0.93827000000E+00  0.93827000000E+00 0.  1.
     999902    2    1    2    0    0  0.72585819028E-02 -0.10246252461E-01 -0.81117985842E-02  0.10289809540E+01  0.10288723583E+01 0.  0.
     999903    2    3    3    0    0 -0.82899525654E-01 -0.72700218762E-01 -0.72714566900E-01  0.13982264415E+00  0.45883661745E-01 0.  0.
         14    1    1    2    0    0 -0.72585819028E-02  0.10246252461E-01  0.81117985842E-02  0.14949046023E-01  0.00000000000E+00 0.  1.
     999901    1    3    3    0    0  0.90158107557E-01  0.62453966301E-01  0.64602768315E-01  0.88915830983E+00  0.88000000000E+00 0.  1.
        -11    1    4    4    0    0 -0.26596666362E-01 -0.25912475915E-01 -0.51706055521E-01  0.63660163118E-01  0.51100000000E-03 0.  1.
         11    1    4    4    0    0 -0.56302859292E-01 -0.46787742847E-01 -0.21008511378E-01  0.76162481029E-01  0.51100000000E-03 0. -1.
</event>
<event>
 8    1  0.2928569E+004  0.1043930E+01  0.7957747E-01            NaN
         13   -1    0    0    0    0  0.00000000000E+00  0.00000000000E+00  0.74505805969E-08  0.10566000000E+00  0.10566000000E+00 0.  1.
     999900   -1    0    0    0    0 -0.00000000000E+00 -0.00000000000E+00 -0.74505805969E-08  0.93827000000E+00  0.93827000000E+00 0.  1.
     999902    2    1    2    0    0 -0.32124363290E-02  0.57919507147E-02  0.13522771956E-01  0.10288723839E+01  0.10287621934E+01 0.  0.
     999903    2    3    3    0    0  0.97512687969E-01  0.65528267780E-01 -0.61652882130E-01  0.13793728124E+00  0.37721843646E-01 0.  0.
         14    1    1    2    0    0  0.32124363290E-02 -0.57919507147E-02 -0.13522771956E-01  0.15057616067E-01  0.00000000000E+00 0. -1.
     999901    1    3    3    0    0 -0.10072512430E+00 -0.59736317066E-01  0.75175654086E-01  0.89093510269E+00  0.88000000000E+00 0. -1.
        -11    1    4    4    0    0  0.22311081525E-01  0.30769578187E-01 -0.32809873747E-01  0.50212550591E-01  0.51100000000E-03 0. -1.
         11    1    4    4    0    0  0.75201606444E-01  0.34758689594E-01 -0.28843008384E-01  0.87724730650E-01  0.51100000000E-03 0.  1.
</event>
<event>
 8    1  0.2928569E+004  0.1043930E+01  0.7957747E-01            NaN
         13   -1    0    0    0    0  0.00000000000E+00  0.00000000000E+00  0.74505805969E-08  0.10566000000E+00  0.10566000000E+00 0.  1.
     999900   -1    0    0    0    0 -0.00000000000E+00 -0.00000000000E+00 -0.74505805969E-08  0.93827000000E+00  0.93827000000E+00 0.  1.
     999902    2    1    2    0    0 -0.16162909309E-02  0.39331806564E-02 -0.10444279770E-01  0.10326532413E+01  0.10325916674E+01 0.  0.
     999903    2    3    3    0    0  0.13269167619E-01  0.37976387380E-01 -0.13047284878E+00  0.14372839962E+00  0.44904473962E-01 0.  0.
         14    1    1    2    0    0  0.16162909309E-02 -0.39331806564E-02  0.10444279770E-01  0.11276758682E-01  0.00000000000E+00 0.  1.
     999901    1    3    3    0    0 -0.14885458550E-01 -0.34043206724E-01  0.12002856901E+00  0.88892484169E+00  0.88000000000E+00 0. -1.
        -11    1    4    4    0    0  0.25308155152E-01  0.10691209520E-01 -0.40514065285E-01  0.48953603392E-01  0.51100000000E-03 0. -1.
         11    1    4    4    0    0 -0.12038987533E-01  0.27285177860E-01 -0.89958783497E-01  0.94774796233E-01  0.51100000000E-03 0.  1.
</event>
<event>
 8    1  0.2928569E+004  0.1043930E+01  0.7957747E-01            NaN
         13   -1    0    0    0    0  0.00000000000E+00  0.00000000000E+00  0.74505805969E-08  0.10566000000E+00  0.10566000000E+00 0. -1.
     999900   -1    0    0    0    0 -0.00000000000E+00 -0.00000000000E+00 -0.74505805969E-08  0.93827000000E+00  0.93827000000E+00 0. -1.
     999902    2    1    2    0    0 -0.64959640136E-02  0.23975702725E-02 -0.14822127312E-01  0.10275702521E+01  0.10274400137E+01 0.  0.
     999903    2    3    3    0    0  0.42495092532E-01  0.97262824176E-01 -0.77744250570E-01  0.13888654373E+00  0.44490602108E-01 0.  0.
         14    1    1    2    0    0  0.64959640136E-02 -0.23975702725E-02  0.14822127312E-01  0.16359747850E-01  0.00000000000E+00 0. -1.
     999901    1    3    3    0    0 -0.48991056546E-01 -0.94865253903E-01  0.62922123258E-01  0.88868370842E+00  0.88000000000E+00 0.  1.
        -11    1    4    4    0    0  0.14953316444E-01  0.82274660023E-01 -0.59139603543E-01  0.10242302077E+00  0.51100000000E-03 0.  1.
         11    1    4    4    0    0  0.27541776088E-01  0.14988164152E-01 -0.18604647027E-01  0.36463522961E-01  0.51100000000E-03 0. -1.
</event>
<event>
 8    1  0.2928569E+004  0.1043930E+01  0.7957747E-01            NaN
         13   -1    0    0    0    0  0.00000000000E+00  0.00000000000E+00  0.74505805969E-08  0.10566000000E+00  0.10566000000E+00 0.  1.
     999900   -1    0    0    0    0 -0.00000000000E+00 -0.00000000000E+00 -0.74505805969E-08  0.93827000000E+00  0.93827000000E+00 0. -1.
     999902    2    1    2    0    0 -0.13849179997E-02 -0.11689650141E-01  0.59277236372E-02  0.10307503253E+01  0.10306660610E+01 0.  0.
     999903    2    3    3    0    0  0.27275911653E-01  0.10064084635E+00  0.81768298965E-01  0.13991286734E+00  0.44911027837E-01 0.  0.
         14    1    1    2    0    0  0.13849179997E-02  0.11689650141E-01 -0.59277236372E-02  0.13179674723E-01  0.00000000000E+00 0. -1.
     999901    1    3    3    0    0 -0.28660829653E-01 -0.11233049649E+00 -0.75840575327E-01  0.89083745794E+00  0.88000000000E+00 0. -1.
        -11    1    4    4    0    0  0.15637171233E-01  0.37931164740E-01  0.69812786237E-02  0.41620833184E-01  0.51100000000E-03 0. -1.
         11    1    4    4    0    0  0.11638740420E-01  0.62709681608E-01  0.74787020341E-01  0.98292034156E-01  0.51100000000E-03 0.  1.
</event>
<event>
 8    1  0.2928569E+004  0.1043930E+01  0.7957747E-01            NaN
         13   -1    0    0    0    0  0.00000000000E+00  0.00000000000E+00  0.74505805969E-08  0.10566000000E+00  0.10566000000E+00 0. -1.
     999900   -1    0    0    0    0 -0.00000000000E+00 -0.00000000000E+00 -0.74505805969E-08  0.93827000000E+00  0.93827000000E+00 0. -1.
     999902    2    1    2    0    0  0.12092042311E-01  0.78313298220E-02 -0.46987771140E-02  0.10287765938E+01  0.10286649864E+01 0.  0.
     999903    2    3    3    0    0 -0.34068770130E-01  0.12605393189E+00 -0.18732533880E-01  0.13956101216E+00  0.45564168459E-01 0.  0.
         14    1    1    2    0    0 -0.12092042311E-01 -0.78313298220E-02  0.46987771140E-02  0.15153406231E-01  0.00000000000E+00 0. -1.
     999901    1    3    3    0    0  0.46160812442E-01 -0.11822260207E+00  0.14033756766E-01  0.88921558161E+00  0.88000000000E+00 0.  1.
        -11    1    4    4    0    0 -0.19220657734E-01  0.71638534797E-01  0.12290973857E-01  0.75185387616E-01  0.51100000000E-03 0.  1.
         11    1    4    4    0    0 -0.14848112396E-01  0.54415397091E-01 -0.31023507737E-01  0.64375624546E-01  0.51100000000E-03 0. -1.
</event>
<event>
 8    1  0.2928569E+004  0.1043930E+01  0.7957747E-01            NaN
         13   -1    0    0    0    0  0.00000000000E+00  0.00000000000E+00  0.74505805969E-08  0.10566000000E+00  0.10566000000E+00 0.  1.
     999900   -1    0    0    0    0 -0.00000000000E+00 -0.00000000000E+00 -0.74505805969E-08  0.93827000000E+00  0.93827000000E+00 0. -1.
     999902    2    1    2    0    0  0.18184091468E-02  0.99825095278E-02 -0.10008092933E-01  0.10296780165E+01  0.10295793795E+01 0.  0.
     999903    2    3    3    0    0 -0.61854757821E-01  0.10714725696E-01  0.11229754669E+00  0.13894041331E+00  0.52467923981E-01 0.  0.
         14    1    1    2    0    0 -0.18184091468E-02 -0.99825095278E-02  0.10008092933E-01  0.14251983457E-01  0.00000000000E+00 0.  1.
     999901    1    3    3    0    0  0.63673166967E-01 -0.73221616788E-03 -0.12230563962E+00  0.89073760323E+00  0.88000000000E+00 0. -1.
        -11    1    4    4    0    0 -0.56216813970E-01  0.87174775047E-03  0.48843556547E-01  0.74478481820E-01  0.51100000000E-03 0. -1.
         11    1    4    4    0    0 -0.56379438508E-02  0.98429779452E-02  0.63453990139E-01  0.64461931489E-01  0.51100000000E-03 0.  1.
</event>
<event>
 7    1  0.2928569E+004  0.1043930E+01  0.7957747E-01            NaN
         13   -1    0    0    0    0  0.00000000000E+00  0.00000000000E+00  0.74505805969E-08  0.10566000000E+00  0.10566000000E+00 0.  1.
     999900   -1    0    0    0    0 -0.00000000000E+00 -0.00000000000E+00 -0.74505805969E-08  0.93827000000E+00  0.93827000000E+00 0.  1.
     999903    2    1    2    0    0 -0.71139380373E-01 -0.48857746186E-01 -0.41608577038E-01  0.10509111184E+00  0.43185382972E-01 0.  0.
         14    1    1    2    0    0 -0.48107255877E-01  0.82757889545E-02 -0.13438019193E-02  0.48832392471E-01  0.00000000000E+00 0. -1.
     999901    1    1    2    0    0  0.11924663625E+00  0.40581957231E-01  0.42952378957E-01  0.89000649569E+00  0.88000000000E+00 0. -1.
        -11    1    3    3    0    0 -0.69286121867E-02 -0.28209192516E-01 -0.12495134507E-01  0.31625206981E-01  0.51100000000E-03 0. -1.
         11    1    3    3    0    0 -0.64210768187E-01 -0.20648553670E-01 -0.29113442531E-01  0.73465904859E-01  0.51100000000E-03 0.  1.
</event>
<event>
 7    1  0.2928569E+004  0.1043930E+01  0.7957747E-01            NaN
         13   -1    0    0    0    0  0.00000000000E+00  0.00000000000E+00  0.74505805969E-08  0.10566000000E+00  0.10566000000E+00 0.  1.
     999900   -1    0    0    0    0 -0.00000000000E+00 -0.00000000000E+00 -0.74505805969E-08  0.93827000000E+00  0.93827000000E+00 0.  1.
     999902    2    1    2    0    0  0.37522281754E-02 -0.12073620704E-01  0.61786088284E-02  0.10298578026E+01  0.10297616553E+01 0.  0.
         14    1    1    2    0    0 -0.37522281754E-02  0.12073620704E-01 -0.61786088284E-02  0.14072197420E-01  0.00000000000E+00 0. -1.
     999901    1    3    3    0    0  0.18215651175E-01  0.10760188547E+00  0.48156038586E-01  0.88804784767E+00  0.88000000000E+00 0. -1.
        -11    1    3    3    0    0  0.23664975541E-02 -0.79416735980E-01  0.25095939117E-02  0.79493254098E-01  0.51100000000E-03 0.  1.
         11    1    3    3    0    0 -0.16829920554E-01 -0.40258770197E-01 -0.44487023670E-01  0.62316700809E-01  0.51100000000E-03 0. -1.
</event>
<event>
 8    1  0.2928569E+004  0.1043930E+01  0.7957747E-01            NaN
         13   -1    0    0    0    0  0.00000000000E+00  0.00000000000E+00  0.74505805969E-08  0.10566000000E+00  0.10566000000E+00 0.  1.
     999900   -1    0    0    0    0 -0.00000000000E+00 -0.00000000000E+00 -0.74505805969E-08  0.93827000000E+00  0.93827000000E+00 0. -1.
     999902    2    1    2    0    0 -0.63110014978E-02  0.93998769804E-02 -0.79738551075E-02  0.10300819390E+01  0.10299888506E+01 0.  0.
     999903    2    3    3    0    0  0.30858920693E-01  0.83483181418E-01 -0.10026727879E+00  0.14138175609E+00  0.44872699872E-01 0.  0.
         14    1    1    2    0    0  0.63110014978E-02 -0.93998769804E-02  0.79738551075E-02  0.13848060963E-01  0.00000000000E+00 0.  1.
     999901    1    3    3    0    0 -0.37169922190E-01 -0.74083304438E-01  0.92293423682E-01  0.88870018295E+00  0.88000000000E+00 0.  1.
        -11    1    4    4    0    0  0.18166105427E-01  0.42449276177E-02 -0.12528748901E-01  0.22477932887E-01  0.51100000000E-03 0.  1.
         11    1    4    4    0    0  0.12692815266E-01  0.79238253801E-01 -0.87738529888E-01  0.11890382320E+00  0.51100000000E-03 0. -1.
</event>
<event>
 8    1  0.2928569E+004  0.1043930E+01  0.7957747E-01            NaN
         13   -1    0    0    0    0  0.00000000000E+00  0.00000000000E+00  0.74505805969E-08  0.10566000000E+00  0.10566000000E+00 0.  1.
     999900   -1    0    0    0    0 -0.00000000000E+00 -0.00000000000E+00 -0.74505805969E-08  0.93827000000E+00  0.93827000000E+00 0.  1.
     999902    2    1    2    0    0  0.44561061781E-02 -0.16356785986E-01  0.14190832376E-01  0.10218216067E+01  0.10215824073E+01 0.  0.
     999903    2    3    3    0    0 -0.11417828772E+00 -0.24100180592E-02  0.51619842540E-01  0.13296303385E+00  0.44408002123E-01 0.  0.
         14    1    1    2    0    0 -0.44561061781E-02  0.16356785986E-01 -0.14190832376E-01  0.22108393284E-01  0.00000000000E+00 0. -1.
     999901    1    3    3    0    0  0.11863439390E+00 -0.13946767927E-01 -0.37429010164E-01  0.88885857286E+00  0.88000000000E+00 0. -1.
        -11    1    4    4    0    0 -0.64603300861E-01  0.20648173792E-01  0.30083213198E-01  0.74196997247E-01  0.51100000000E-03 0. -1.
         11    1    4    4    0    0 -0.49574986863E-01 -0.23058191851E-01  0.21536629342E-01  0.58766036605E-01  0.51100000000E-03 0.  1.
</event>
<event>
 8    1  0.2928569E+004  0.1043930E+01  0.7957747E-01            NaN
         13   -1    0    0    0    0  0.00000000000E+00  0.00000000000E+00  0.74505805969E-08  0.10566000000E+00  0.10566000000E+00 0. -1.
     999900   -1    0    0    0    0 -0.00000000000E+00 -0.00000000000E+00 -0.74505805969E-08  0.93827000000E+00  0.93827000000E+00 0. -1.
     999902    2    1    2    0    0  0.59707019050E-02  0.37774804915E-03  0.12191292586E-01  0.10303498826E+01  0.10302603850E+01 0.  0.
     999903    2    3    3    0    0 -0.62226133706E-01 -0.51053868864E-01 -0.10406758499E+00  0.13860319979E+00  0.43614166333E-01 0.  0.
         14    1    1    2    0    0 -0.59707019050E-02 -0.37774804915E-03 -0.12191292586E-01  0.13580117442E-01  0.00000000000E+00 0.  1.
     999901    1    3    3    0    0  0.68196835611E-01  0.51431616913E-01  0.11625887758E+00  0.89174668276E+00  0.88000000000E+00 0.  1.
        -11    1    4    4    0    0 -0.34133538455E-01 -0.52298885862E-01 -0.62024143082E-01  0.88020039513E-01  0.51100000000E-03 0. -1.
         11    1    4    4    0    0 -0.28092595251E-01  0.12450169983E-02 -0.42043441911E-01  0.50583160281E-01  0.51100000000E-03 0.  1.
</event>
<event>
 8    1  0.2928569E+004  0.1043930E+01  0.7957747E-01            NaN
         13   -1    0    0    0    0  0.00000000000E+00  0.00000000000E+00  0.74505805969E-08  0.10566000000E+00  0.10566000000E+00 0. -1.
     999900   -1    0    0    0    0 -0.00000000000E+00 -0.00000000000E+00 -0.74505805969E-08  0.93827000000E+00  0.93827000000E+00 0. -1.
     999902    2    1    2    0    0 -0.81055988991E-02  0.10887938576E-01  0.22018353888E-02  0.10301787812E+01  0.10300869988E+01 0.  0.
     999903    2    3    3    0    0  0.64042788749E-01 -0.22769005620E-01 -0.11389627989E+00  0.13899027581E+00  0.41545490608E-01 0.  0.
         14    1    1    2    0    0  0.81055988991E-02 -0.10887938576E-01 -0.22018353888E-02  0.13751218820E-01  0.00000000000E+00 0. -1.
     999901    1    3    3    0    0 -0.72148387648E-01  0.33656944197E-01  0.11609811528E+00  0.89118850537E+00  0.88000000000E+00 0.  1.
        -11    1    4    4    0    0  0.53699943194E-01 -0.22273596583E-02 -0.60958282352E-01  0.81270033459E-01  0.51100000000E-03 0. -1.
         11    1    4    4    0    0  0.10342845555E-01 -0.20541645962E-01 -0.52937997536E-01  0.57720242351E-01  0.51100000000E-03 0.  1.
</event>
<event>
 8    1  0.2928569E+004  0.1043930E+01  0.7957747E-01            NaN
         13   -1    0    0    0    0  0.00000000000E+00  0.00000000000E+00  0.74505805969E-08  0.10566000000E+00  0.10566000000E+00 0.  1.
     999900   -1    0    0    0    0 -0.00000000000E+00 -0.00000000000E+00 -0.74505805969E-08  0.93827000000E+00  0.93827000000E+00 0. -1.
     999902    2    1    2    0    0  0.63741274464E-02 -0.70684356225E-02 -0.90383382953E-02  0.10308043060E+01  0.10307207350E+01 0.  0.
     999903    2    3    3    0    0  0.89562936575E-01  0.53315272178E-01  0.82650986887E-01  0.14008914254E+00  0.43928855766E-01 0.  0.
         14    1    1    2    0    0 -0.63741274464E-02  0.70684356225E-02  0.90383382953E-02  0.13125693962E-01  0.00000000000E+00 0.  1.
     999901    1    3    3    0    0 -0.83188809129E-01 -0.60383707800E-01 -0.91689325182E-01  0.89071516350E+00  0.88000000000E+00 0. -1.
        -11    1    4    4    0    0  0.75132253626E-01  0.34603688157E-01  0.41291872054E-01  0.92452964192E-01  0.51100000000E-03 0. -1.
         11    1    4    4    0    0  0.14430682949E-01  0.18711584021E-01  0.41359114832E-01  0.47636178349E-01  0.51100000000E-03 0.  1.
</event>
<event>
 8    1  0.2928569E+004  0.1043930E+01  0.7957747E-01            NaN
         13   -1    0    0    0    0  0.00000000000E+00  0.00000000000E+00  0.74505805969E-08  0.10566000000E+00  0.10566000000E+00 0.  1.
     999900   -1    0    0    0    0 -0.00000000000E+00 -0.00000000000E+00 -0.74505805969E-08  0.93827000000E+00  0.93827000000E+00 0.  1.
     999902    2    1    2    0    0 -0.63137765476E-02 -0.11559525917E-01  0.71402130788E-02  0.10289477086E+01  0.10288386258E+01 0.  0.
     999903    2    3    3    0    0  0.94128036122E-01 -0.18188705127E-01 -0.88940742034E-01  0.13801333743E+00  0.44116998257E-01 0.  0.
         14    1    1    2    0    0  0.63137765476E-02  0.11559525917E-01 -0.71402130788E-02  0.14982291431E-01  0.00000000000E+00 0. -1.
     999901    1    3    3    0    0 -0.10044181267E+00  0.66291792096E-02  0.96080955113E-01  0.89093437114E+00  0.88000000000E+00 0. -1.
        -11    1    4    4    0    0  0.53817597987E-01 -0.12879935302E-01 -0.78477255564E-01  0.96026909501E-01  0.51100000000E-03 0.  1.
         11    1    4    4    0    0  0.40310438136E-01 -0.53087698254E-02 -0.10463486471E-01  0.41986427924E-01  0.51100000000E-03 0. -1.
</event>
<event>
 8    1  0.2928569E+004  0.1043930E+01  0.7957747E-01            NaN
         13   -1    0    0    0    0  0.00000000000E+00  0.00000000000E+00  0.74505805969E-08  0.10566000000E+00  0.10566000000E+00 0. -1.
     999900   -1    0    0    0    0 -0.00000000000E+00 -0.00000000000E+00 -0.74505805969E-08  0.93827000000E+00  0.93827000000E+00 0. -1.
     999902    2    1    2    0    0  0.49591156146E-03  0.63257742651E-02 -0.11977620855E-01  0.10303754897E+01  0.10302863316E+01 0.  0.
     999903    2    3    3    0    0 -0.10695047547E+00 -0.49613042339E-02  0.76911366893E-01  0.13932365261E+00  0.45085508504E-01 0.  0.
         14    1    1    2    0    0 -0.49591156146E-03 -0.63257742651E-02  0.11977620855E-01  0.13554510308E-01  0.00000000000E+00 0. -1.
     999901    1    3    3    0    0  0.10744638703E+00  0.11287078499E-01 -0.88888987749E-01  0.89105183708E+00  0.88000000000E+00 0. -1.
        -11    1    4    4    0    0 -0.34454406856E-01  0.18062670961E-01  0.16820748701E-01  0.42385904991E-01  0.51100000000E-03 0.  1.
         11    1    4    4    0    0 -0.72496068609E-01 -0.23023975195E-01  0.60090618193E-01  0.96937747619E-01  0.51100000000E-03 0. -1.
</event>
<event>
 8    1  0.2928569E+004  0.1043930E+01  0.7957747E-01            NaN
         13   -1    0    0    0    0  0.00000000000E+00  0.00000000000E+00  0.74505805969E-08  0.10566000000E+00  0.10566000000E+00 0.  1.
     999900   -1    0    0    0    0 -0.00000000000E+00 -0.00000000000E+00 -0.74505805969E-08  0.93827000000E+00  0.93827000000E+00 0.  1.
     999902    2    1    2    0    0 -0.36751857718E-02 -0.58304873121E-02 -0.14884089701E-01  0.10275276313E+01  0.10273967079E+01 0.  0.
     999903    2    3    3    0    0 -0.10321296905E+00  0.10615375559E-02 -0.81929393530E-01  0.13935515758E+00  0.45314352902E-01 0.  0.
         14    1    1    2    0    0  0.36751857718E-02  0.58304873121E-02  0.14884089701E-01  0.16402368700E-01  0.00000000000E+00 0.  1.
     999901    1    3    3    0    0  0.99537783275E-01 -0.68920248680E-02  0.67045303829E-01  0.88817247372E+00  0.88000000000E+00 0. -1.
        -11    1    4    4    0    0 -0.35204590773E-01  0.10404250683E-01 -0.53874889197E-01  0.65194911233E-01  0.51100000000E-03 0. -1.
         11    1    4    4    0    0 -0.68008378274E-01 -0.93427131266E-02 -0.28054504333E-01  0.74160246348E-01  0.51100000000E-03 0.  1.
</event>
<event>
 8    1  0.2928569E+004  0.1043930E+01  0.7957747E-01            NaN
         13   -1    0    0    0    0  0.00000000000E+00  0.00000000000E+00  0.74505805969E-08  0.10566000000E+00  0.10566000000E+00 0. -1.
     999900   -1    0    0    0    0 -0.00000000000E+00 -0.00000000000E+00 -0.74505805969E-08  0.93827000000E+00  0.93827000000E+00 0.  1.
     999902    2    1    2    0    0 -0.38934117216E-02  0.12687559901E-01 -0.45639878652E-02  0.10298956558E+01  0.10298000287E+01 0.  0.
     999903    2    3    3    0    0 -0.87904607594E-02  0.13106778090E+00 -0.26518085606E-01  0.14168405929E+00  0.45990525150E-01 0.  0.
         14    1    1    2    0    0  0.38934117216E-02 -0.12687559901E-01  0.45639878652E-02  0.14034344171E-01  0.00000000000E+00 0. -1.
     999901    1    3    3    0    0  0.48970490378E-02 -0.11838022100E+00  0.21954097740E-01  0.88821159654E+00  0.88000000000E+00 0.  1.
        -11    1    4    4    0    0  0.17063175584E-01  0.32688048593E-01 -0.12833015237E-01  0.39046227512E-01  0.51100000000E-03 0.  1.
         11    1    4    4    0    0 -0.25853636344E-01  0.98379732306E-01 -0.13685070368E-01  0.10263783178E+00  0.51100000000E-03 0. -1.
</event>
<event>
 8    1  0.2928569E+004  0.1043930E+01  0.7957747E-01            NaN
         13   -1    0    0    0    0  0.00000000000E+00  0.00000000000E+00  0.74505805969E-08  0.10566000000E+00  0.10566000000E+00 0.  1.
     999900   -1    0    0    0    0 -0.00000000000E+00 -0.00000000000E+00 -0.74505805969E-08  0.93827000000E+00  0.93827000000E+00 0. -1.
     999902    2    1    2    0    0 -0.34433076727E-02  0.80577623407E-02  0.14808769382E-01  0.10267229214E+01  0.10265787227E+01 0.  0.
     999903    2    3    3    0    0  0.73396400787E-01  0.25039380003E-01  0.10618729058E+00  0.13849842828E+00  0.43497951170E-01 0.  0.
         14    1    1    2    0    0  0.34433076727E-02 -0.80577623407E-02 -0.14808769382E-01  0.17207078551E-01  0.00000000000E+00 0. -1.
     999901    1    3    3    0    0 -0.76839708460E-01 -0.16981617662E-01 -0.91378521194E-01  0.88822449317E+00  0.88000000000E+00 0. -1.
        -11    1    4    4    0    0  0.31756228425E-01  0.33508013199E-01  0.60487820782E-01  0.76093906302E-01  0.51100000000E-03 0. -1.
         11    1    4    4    0    0  0.41640172363E-01 -0.84686331955E-02  0.45699469793E-01  0.62404521975E-01  0.51100000000E-03 0.  1.
</event>
<event>
 8    1  0.2928569E+004  0.1043930E+01  0.7957747E-01            NaN
         13   -1    0    0    0    0  0.00000000000E+00  0.00000000000E+00  0.74505805969E-08  0.10566000000E+00  0.10566000000E+00 0. -1.
     999900   -1    0    0    0    0 -0.00000000000E+00 -0.00000000000E+00 -0.74505805969E-08  0.93827000000E+00  0.93827000000E+00 0.  1.
     999902    2    1    2    0    0 -0.12547602147E-01  0.28909991900E-03 -0.60061320055E-02  0.10300159955E+01  0.10299220124E+01 0.  0.
     999903    2    3    3    0    0  0.45320079643E-01  0.11493407597E+00  0.47247229828E-01  0.13910182477E+00  0.43049570159E-01 0.  0.
         14    1    1    2    0    0  0.12547602147E-01 -0.28909991900E-03  0.60061320055E-02  0.13914004459E-01  0.00000000000E+00 0. -1.
     999901    1    3    3    0    0 -0.57867681791E-01 -0.11464497605E+00 -0.53253361833E-01  0.89091417077E+00  0.88000000000E+00 0. -1.
        -11    1    4    4    0    0  0.52838578236E-01  0.10406037492E+00  0.37212600007E-01  0.12249700281E+00  0.51100000000E-03 0.  1.
         11    1    4    4    0    0 -0.75184985928E-02  0.10873701052E-01  0.10034629821E-01  0.16604821959E-01  0.51100000000E-03 0. -1.
</event>
<event>
 8    1  0.2928569E+004  0.1043930E+01  0.7957747E-01            NaN
         13   -1    0    0    0    0  0.00000000000E+00  0.00000000000E+00  0.74505805969E-08  0.10566000000E+00  0.10566000000E+00 0. -1.
     999900   -1    0    0    0    0 -0.00000000000E+00 -0.00000000000E+00 -0.74505805969E-08  0.93827000000E+00  0.93827000000E+00 0. -1.
     999902    2    1    2    0    0 -0.13262590324E-01  0.25262319986E-02 -0.23690846075E-02  0.10302226767E+01  0.10301314833E+01 0.  0.
     999903    2    3    3    0    0  0.11592640928E+00 -0.25860121048E-01  0.55271583855E-01  0.13847269530E+00  0.44856004441E-01 0.  0.
         14    1    1    2    0    0  0.13262590324E-01 -0.25262319986E-02  0.23690846075E-02  0.13707323302E-01  0.00000000000E+00 0. -1.
     999901    1    3    3    0    0 -0.12918899960E+00  0.28386353046E-01 -0.57640668462E-01  0.89174998139E+00  0.88000000000E+00 0. -1.
        -11    1    4    4    0    0  0.28711210762E-01 -0.19605803990E-01 -0.47446114670E-03  0.34773659686E-01  0.51100000000E-03 0. -1.
         11    1    4    4    0    0  0.87215198514E-01 -0.62543170573E-02  0.55746045002E-01  0.10369903562E+00  0.51100000000E-03 0.  1.
</event>
<event>
 8    1  0.2928569E+004  0.1043930E+01  0.7957747E-01            NaN
         13   -1    0    0    0    0  0.00000000000E+00  0.00000000000E+00  0.74505805969E-08  0.10566000000E+00  0.10566000000E+00 0. -1.
     999900   -1    0    0    0    0 -0.00000000000E+00 -0.00000000000E+00 -0.74505805969E-08  0.93827000000E+00  0.93827000000E+00 0.  1.
     999902    2    1    2    0    0 -0.23886582538E-02 -0.62294296742E-02  0.11933762282E-01  0.10302579056E+01  0.10301671835E+01 0.  0.
     999903    2    3    3    0    0 -0.29768289398E-01  0.27490207349E-02 -0.12818832550E+00  0.13870619302E+00  0.43743033944E-01 0.  0.
         14    1    1    2    0    0  0.23886582538E-02  0.62294296742E-02 -0.11933762282E-01  0.13672094372E-01  0.00000000000E+00 0.  1.
     999901    1    3    3    0    0  0.27379631144E-01 -0.89784504092E-02  0.14012208778E+00  0.89155171261E+00  0.88000000000E+00 0. -1.
        -11    1    4    4    0    0 -0.17251356156E-01  0.25942399317E-02 -0.10531305451E-01  0.20384035065E-01  0.51100000000E-03 0. -1.
         11    1    4    4    0    0 -0.12516933242E-01  0.15478080322E-03 -0.11765702005E+00  0.11832215795E+00  0.51100000000E-03 0.  1.
</event>
<event>
 8    1  0.2928569E+004  0.1043930E+01  0.7957747E-01            NaN
         13   -1    0    0    0    0  0.00000000000E+00  0.00000000000E+00  0.74505805969E-08  0.10566000000E+00  0.10566000000E+00 0.  1.
     999900   -1    0    0    0    0 -0.00000000000E+00 -0.00000000000E+00 -0.74505805969E-08  0.93827000000E+00  0.93827000000E+00 0. -1.
     999902    2    1    2    0    0  0.49710305743E-02 -0.11773455316E-01 -0.51083928945E-02  0.10301669672E+01  0.10300750260E+01 0.  0.
     999903    2    3    3    0    0  0.12285481189E+00  0.47596449849E-01 -0.18213812880E-01  0.14022701212E+00  0.44420098012E-01 0.  0.
         14    1    1    2    0    0 -0.49710305743E-02  0.11773455316E-01  0.51083928945E-02  0.13763032843E-01  0.00000000000E+00 0.  1.
     999901    1    3    3    0    0 -0.11788378131E+00 -0.59369905166E-01  0.13105419986E-01  0.88993995504E+00  0.88000000000E+00 0. -1.
        -11    1    4    4    0    0  0.38658959254E-01  0.32846932710E-01 -0.20499839708E-01  0.54716913912E-01  0.51100000000E-03 0. -1.
         11    1    4    4    0    0  0.84195852632E-01  0.14749517140E-01  0.22860268275E-02  0.85510098210E-01  0.51100000000E-03 0.  1.
</event>
<event>
 8    1  0.2928569E+004  0.1043930E+01  0.7957747E-01            NaN
         13   -1    0    0    0    0  0.00000000000E+00  0.00000000000E+00  0.74505805969E-08  0.10566000000E+00  0.10566000000E+00 0. -1.
     999900   -1    0    0    0    0 -0.00000000000E+00 -0.00000000000E+00 -0.74505805969E-08  0.93827000000E+00  0.93827000000E+00 0. -1.
     999902    2    1    2    0    0 -0.50678372362E-02  0.66522815008E-04 -0.13186057793E-01  0.10298034463E+01  0.10297065497E+01 0.  0.
     999903    2    3    3    0    0  0.47318114659E-01 -0.57814093483E-01  0.10789139807E+00  0.13808925216E+00  0.42972251558E-01 0.  0.
         14    1    1    2    0    0  0.50678372362E-02 -0.66522815008E-04  0.13186057793E-01  0.14126553707E-01  0.00000000000E+00 0. -1.
     999901    1    3    3    0    0 -0.52385951896E-01  0.57880616298E-01 -0.12107745586E+00  0.89171419413E+00  0.88000000000E+00 0.  1.
        -11    1    4    4    0    0 -0.18071015830E-02 -0.24190915170E-01  0.17747854711E-01  0.30061827302E-01  0.51100000000E-03 0. -1.
         11    1    4    4    0    0  0.49125216242E-01 -0.33623178313E-01  0.90143543361E-01  0.10802742486E+00  0.51100000000E-03 0.  1.
</event>
<event>
 8    1  0.2928569E+004  0.1043930E+01  0.7957747E-01            NaN
         13   -1    0    0    0    0  0.00000000000E+00  0.00000000000E+00  0.74505805969E-08  0.10566000000E+00  0.10566000000E+00 0.  1.
     999900   -1    0    0    0    0 -0.00000000000E+00 -0.00000000000E+00 -0.74505805969E-08  0.93827000000E+00  0.93827000000E+00 0. -1.
     999902    2    1    2    0    0  0.10726871235E-01  0.71196535965E-02 -0.50333649963E-02  0.10301064694E+01  0.10300137127E+01 0.  0.
     999903    2    3    3    0    0  0.75323993463E-01  0.28467825534E-02  0.10906014073E+00  0.14038270688E+00  0.46166892159E-01 0.  0.
         14    1    1    2    0    0 -0.10726871235E-01 -0.71196535965E-02  0.50333649963E-02  0.13823530555E-01  0.00000000000E+00 0.  1.
     999901    1    3    3    0    0 -0.64597122228E-01  0.42728710431E-02 -0.11409350573E+00  0.88972376257E+00  0.88000000000E+00 0. -1.
        -11    1    4    4    0    0  0.24304660398E-01 -0.12502649363E-01  0.12415238938E-01  0.30023857798E-01  0.51100000000E-03 0.  1.
         11    1    4    4    0    0  0.51019333065E-01  0.15349431916E-01  0.96644901793E-01  0.11035884908E+00  0.51100000000E-03 0. -1.
</event>
<event>
 8    1  0.2928569E+004  0.1043930E+01  0.7957747E-01            NaN
         13   -1    0    0    0    0  0.00000000000E+00  0.00000000000E+00  0.74505805969E-08  0.10566000000E+00  0.10566000000E+00 0. -1.
     999900   -1    0    0    0    0 -0.00000000000E+00 -0.00000000000E+00 -0.74505805969E-08  0.93827000000E+00  0.93827000000E+00 0. -1.
     999902    2    1    2    0    0 -0.37779398515E-02  0.60063985585E-03 -0.16649572101E-01  0.10268466207E+01  0.10267045050E+01 0.  0.
     999903    2    3    3    0    0  0.11555167382E+00  0.13568253850E-01 -0.60718754551E-01  0.13760547872E+00  0.41378905062E-01 0.  0.
         14    1    1    2    0    0  0.37779398515E-02 -0.60063985585E-03  0.16649572101E-01  0.17083379317E-01  0.00000000000E+00 0. -1.
     999901    1    3    3    0    0 -0.11932961368E+00 -0.12967613994E-01  0.44069182450E-01  0.88924114196E+00  0.88000000000E+00 0.  1.
        -11    1    4    4    0    0  0.89359893655E-01  0.37609058926E-02 -0.26246703580E-01  0.93212046308E-01  0.51100000000E-03 0.  1.
         11    1    4    4    0    0  0.26191780169E-01  0.98073479577E-02 -0.34472050971E-01  0.44393432414E-01  0.51100000000E-03 0. -1.
</event>
<event>
 8    1  0.2928569E+004  0.1043930E+01  0.7957747E-01            NaN
         13   -1    0    0    0    0  0.00000000000E+00  0.00000000000E+00  0.74505805969E-08  0.10566000000E+00  0.10566000000E+00 0. -1.
     999900   -1    0    0    0    0 -0.00000000000E+00 -0.00000000000E+00 -0.74505805969E-08  0.93827000000E+00  0.93827000000E+00 0.  1.
     999902    2    1    2    0    0 -0.53623440576E-02 -0.86804301541E-02 -0.27085219671E-02  0.10333734526E+01  0.10333195304E+01 0.  0.
     999903    2    3    3    0    0 -0.91338479598E-01  0.91815287255E-01 -0.39543223399E-01  0.14272869721E+00  0.45111524709E-01 0.  0.
         14    1    1    2    0    0  0.53623440576E-02  0.86804301541E-02  0.27085219671E-02  0.10556547385E-01  0.00000000000E+00 0. -1.
     999901    1    3    3    0    0  0.85976135540E-01 -0.10049571741E+00  0.36834701432E-01  0.89064475540E+00  0.88000000000E+00 0. -1.
        -11    1    4    4    0    0 -0.39031883587E-01  0.32938525662E-01  0.65199155134E-02  0.51489851703E-01  0.51100000000E-03 0.  1.
         11    1    4    4    0    0 -0.52306596010E-01  0.58876761593E-01 -0.46063138913E-01  0.91238845507E-01  0.51100000000E-03 0. -1.
</event>
<event>
 8    1  0.2928569E+004  0.1043930E+01  0.7957747E-01            NaN
         13   -1    0    0    0    0  0.00000000000E+00  0.00000000000E+00  0.74505805969E-08  0.10566000000E+00  0.10566000000E+00 0.  1.
     999900   -1    0    0    0    0 -0.00000000000E+00 -0.00000000000E+00 -0.74505805969E-08  0.93827000000E+00  0.93827000000E+00 0. -1.
     999902    2    1    2    0    0  0.10895549075E-01 -0.71963046417E-02 -0.56077266202E-02  0.10297192158E+01  0.10296211522E+01 0.  0.
     999903    2    3    3    0    0 -0.48684976021E-01  0.59249837970E-01  0.10608478788E+00  0.13818113660E+00  0.44263688305E-01 0.  0.
         14    1    1    2    0    0 -0.10895549075E-01  0.71963046417E-02  0.56077266202E-02  0.14210784214E-01  0.00000000000E+00 0.  1.
     999901    1    3    3    0    0  0.59580525096E-01 -0.66446142612E-01 -0.11169251451E+00  0.89153807918E+00  0.88000000000E+00 0. -1.
        -11    1    4    4    0    0 -0.29393705505E-01  0.55540293236E-01  0.55231573390E-01  0.83663025981E-01  0.51100000000E-03 0.  1.
         11    1    4    4    0    0 -0.19291270516E-01  0.37095447337E-02  0.50853214495E-01  0.54518110621E-01  0.51100000000E-03 0. -1.
</event>
<event>
 8    1  0.2928569E+004  0.1043930E+01  0.7957747E-01            NaN
         13   -1    0    0    0    0  0.00000000000E+00  0.00000000000E+00  0.74505805969E-08  0.10566000000E+00  0.10566000000E+00 0.  1.
     999900   -1    0    0    0    0 -0.00000000000E+00 -0.00000000000E+00 -0.74505805969E-08  0.93827000000E+00  0.93827000000E+00 0. -1.
     999902    2    1    2    0    0  0.61050146139E-03  0.12032404139E-01  0.46590602695E-02  0.10310126356E+01  0.10309317128E+01 0.  0.
     999903    2    3    3    0    0  0.20153657238E-01 -0.71367075699E-01 -0.10926293086E+00  0.13954439259E+00  0.45108979680E-01 0.  0.
         14    1    1    2    0    0 -0.61050146139E-03 -0.12032404139E-01 -0.46590602695E-02  0.12917364437E-01  0.00000000000E+00 0. -1.
     999901    1    3    3    0    0 -0.19543155777E-01  0.83399479838E-01  0.11392199113E+00  0.89146824298E+00  0.88000000000E+00 0.  1.
        -11    1    4    4    0    0  0.18672926442E-01 -0.15494064219E-01 -0.61164798888E-01  0.65803783720E-01  0.51100000000E-03 0. -1.
         11    1    4    4    0    0  0.14807307969E-02 -0.55873011480E-01 -0.48098131973E-01  0.73740608865E-01  0.51100000000E-03 0.  1.
</event>
<event>
 8    1  0.2928569E+004  0.1043930E+01  0.7957747E-01            NaN
         13   -1    0    0    0    0  0.00000000000E+00  0.00000000000E+00  0.74505805969E-08  0.10566000000E+00  0.10566000000E+00 0. -1.
     999900   -1    0    0    0    0 -0.00000000000E+00 -0.00000000000E+00 -0.74505805969E-08  0.93827000000E+00  0.93827000000E+00 0.  1.
     999902    2    1    2    0    0  0.12856129307E-01 -0.53936133396E-02 -0.50937714865E-02  0.10290868995E+01  0.10289798487E+01 0.  0.
     999903    2    3    3    0    0  0.33138141805E-01  0.24922560998E-01  0.12389886826E+00  0.13893549011E+00  0.47253257736E-01 0.  0.
         14    1    1    2    0    0 -0.12856129307E-01  0.53936133396E-02  0.50937714865E-02  0.14843100537E-01  0.00000000000E+00 0.  1.
     999901    1    3    3    0    0 -0.20282012498E-01 -0.30316174338E-01 -0.12899263975E+00  0.89015140935E+00  0.88000000000E+00 0.  1.
        -11    1    4    4    0    0  0.24355240034E-01  0.36987673255E-01  0.10981344565E+00  0.11840827528E+00  0.51100000000E-03 0.  1.
         11    1    4    4    0    0  0.87829017706E-02 -0.12065112257E-01  0.14085422618E-01  0.20527214829E-01  0.51100000000E-03 0. -1.
</event>
<event>
 8    1  0.2928569E+004  0.1043930E+01  0.7957747E-01            NaN
         13   -1    0    0    0    0  0.00000000000E+00  0.00000000000E+00  0.74505805969E-08  0.10566000000E+00  0.10566000000E+00 0.  1.
     999900   -1    0    0    0    0 -0.00000000000E+00 -0.00000000000E+00 -0.74505805969E-08  0.93827000000E+00  0.93827000000E+00 0.  1.
     999902    2    1    2    0    0 -0.13755478769E-02 -0.18046331424E-03 -0.14345162045E-01  0.10295179088E+01  0.10294170273E+01 0.  0.
     999903    2    3    3    0    0  0.18543405556E-01 -0.88626686089E-01 -0.98752092160E-01  0.14084247373E+00  0.43429014764E-01 0.  0.
         14    1    1    2    0    0  0.13755478769E-02  0.18046331424E-03  0.14345162045E-01  0.14412091210E-01  0.00000000000E+00 0.  1.
     999901    1    3    3    0    0 -0.19918953433E-01  0.88446222775E-01  0.84406930115E-01  0.88867543506E+00  0.88000000000E+00 0. -1.
        -11    1    4    4    0    0  0.56484123514E-02 -0.49258429720E-01 -0.23346558336E-01  0.54805295070E-01  0.51100000000E-03 0. -1.
         11    1    4    4    0    0  0.12894993205E-01 -0.39368256369E-01 -0.75405533824E-01  0.86037178658E-01  0.51100000000E-03 0.  1.
</event>
<event>
 8    1  0.2928569E+004  0.1043930E+01  0.7957747E-01            NaN
         13   -1    0    0    0    0  0.00000000000E+00  0.00000000000E+00  0.74505805969E-08  0.10566000000E+00  0.10566000000E+00 0.  1.
     999900   -1    0    0    0    0 -0.00000000000E+00 -0.00000000000E+00 -0.74505805969E-08  0.93827000000E+00  0.93827000000E+00 0. -1.
     999902    2    1    2    0    0 -0.92294641902E-02  0.85751967246E-02 -0.78266982513E-02  0.10290984723E+01  0.10289915896E+01 0.  0.
     999903    2    3    3    0    0 -0.13067843886E+00 -0.11404577147E-01 -0.22039892265E-01  0.14041908147E+00  0.44998253624E-01 0.  0.
         14    1    1    2    0    0  0.92294641902E-02 -0.85751967246E-02  0.78266982513E-02  0.14831527690E-01  0.00000000000E+00 0.  1.
     999901    1    3    3    0    0  0.12144897467E+00  0.19979773872E-01  0.14213194013E-01  0.88867939084E+00  0.88000000000E+00 0.  1.
        -11    1    4    4    0    0 -0.27943149955E-01 -0.13680618082E-01 -0.21203222650E-01  0.37653906999E-01  0.51100000000E-03 0.  1.
         11    1    4    4    0    0 -0.10273528890E+00  0.22760409348E-02 -0.83666961438E-03  0.10276517448E+00  0.51100000000E-03 0. -1.
</event>
<event>
 8    1  0.2928569E+004  0.1043930E+01  0.7957747E-01            NaN
         13   -1    0    0    0    0  0.00000000000E+00  0.00000000000E+00  0.74505805969E-08  0.10566000000E+00  0.10566000000E+00 0.  1.
     999900   -1    0    0    0    0 -0.00000000000E+00 -0.00000000000E+00 -0.74505805969E-08  0.93827000000E+00  0.93827000000E+00 0. -1.
     999902    2    1    2    0    0  0.48296917916E-02  0.30913247606E-02  0.12298265402E-01  0.10303605658E+01  0.10302712100E+01 0.  0.
     999903    2    3    3    0    0 -0.10863184463E+00  0.93471474910E-02 -0.74573546523E-01  0.13881170724E+00  0.42652425389E-01 0.  0.
         14    1    1    2    0    0 -0.48296917916E-02 -0.30913247606E-02 -0.12298265402E-01  0.13569434162E-01  0.00000000000E+00 0. -1.
     999901    1    3    3    0    0  0.11346153642E+00 -0.62558227304E-02  0.86871811925E-01  0.89154885860E+00  0.88000000000E+00 0.  1.
        -11    1    4    4    0    0 -0.66248467756E-01  0.15116298546E-01 -0.66887017074E-01  0.95349337364E-01  0.51100000000E-03 0. -1.
         11    1    4    4    0    0 -0.42383376873E-01 -0.57691510545E-02 -0.76865294486E-02  0.43462369873E-01  0.51100000000E-03 0.  1.
</event>
<event>
 8    1  0.2928569E+004  0.1043930E+01  0.7957747E-01            NaN
         13   -1    0    0    0    0  0.00000000000E+00  0.00000000000E+00  0.74505805969E-08  0.10566000000E+00  0.10566000000E+00 0. -1.
     999900   -1    0    0    0    0 -0.00000000000E+00 -0.00000000000E+00 -0.74505805969E-08  0.93827000000E+00  0.93827000000E+00 0. -1.
     999902    2    1    2    0    0  0.40755433832E-03 -0.68387774118E-02 -0.10877763012E-01  0.10310746235E+01  0.10309944803E+01 0.  0.
     999903    2    3    3    0    0  0.68788995709E-01 -0.17305010596E-01  0.11167088499E+00  0.13989353376E+00  0.45479939676E-01 0.  0.
         14    1    1    2    0    0 -0.40755433832E-03  0.68387774118E-02  0.10877763012E-01  0.12855376509E-01  0.00000000000E+00 0. -1.
     999901    1    3    3    0    0 -0.68381441371E-01  0.10466233184E-01 -0.12254864800E+00  0.89118108973E+00  0.88000000000E+00 0. -1.
        -11    1    4    4    0    0  0.58278538665E-02  0.19794852078E-02  0.47660418011E-01  0.48058909771E-01  0.51100000000E-03 0. -1.
         11    1    4    4    0    0  0.62961141843E-01 -0.19284495804E-01  0.64010466975E-01  0.91834623993E-01  0.51100000000E-03 0.  1.
</event>
<event>
 8    1  0.2928569E+004  0.1043930E+01  0.7957747E-01            NaN
         13   -1    0    0    0    0  0.00000000000E+00  0.00000000000E+00  0.74505805969E-08  0.10566000000E+00  0.10566000000E+00 0.  1.
     999900   -1    0    0    0    0 -0.00000000000E+00 -0.00000000000E+00 -0.74505805969E-08  0.93827000000E+00  0.93827000000E+00 0. -1.
     999902    2    1    2    0    0  0.61918998580E-02 -0.96947606047E-02  0.38080479186E-02  0.10318126886E+01  0.10317415350E+01 0.  0.
     999903    2    3    3    0    0  0.12862766951E+00  0.63040829921E-02 -0.39019812872E-01  0.14216067440E+00  0.45850765780E-01 0.  0.
         14    1    1    2    0    0 -0.61918998580E-02  0.96947606047E-02 -0.38080479186E-02  0.12117311417E-01  0.00000000000E+00 0.  1.
     999901    1    3    3    0    0 -0.12243576965E+00 -0.15998843597E-01  0.42827860791E-01  0.88965201419E+00  0.88000000000E+00 0.  1.
        -11    1    4    4    0    0  0.66589015371E-01  0.14721720409E-02  0.36512155667E-02  0.66707246643E-01  0.51100000000E-03 0. -1.
         11    1    4    4    0    0  0.62038654138E-01  0.48319109513E-02 -0.42671028439E-01  0.75453427753E-01  0.51100000000E-03 0.  1.
</event>
<event>
 8    1  0.2928569E+004  0.1043930E+01  0.7957747E-01            NaN
         13   -1    0    0    0    0  0.00000000000E+00  0.00000000000E+00  0.74505805969E-08  0.10566000000E+00  0.10566000000E+00 0. -1.
     999900   -1    0    0    0    0 -0.00000000000E+00 -0.00000000000E+00 -0.74505805969E-08  0.93827000000E+00  0.93827000000E+00 0. -1.
     999902    2    1    2    0    0 -0.12988378643E-02 -0.42486040965E-02  0.13077280408E-01  0.10301186684E+01  0.10300260765E+01 0.  0.
     999903    2    3    3    0    0  0.85453045944E-01  0.55522368274E-01 -0.82662528342E-01  0.13867906339E+00  0.44875746116E-01 0.  0.
         14    1    1    2    0    0  0.12988378643E-02  0.42486040965E-02 -0.13077280408E-01  0.13811331559E-01  0.00000000000E+00 0.  1.
     999901    1    3    3    0    0 -0.86751883809E-01 -0.59770972371E-01  0.95739808750E-01  0.89143960506E+00  0.88000000000E+00 0.  1.
        -11    1    4    4    0    0  0.66959021538E-01  0.43766414523E-01 -0.84893700957E-01  0.11664566511E+00  0.51100000000E-03 0. -1.
         11    1    4    4    0    0  0.18494024407E-01  0.11755953751E-01  0.22311726151E-02  0.22033398276E-01  0.51100000000E-03 0.  1.
</event>
<event>
 7    1  0.2928569E+004  0.1043930E+01  0.7957747E-01            NaN
         13   -1    0    0    0    0  0.00000000000E+00  0.00000000000E+00  0.74505805969E-08  0.10566000000E+00  0.10566000000E+00 0.  1.
     999900   -1    0    0    0    0 -0.00000000000E+00 -0.00000000000E+00 -0.74505805969E-08  0.93827000000E+00  0.93827000000E+00 0. -1.
     999903    2    1    2    0    0  0.58076139164E-02  0.10451448089E+00 -0.50304309351E-01  0.12455522059E+00  0.45016378606E-01 0.  0.
         14    1    1    2    0    0  0.13106530345E-01 -0.49055234203E-02  0.30245526145E-01  0.33326223151E-01  0.00000000000E+00 0.  1.
     999901    1    1    2    0    0 -0.18914144262E-01 -0.99608957468E-01  0.20058783206E-01  0.88604855626E+00  0.88000000000E+00 0. -1.
        -11    1    3    3    0    0  0.42484499808E-02  0.84226059397E-01 -0.58472832518E-01  0.10262266647E+00  0.51100000000E-03 0. -1.
         11    1    3    3    0    0  0.15591639357E-02  0.20288421491E-01  0.81685231675E-02  0.21932554126E-01  0.51100000000E-03 0.  1.
</event>
<event>
 8    1  0.2928569E+004  0.1043930E+01  0.7957747E-01            NaN
         13   -1    0    0    0    0  0.00000000000E+00  0.00000000000E+00  0.74505805969E-08  0.10566000000E+00  0.10566000000E+00 0.  1.
     999900   -1    0    0    0    0 -0.00000000000E+00 -0.00000000000E+00 -0.74505805969E-08  0.93827000000E+00  0.93827000000E+00 0. -1.
     999902    2    1    2    0    0 -0.58096164195E-02  0.12238394227E-01 -0.24996189242E-02  0.10301540053E+01  0.10300618897E+01 0.  0.
     999903    2    3    3    0    0 -0.30809269134E-01  0.28169661539E-01 -0.12684359983E+00  0.14091825840E+00  0.45010174829E-01 0.  0.
         14    1    1    2    0    0  0.58096164195E-02 -0.12238394227E-01  0.24996189242E-02  0.13775994736E-01  0.00000000000E+00 0.  1.
     999901    1    3    3    0    0  0.24999652715E-01 -0.15931267312E-01  0.12434398090E+00  0.88923574686E+00  0.88000000000E+00 0.  1.
        -11    1    4    4    0    0  0.68575522555E-02  0.41888039297E-02 -0.59953537858E-01  0.60491817000E-01  0.51100000000E-03 0. -1.
         11    1    4    4    0    0 -0.37666821390E-01  0.23980857610E-01 -0.66890061967E-01  0.80426441400E-01  0.51100000000E-03 0.  1.
</event>
<event>
 7    1  0.2928569E+004  0.1043930E+01  0.7957747E-01            NaN
         13   -1    0    0    0    0  0.00000000000E+00  0.00000000000E+00  0.74505805969E-08  0.10566000000E+00  0.10566000000E+00 0.  1.
     999900   -1    0    0    0    0 -0.00000000000E+00 -0.00000000000E+00 -0.74505805969E-08  0.93827000000E+00  0.93827000000E+00 0. -1.
     999903    2    1    2    0    0 -0.87693420185E-01  0.35527177255E-01  0.71737285650E-01  0.12743756874E+00  0.46279363735E-01 0.  0.
         14    1    1    2    0    0  0.27705373392E-01 -0.84503757426E-02  0.90451131215E-02  0.30344861779E-01  0.00000000000E+00 0.  1.
     999901    1    1    2    0    0  0.59988046792E-01 -0.27076801513E-01 -0.80782398772E-01  0.88614756948E+00  0.88000000000E+00 0. -1.
        -11    1    3    3    0    0 -0.61964582190E-01  0.32669564776E-01  0.25696303381E-01  0.74615487917E-01  0.51100000000E-03 0. -1.
         11    1    3    3    0    0 -0.25728837994E-01  0.28576124788E-02  0.46040982269E-01  0.52822080827E-01  0.51100000000E-03 0.  1.
</event>
<event>
 8    1  0.2928569E+004  0.1043930E+01  0.7957747E-01            NaN
         13   -1    0    0    0    0  0.00000000000E+00  0.00000000000E+00  0.74505805969E-08  0.10566000000E+00  0.10566000000E+00 0. -1.
     999900   -1    0    0    0    0 -0.00000000000E+00 -0.00000000000E+00 -0.74505805969E-08  0.93827000000E+00  0.93827000000E+00 0. -1.
     999902    2    1    2    0    0 -0.10215217355E-01  0.92869846413E-02 -0.28287311733E-02  0.10298374321E+01  0.10297410044E+01 0.  0.
     999903    2    3    3    0    0 -0.39365247187E-01  0.35673593448E-01 -0.12228484618E+00  0.14089663501E+00  0.45563693814E-01 0.  0.
         14    1    1    2    0    0  0.10215217355E-01 -0.92869846413E-02  0.28287311733E-02  0.14092567878E-01  0.00000000000E+00 0.  1.
     999901    1    3    3    0    0  0.29150029831E-01 -0.26386608807E-01  0.11945611501E+00  0.88894079712E+00  0.88000000000E+00 0.  1.
        -11    1    4    4    0    0 -0.44241894918E-02  0.32047100757E-01 -0.77449446308E-01  0.83936094584E-01  0.51100000000E-03 0.  1.
         11    1    4    4    0    0 -0.34941057695E-01  0.36264926911E-02 -0.44835399877E-01  0.56960540423E-01  0.51100000000E-03 0. -1.
</event>
<event>
 8    1  0.2928569E+004  0.1043930E+01  0.7957747E-01            NaN
         13   -1    0    0    0    0  0.00000000000E+00  0.00000000000E+00  0.74505805969E-08  0.10566000000E+00  0.10566000000E+00 0.  1.
     999900   -1    0    0    0    0 -0.00000000000E+00 -0.00000000000E+00 -0.74505805969E-08  0.93827000000E+00  0.93827000000E+00 0.  1.
     999902    2    1    2    0    0  0.38424438753E-03 -0.83677854963E-02 -0.10842427246E-01  0.10302286969E+01  0.10301375841E+01 0.  0.
     999903    2    3    3    0    0 -0.12112467289E+00 -0.56595758231E-01  0.10228934339E-02  0.14049214030E+00  0.43159343634E-01 0.  0.
         14    1    1    2    0    0 -0.38424438753E-03  0.83677854963E-02  0.10842427246E-01  0.13701303093E-01  0.00000000000E+00 0.  1.
     999901    1    3    3    0    0  0.12150891727E+00  0.48227972735E-01 -0.11865320679E-01  0.88973655661E+00  0.88000000000E+00 0. -1.
        -11    1    4    4    0    0 -0.43071938897E-01 -0.14017493047E-01  0.20097857811E-01  0.49556705310E-01  0.51100000000E-03 0. -1.
         11    1    4    4    0    0 -0.78052733990E-01 -0.42578265185E-01 -0.19074964377E-01  0.90935434988E-01  0.51100000000E-03 0.  1.
</event>
<event>
 8    1  0.2928569E+004  0.1043930E+01  0.7957747E-01            NaN
         13   -1    0    0    0    0  0.00000000000E+00  0.00000000000E+00  0.74505805969E-08  0.10566000000E+00  0.10566000000E+00 0. -1.
     999900   -1    0    0    0    0 -0.00000000000E+00 -0.00000000000E+00 -0.74505805969E-08  0.93827000000E+00  0.93827000000E+00 0.  1.
     999902    2    1    2    0    0  0.21166281055E-01  0.49991076426E-02  0.62701000330E-02  0.10212955863E+01  0.10210447384E+01 0.  0.
     999903    2    3    3    0    0 -0.53200581090E-01 -0.21824691474E-01 -0.10787181249E+00  0.13040932945E+00  0.45427373810E-01 0.  0.
         14    1    1    2    0    0 -0.21166281055E-01 -0.49991076426E-02 -0.62701000330E-02  0.22634413740E-01  0.00000000000E+00 0. -1.
     999901    1    3    3    0    0  0.74366862145E-01  0.26823799116E-01  0.11414191252E+00  0.89088625681E+00  0.88000000000E+00 0.  1.
        -11    1    4    4    0    0 -0.24378017676E-01 -0.38303097439E-02 -0.87216911270E-01  0.90642207337E-01  0.51100000000E-03 0. -1.
         11    1    4    4    0    0 -0.28822563414E-01 -0.17994381730E-01 -0.20654901218E-01  0.39767122110E-01  0.51100000000E-03 0.  1.
</event>
<event>
 8    1  0.2928569E+004  0.1043930E+01  0.7957747E-01            NaN
         13   -1    0    0    0    0  0.00000000000E+00  0.00000000000E+00  0.74505805969E-08  0.10566000000E+00  0.10566000000E+00 0. -1.
     999900   -1    0    0    0    0 -0.00000000000E+00 -0.00000000000E+00 -0.74505805969E-08  0.93827000000E+00  0.93827000000E+00 0. -1.
     999902    2    1    2    0    0 -0.64737879073E-02 -0.86833917454E-02 -0.93130198949E-02  0.10296456183E+01  0.10295465291E+01 0.  0.
     999903    2    3    3    0    0  0.35420002199E-01 -0.10959976575E+00  0.65224835348E-01  0.13976074028E+00  0.44856439569E-01 0.  0.
         14    1    1    2    0    0  0.64737879073E-02  0.86833917454E-02  0.93130198949E-02  0.14284381738E-01  0.00000000000E+00 0. -1.
     999901    1    3    3    0    0 -0.41893790107E-01  0.10091637400E+00 -0.74537855243E-01  0.88988487798E+00  0.88000000000E+00 0. -1.
        -11    1    4    4    0    0  0.25121240266E-01 -0.20199072805E-01  0.26734457062E-01  0.41881637624E-01  0.51100000000E-03 0.  1.
         11    1    4    4    0    0  0.10298761934E-01 -0.89400692941E-01  0.38490378286E-01  0.97879102659E-01  0.51100000000E-03 0. -1.
</event>
<event>
 8    1  0.2928569E+004  0.1043930E+01  0.7957747E-01            NaN
         13   -1    0    0    0    0  0.00000000000E+00  0.00000000000E+00  0.74505805969E-08  0.10566000000E+00  0.10566000000E+00 0. -1.
     999900   -1    0    0    0    0 -0.00000000000E+00 -0.00000000000E+00 -0.74505805969E-08  0.93827000000E+00  0.93827000000E+00 0. -1.
     999902    2    1    2    0    0 -0.26074096738E-02 -0.11747754820E-01 -0.33635536073E-03  0.10318916669E+01  0.10318214433E+01 0.  0.
     999903    2    3    3    0    0  0.12126559035E+00  0.29354130598E-01  0.47794327099E-01  0.14096493159E+00  0.44942250178E-01 0.  0.
         14    1    1    2    0    0  0.26074096738E-02  0.11747754820E-01  0.33635536073E-03  0.12038333084E-01  0.00000000000E+00 0. -1.
     999901    1    3    3    0    0 -0.12387300002E+00 -0.41101885417E-01 -0.48130682460E-01  0.89092673532E+00  0.88000000000E+00 0. -1.
        -11    1    4    4    0    0  0.87822564363E-01  0.41361522057E-01  0.34654074094E-01  0.10307640026E+00  0.51100000000E-03 0. -1.
         11    1    4    4    0    0  0.33443025983E-01 -0.12007391460E-01  0.13140253006E-01  0.37888531334E-01  0.51100000000E-03 0.  1.
</event>
<event>
 8    1  0.2928569E+004  0.1043930E+01  0.7957747E-01            NaN
         13   -1    0    0    0    0  0.00000000000E+00  0.00000000000E+00  0.74505805969E-08  0.10566000000E+00  0.10566000000E+00 0. -1.
     999900   -1    0    0    0    0 -0.00000000000E+00 -0.00000000000E+00 -0.74505805969E-08  0.93827000000E+00  0.93827000000E+00 0. -1.
     999902    2    1    2    0    0 -0.37884810620E-02  0.13539275498E-01  0.75496329163E-02  0.10279718821E+01  0.10278480086E+01 0.  0.
     999903    2    3    3    0    0 -0.59088389347E-01 -0.11412281330E+00  0.15768686953E-01  0.13700429480E+00  0.44789184339E-01 0.  0.
         14    1    1    2    0    0  0.37884810620E-02 -0.13539275498E-01 -0.75496329163E-02  0.15958117901E-01  0.00000000000E+00 0.  1.
     999901    1    3    3    0    0  0.55299908285E-01  0.12766208880E+00 -0.82190540370E-02  0.89096758730E+00  0.88000000000E+00 0.  1.
        -11    1    4    4    0    0 -0.49496221420E-01 -0.54382661635E-01  0.20417981663E-01  0.76318444151E-01  0.51100000000E-03 0. -1.
         11    1    4    4    0    0 -0.95921679273E-02 -0.59740151665E-01 -0.46492947098E-02  0.60685850647E-01  0.51100000000E-03 0.  1.
</event>
<event>
 8    1  0.2928569E+004  0.1043930E+01  0.7957747E-01            NaN
         13   -1    0    0    0    0  0.00000000000E+00  0.00000000000E+00  0.74505805969E-08  0.10566000000E+00  0.10566000000E+00 0. -1.
     999900   -1    0    0    0    0 -0.00000000000E+00 -0.00000000000E+00 -0.74505805969E-08  0.93827000000E+00  0.93827000000E+00 0. -1.
     999902    2    1    2    0    0 -0.14451152474E-01 -0.10990828600E-02  0.19147898151E-02  0.10293111693E+01  0.10292073518E+01 0.  0.
     999903    2    3    3    0    0  0.11734085793E+00 -0.45122838878E-01 -0.71897099090E-02  0.13836217131E+00  0.57336297353E-01 0.  0.
         14    1    1    2    0    0  0.14451152474E-01  0.10990828600E-02 -0.19147898151E-02  0.14618830699E-01  0.00000000000E+00 0. -1.
     999901    1    3    3    0    0 -0.13179201040E+00  0.44023756018E-01  0.91044997241E-02  0.89094899799E+00  0.88000000000E+00 0. -1.
        -11    1    4    4    0    0  0.10670746334E+00 -0.18881180536E-01 -0.13914318177E-01  0.10925589724E+00  0.51100000000E-03 0. -1.
         11    1    4    4    0    0  0.10633394590E-01 -0.26241658341E-01  0.67246082683E-02  0.29106274072E-01  0.51100000000E-03 0.  1.
</event>
<event>
 8    1  0.2928569E+004  0.1043930E+01  0.7957747E-01            NaN
         13   -1    0    0    0    0  0.00000000000E+00  0.00000000000E+00  0.74505805969E-08  0.10566000000E+00  0.10566000000E+00 0.  1.
     999900   -1    0    0    0    0 -0.00000000000E+00 -0.00000000000E+00 -0.74505805969E-08  0.93827000000E+00  0.93827000000E+00 0.  1.
     999902    2    1    2    0    0  0.12762144410E-01 -0.57713465294E-02  0.35543910497E-02  0.10294795859E+01  0.10293781635E+01 0.  0.
     999903    2    3    3    0    0  0.22135212287E-01 -0.90805500329E-01  0.95290080928E-01  0.14058471111E+00  0.44139041227E-01 0.  0.
         14    1    1    2    0    0 -0.12762144410E-01  0.57713465294E-02 -0.35543910497E-02  0.14450414057E-01  0.00000000000E+00 0.  1.
     999901    1    3    3    0    0 -0.93730678770E-02  0.85034153800E-01 -0.91735689878E-01  0.88889487484E+00  0.88000000000E+00 0.  1.
        -11    1    4    4    0    0 -0.39802774393E-02 -0.65176143573E-01  0.49344899421E-01  0.81847128962E-01  0.51100000000E-03 0.  1.
         11    1    4    4    0    0  0.26115489726E-01 -0.25629356757E-01  0.45945181506E-01  0.58737582143E-01  0.51100000000E-03 0. -1.
</event>
<event>
 8    1  0.2928569E+004  0.1043930E+01  0.7957747E-01            NaN
         13   -1    0    0    0    0  0.00000000000E+00  0.00000000000E+00  0.74505805969E-08  0.10566000000E+00  0.10566000000E+00 0. -1.
     999900   -1    0    0    0    0 -0.00000000000E+00 -0.00000000000E+00 -0.74505805969E-08  0.93827000000E+00  0.93827000000E+00 0. -1.
     999902    2    1    2    0    0 -0.12644936990E-01  0.32207694020E-02  0.40758871961E-02  0.10302595705E+01  0.10301688706E+01 0.  0.
     999903    2    3    3    0    0 -0.12434354928E+00 -0.23467499144E-01  0.46460780681E-01  0.14178597893E+00  0.43961550435E-01 0.  0.
         14    1    1    2    0    0  0.12644936990E-01 -0.32207694020E-02 -0.40758871961E-02  0.13670429528E-01  0.00000000000E+00 0.  1.
     999901    1    3    3    0    0  0.11169861229E+00  0.26688268546E-01 -0.42384893485E-01  0.88847359154E+00  0.88000000000E+00 0.  1.
        -11    1    4    4    0    0 -0.30182543004E-01 -0.21171196730E-01  0.26757346412E-01  0.45556801700E-01  0.51100000000E-03 0.  1.
         11    1    4    4    0    0 -0.94161006278E-01 -0.22963024140E-02  0.19703434269E-01  0.96229177234E-01  0.51100000000E-03 0. -1.
</event>
<event>
 8    1  0.2928569E+004  0.1043930E+01  0.7957747E-01            NaN
         13   -1    0    0    0    0  0.00000000000E+00  0.00000000000E+00  0.74505805969E-08  0.10566000000E+00  0.10566000000E+00 0.  1.
     999900   -1    0    0    0    0 -0.00000000000E+00 -0.00000000000E+00 -0.74505805969E-08  0.93827000000E+00  0.93827000000E+00 0. -1.
     999902    2    1    2    0    0 -0.12072248158E-01 -0.57056571297E-02 -0.66448984708E-02  0.10290152967E+01  0.10289072030E+01 0.  0.
     999903    2    3    3    0    0 -0.45669484302E-01  0.12296199773E+00 -0.12547141794E-01  0.13900463600E+00  0.44266278118E-01 0.  0.
         14    1    1    2    0    0  0.12072248158E-01  0.57056571297E-02  0.66448984708E-02  0.14914703301E-01  0.00000000000E+00 0.  1.
     999901    1    3    3    0    0  0.33597236144E-01 -0.12866765486E+00  0.59022433229E-02  0.89001066070E+00  0.88000000000E+00 0. -1.
        -11    1    4    4    0    0  0.69208457191E-03  0.19297981415E-01  0.12109075756E-01  0.22798725938E-01  0.51100000000E-03 0. -1.
         11    1    4    4    0    0 -0.46361568874E-01  0.10366401632E+00 -0.24656217550E-01  0.11620591006E+00  0.51100000000E-03 0.  1.
</event>
<event>
 8    1  0.2928569E+004  0.1043930E+01  0.7957747E-01            NaN
         13   -1    0    0    0    0  0.00000000000E+00  0.00000000000E+00  0.74505805969E-08  0.10566000000E+00  0.10566000000E+00 0. -1.
     999900   -1    0    0    0    0 -0.00000000000E+00 -0.00000000000E+00 -0.74505805969E-08  0.93827000000E+00  0.93827000000E+00 0. -1.
     999902    2    1    2    0    0 -0.81805786122E-02 -0.76117313281E-02 -0.80252002333E-02  0.10301726689E+01  0.10300808044E+01 0.  0.
     999903    2    3    3    0    0  0.77180076830E-01 -0.10060698364E+00 -0.40571678306E-01  0.14056948113E+00  0.45113063845E-01 0.  0.
         14    1    1    2    0    0  0.81805786122E-02  0.76117313281E-02  0.80252002333E-02  0.13757331101E-01  0.00000000000E+00 0. -1.
     999901    1    3    3    0    0 -0.85360655442E-01  0.92995252308E-01  0.32546478073E-01  0.88960318777E+00  0.88000000000E+00 0. -1.
        -11    1    4    4    0    0  0.75797658849E-01 -0.76043704108E-01 -0.21655229689E-01  0.10953145719E+00  0.51100000000E-03 0. -1.
         11    1    4    4    0    0  0.13824179812E-02 -0.24563279528E-01 -0.18916448617E-01  0.31038023938E-01  0.51100000000E-03 0.  1.
</event>
<event>
 8    1  0.2928569E+004  0.1043930E+01  0.7957747E-01            NaN
         13   -1    0    0    0    0  0.00000000000E+00  0.00000000000E+00  0.74505805969E-08  0.10566000000E+00  0.10566000000E+00 0. -1.
     999900   -1    0    0    0    0 -0.00000000000E+00 -0.00000000000E+00 -0.74505805969E-08  0.93827000000E+00  0.93827000000E+00 0.  1.
     999902    2    1    2    0    0 -0.73850408059E-02 -0.13870818078E-01  0.81847887467E-02  0.10262119530E+01  0.10260589863E+01 0.  0.
     999903    2    3    3    0    0 -0.68639930969E-01 -0.94657236471E-01  0.59872803934E-01  0.13888435970E+00  0.45085254545E-01 0.  0.
         14    1    1    2    0    0  0.73850408059E-02  0.13870818078E-01 -0.81847887467E-02  0.17718046977E-01  0.00000000000E+00 0.  1.
     999901    1    3    3    0    0  0.61254890163E-01  0.80786418393E-01 -0.51688015187E-01  0.88732759333E+00  0.88000000000E+00 0.  1.
        -11    1    4    4    0    0 -0.54895549492E-01 -0.37793484673E-01  0.35416040268E-01  0.75474670367E-01  0.51100000000E-03 0. -1.
         11    1    4    4    0    0 -0.13744381477E-01 -0.56863751798E-01  0.24456763666E-01  0.63409689328E-01  0.51100000000E-03 0.  1.
</event>
<event>
 8    1  0.2928569E+004  0.1043930E+01  0.7957747E-01            NaN
         13   -1    0    0    0    0  0.00000000000E+00  0.00000000000E+00  0.74505805969E-08  0.10566000000E+00  0.10566000000E+00 0.  1.
     999900   -1    0    0    0    0 -0.00000000000E+00 -0.00000000000E+00 -0.74505805969E-08  0.93827000000E+00  0.93827000000E+00 0. -1.
     999902    2    1    2    0    0  0.97735176649E-02  0.96097043982E-02  0.22898311616E-03  0.10302215902E+01  0.10301303822E+01 0.  0.
     999903    2    3    3    0    0 -0.10742153755E+00  0.36029124573E-01 -0.68090883735E-01  0.13943526849E+00  0.44365990388E-01 0.  0.
         14    1    1    2    0    0 -0.97735176649E-02 -0.96097043982E-02 -0.22898311616E-03  0.13708409807E-01  0.00000000000E+00 0. -1.
     999901    1    3    3    0    0  0.11719505522E+00 -0.26419420175E-01  0.68319866851E-01  0.89078632170E+00  0.88000000000E+00 0.  1.
        -11    1    4    4    0    0 -0.25503436295E-01  0.73785245187E-03 -0.37054408108E-01  0.44991776696E-01  0.51100000000E-03 0. -1.
         11    1    4    4    0    0 -0.81918101257E-01  0.35291272121E-01 -0.31036475627E-01  0.94443491792E-01  0.51100000000E-03 0.  1.
</event>
<event>
 8    1  0.2928569E+004  0.1043930E+01  0.7957747E-01            NaN
         13   -1    0    0    0    0  0.00000000000E+00  0.00000000000E+00  0.74505805969E-08  0.10566000000E+00  0.10566000000E+00 0. -1.
     999900   -1    0    0    0    0 -0.00000000000E+00 -0.00000000000E+00 -0.74505805969E-08  0.93827000000E+00  0.93827000000E+00 0.  1.
     999902    2    1    2    0    0 -0.55651784328E-02  0.26329956929E-02 -0.14060433509E-01  0.10285807437E+01  0.10284662108E+01 0.  0.
     999903    2    3    3    0    0  0.10383147605E+00 -0.58848210536E-01  0.50562922418E-01  0.13733232446E+00  0.45381393959E-01 0.  0.
         14    1    1    2    0    0  0.55651784328E-02 -0.26329956929E-02  0.14060433509E-01  0.15349256261E-01  0.00000000000E+00 0. -1.
     999901    1    3    3    0    0 -0.10939665448E+00  0.61481206229E-01 -0.64623355927E-01  0.89124841928E+00  0.88000000000E+00 0.  1.
        -11    1    4    4    0    0  0.62508001006E-01 -0.27420160927E-01  0.51332591031E-01  0.85407326607E-01  0.51100000000E-03 0.  1.
         11    1    4    4    0    0  0.41323475040E-01 -0.31428049609E-01 -0.76966861348E-03  0.51924997857E-01  0.51100000000E-03 0. -1.
</event>
<event>
 8    1  0.2928569E+004  0.1043930E+01  0.7957747E-01            NaN
         13   -1    0    0    0    0  0.00000000000E+00  0.00000000000E+00  0.74505805969E-08  0.10566000000E+00  0.10566000000E+00 0.  1.
     999900   -1    0    0    0    0 -0.00000000000E+00 -0.00000000000E+00 -0.74505805969E-08  0.93827000000E+00  0.93827000000E+00 0.  1.
     999902    2    1    2    0    0 -0.34479902121E-03  0.12977322462E-01  0.47927575941E-02  0.10300916363E+01  0.10299986791E+01 0.  0.
     999903    2    3    3    0    0 -0.49035301069E-01 -0.10502614019E-01 -0.12168797771E+00  0.13940681617E+00  0.45951396319E-01 0.  0.
         14    1    1    2    0    0  0.34479902121E-03 -0.12977322462E-01 -0.47927575941E-02  0.13838363704E-01  0.00000000000E+00 0. -1.
     999901    1    3    3    0    0  0.48690502048E-01  0.23479936480E-01  0.12648073530E+00  0.89068482013E+00  0.88000000000E+00 0. -1.
        -11    1    4    4    0    0 -0.34407614805E-01 -0.23943098906E-01 -0.51208332091E-01  0.66179380009E-01  0.51100000000E-03 0.  1.
         11    1    4    4    0    0 -0.14627686264E-01  0.13440484887E-01 -0.70479645614E-01  0.73227436158E-01  0.51100000000E-03 0. -1.
</event>
<event>
 8    1  0.2928569E+004  0.1043930E+01  0.7957747E-01            NaN
         13   -1    0    0    0    0  0.00000000000E+00  0.00000000000E+00  0.74505805969E-08  0.10566000000E+00  0.10566000000E+00 0.  1.
     999900   -1    0    0    0    0 -0.00000000000E+00 -0.00000000000E+00 -0.74505805969E-08  0.93827000000E+00  0.93827000000E+00 0.  1.
     999902    2    1    2    0    0  0.87716683941E-02  0.10060579043E-01  0.11906697690E-02  0.10305294361E+01  0.10304423049E+01 0.  0.
     999903    2    3    3    0    0  0.56625943177E-01 -0.59421188498E-01  0.10486979138E+00  0.14043556026E+00  0.44576881422E-01 0.  0.
         14    1    1    2    0    0 -0.87716683941E-02 -0.10060579043E-01 -0.11906697690E-02  0.13400563854E-01  0.00000000000E+00 0. -1.
     999901    1    3    3    0    0 -0.47854274783E-01  0.69481767540E-01 -0.10367912161E+00  0.89009387589E+00  0.88000000000E+00 0.  1.
        -11    1    4    4    0    0  0.48861881378E-01 -0.29693513822E-01  0.89170479733E-01  0.10592838992E+00  0.51100000000E-03 0. -1.
         11    1    4    4    0    0  0.77640617987E-02 -0.29727674676E-01  0.15699311649E-01  0.34507170335E-01  0.51100000000E-03 0.  1.
</event>
<event>
 8    1  0.2928569E+004  0.1043930E+01  0.7957747E-01            NaN
         13   -1    0    0    0    0  0.00000000000E+00  0.00000000000E+00  0.74505805969E-08  0.10566000000E+00  0.10566000000E+00 0. -1.
     999900   -1    0    0    0    0 -0.00000000000E+00 -0.00000000000E+00 -0.74505805969E-08  0.93827000000E+00  0.93827000000E+00 0. -1.
     999902    2    1    2    0    0 -0.82870710691E-02  0.73895126586E-02 -0.71928047806E-02  0.10307006053E+01  0.10306156999E+01 0.  0.
     999903    2    3    3    0    0  0.68676624796E-01  0.84848024482E-01  0.75130323954E-01  0.14013879997E+00  0.45592232108E-01 0.  0.
         14    1    1    2    0    0  0.82870710691E-02 -0.73895126586E-02  0.71928047806E-02  0.13229394727E-01  0.00000000000E+00 0. -1.
     999901    1    3    3    0    0 -0.76963695865E-01 -0.77458511823E-01 -0.82323128734E-01  0.89056180530E+00  0.88000000000E+00 0. -1.
        -11    1    4    4    0    0 -0.13132514337E-03  0.30331880527E-02  0.19281141031E-01  0.19525393633E-01  0.51100000000E-03 0. -1.
         11    1    4    4    0    0  0.68807949939E-01  0.81814836429E-01  0.55849182922E-01  0.12061340634E+00  0.51100000000E-03 0.  1.
</event>
<event>
 8    1  0.2928569E+004  0.1043930E+01  0.7957747E-01            NaN
         13   -1    0    0    0    0  0.00000000000E+00  0.00000000000E+00  0.74505805969E-08  0.10566000000E+00  0.10566000000E+00 0.  1.
     999900   -1    0    0    0    0 -0.00000000000E+00 -0.00000000000E+00 -0.74505805969E-08  0.93827000000E+00  0.93827000000E+00 0.  1.
     999902    2    1    2    0    0 -0.69233852786E-02 -0.12861164804E-03 -0.11166219077E-01  0.10307909645E+01  0.10307072224E+01 0.  0.
     999903    2    3    3    0    0  0.68526509541E-01 -0.10725982903E+00 -0.39387007740E-01  0.14064142806E+00  0.45034669690E-01 0.  0.
         14    1    1    2    0    0  0.69233852786E-02  0.12861164804E-03  0.11166219077E-01  0.13139035472E-01  0.00000000000E+00 0. -1.
     999901    1    3    3    0    0 -0.75449894820E-01  0.10713121738E+00  0.28220788663E-01  0.89014953647E+00  0.88000000000E+00 0. -1.
        -11    1    4    4    0    0  0.37010520243E-01 -0.32818439975E-01  0.26233725782E-02  0.49537579834E-01  0.51100000000E-03 0. -1.
         11    1    4    4    0    0  0.31515989298E-01 -0.74441389054E-01 -0.42010380318E-01  0.91103848224E-01  0.51100000000E-03 0.  1.
</event>
<event>
 8    1  0.2928569E+004  0.1043930E+01  0.7957747E-01            NaN
         13   -1    0    0    0    0  0.00000000000E+00  0.00000000000E+00  0.74505805969E-08  0.10566000000E+00  0.10566000000E+00 0. -1.
     999900   -1    0    0    0    0 -0.00000000000E+00 -0.00000000000E+00 -0.74505805969E-08  0.93827000000E+00  0.93827000000E+00 0. -1.
     999902    2    1    2    0    0 -0.93419815399E-02 -0.83060700042E-02 -0.43259296885E-02  0.10307021096E+01  0.10306172236E+01 0.  0.
     999903    2    3    3    0    0  0.12754536404E+00 -0.48776317943E-02  0.16691261059E-01  0.13986451387E+00  0.54698015198E-01 0.  0.
         14    1    1    2    0    0  0.93419815399E-02  0.83060700042E-02  0.43259296885E-02  0.13227890447E-01  0.00000000000E+00 0. -1.
     999901    1    3    3    0    0 -0.13688734558E+00 -0.34284382099E-02 -0.21017190748E-01  0.89083759568E+00  0.88000000000E+00 0. -1.
        -11    1    4    4    0    0  0.56143577722E-01  0.16816902885E-01 -0.12153824135E-01  0.59857214304E-01  0.51100000000E-03 0.  1.
         11    1    4    4    0    0  0.71401786313E-01 -0.21694534680E-01  0.28845085194E-01  0.80007299571E-01  0.51100000000E-03 0. -1.
</event>
<event>
 7    1  0.2928569E+004  0.1043930E+01  0.7957747E-01            NaN
         13   -1    0    0    0    0  0.00000000000E+00  0.00000000000E+00  0.74505805969E-08  0.10566000000E+00  0.10566000000E+00 0.  1.
     999900   -1    0    0    0    0 -0.00000000000E+00 -0.00000000000E+00 -0.74505805969E-08  0.93827000000E+00  0.93827000000E+00 0.  1.
     999903    2    1    2    0    0  0.90708261779E-02  0.67939455824E-01 -0.89165917520E-01  0.12108167727E+00  0.44857130729E-01 0.  0.
         14    1    1    2    0    0  0.21264791631E-01  0.21265368265E-01 -0.11317661812E-01  0.32132486979E-01  0.00000000000E+00 0.  1.
     999901    1    1    2    0    0 -0.30335617808E-01 -0.89204824090E-01  0.10048357933E+00  0.89071583575E+00  0.88000000000E+00 0.  1.
        -11    1    3    3    0    0  0.17905157187E-01  0.21303772267E-01 -0.57898129460E-01  0.64240951757E-01  0.51100000000E-03 0.  1.
         11    1    3    3    0    0 -0.88343310094E-02  0.46635683558E-01 -0.31267788060E-01  0.56840725509E-01  0.51100000000E-03 0. -1.
</event>
<event>
 8    1  0.2928569E+004  0.1043930E+01  0.7957747E-01            NaN
         13   -1    0    0    0    0  0.00000000000E+00  0.00000000000E+00  0.74505805969E-08  0.10566000000E+00  0.10566000000E+00 0.  1.
     999900   -1    0    0    0    0 -0.00000000000E+00 -0.00000000000E+00 -0.74505805969E-08  0.93827000000E+00  0.93827000000E+00 0. -1.
     999902    2    1    2    0    0 -0.81052061186E-02  0.98667046259E-02 -0.24930122720E-02  0.10309199525E+01  0.10308378568E+01 0.  0.
     999903    2    3    3    0    0 -0.14260593200E-01 -0.12115329587E+00  0.50158185462E-01  0.13964206206E+00  0.45853858168E-01 0.  0.
         14    1    1    2    0    0  0.81052061186E-02 -0.98667046259E-02  0.24930122720E-02  0.13010047524E-01  0.00000000000E+00 0. -1.
     999901    1    3    3    0    0  0.61553870816E-02  0.13102000050E+00 -0.52651197734E-01  0.89127789042E+00  0.88000000000E+00 0.  1.
        -11    1    4    4    0    0  0.26586741541E-02 -0.10735244355E+00  0.48220817300E-01  0.11771628616E+00  0.51100000000E-03 0. -1.
         11    1    4    4    0    0 -0.16919267354E-01 -0.13800852319E-01  0.19373681625E-02  0.21925775903E-01  0.51100000000E-03 0.  1.
</event>
<event>
 8    1  0.2928569E+004  0.1043930E+01  0.7957747E-01            NaN
         13   -1    0    0    0    0  0.00000000000E+00  0.00000000000E+00  0.74505805969E-08  0.10566000000E+00  0.10566000000E+00 0. -1.
     999900   -1    0    0    0    0 -0.00000000000E+00 -0.00000000000E+00 -0.74505805969E-08  0.93827000000E+00  0.93827000000E+00 0.  1.
     999902    2    1    2    0    0 -0.55467532033E-03  0.10220564802E-01  0.75264636881E-02  0.10312250693E+01  0.10311468024E+01 0.  0.
     999903    2    3    3    0    0 -0.93773349208E-01 -0.42444187697E-01 -0.83529088196E-01  0.14007165326E+00  0.45254937633E-01 0.  0.
         14    1    1    2    0    0  0.55467532033E-03 -0.10220564802E-01 -0.75264636881E-02  0.12704930745E-01  0.00000000000E+00 0. -1.
     999901    1    3    3    0    0  0.93218673888E-01  0.52664752499E-01  0.91055551884E-01  0.89115341600E+00  0.88000000000E+00 0. -1.
        -11    1    4    4    0    0 -0.26691398237E-01 -0.63583886693E-02 -0.49594642846E-01  0.56681121780E-01  0.51100000000E-03 0.  1.
         11    1    4    4    0    0 -0.67081950972E-01 -0.36085799028E-01 -0.33934445350E-01  0.83390531476E-01  0.51100000000E-03 0. -1.
</event>
<event>
 8    1  0.2928569E+004  0.1043930E+01  0.7957747E-01            NaN
         13   -1    0    0    0    0  0.00000000000E+00  0.00000000000E+00  0.74505805969E-08  0.10566000000E+00  0.10566000000E+00 0.  1.
     999900   -1    0    0    0    0 -0.00000000000E+00 -0.00000000000E+00 -0.74505805969E-08  0.93827000000E+00  0.93827000000E+00 0. -1.
     999902    2    1    2    0    0 -0.75479279740E-02 -0.90970783666E-02 -0.71486663157E-02  0.10301158232E+01  0.10300231928E+01 0.  0.
     999903    2    3    3    0    0  0.92735286273E-01  0.50994609181E-01  0.78964221551E-01  0.13821719472E+00  0.40845576806E-01 0.  0.
         14    1    1    2    0    0  0.75479279740E-02  0.90970783666E-02  0.71486663157E-02  0.13814176834E-01  0.00000000000E+00 0. -1.
     999901    1    3    3    0    0 -0.10028321425E+00 -0.60091687547E-01 -0.86112887867E-01  0.89189862845E+00  0.88000000000E+00 0. -1.
        -11    1    4    4    0    0  0.89955226563E-01  0.38062091850E-01  0.77898776830E-01  0.12493656860E+00  0.51100000000E-03 0.  1.
         11    1    4    4    0    0  0.27800597107E-02  0.12932517330E-01  0.10654447210E-02  0.13280626113E-01  0.51100000000E-03 0. -1.
</event>
<event>
 8    1  0.2928569E+004  0.1043930E+01  0.7957747E-01            NaN
         13   -1    0    0    0    0  0.00000000000E+00  0.00000000000E+00  0.74505805969E-08  0.10566000000E+00  0.10566000000E+00 0. -1.
     999900   -1    0    0    0    0 -0.00000000000E+00 -0.00000000000E+00 -0.74505805969E-08  0.93827000000E+00  0.93827000000E+00 0. -1.
     999902    2    1    2    0    0 -0.10228269054E-03  0.75034318460E-02 -0.12302120083E-01  0.10295197915E+01  0.10294189366E+01 0.  0.
     999903    2    3    3    0    0 -0.89766715767E-01 -0.73800408903E-01  0.59103277441E-01  0.13836954832E+00  0.46350521940E-01 0.  0.
         14    1    1    2    0    0  0.10228269054E-03 -0.75034318460E-02  0.12302120083E-01  0.14410208525E-01  0.00000000000E+00 0. -1.
     999901    1    3    3    0    0  0.89664433076E-01  0.81303840749E-01 -0.71405397524E-01  0.89115024315E+00  0.88000000000E+00 0. -1.
        -11    1    4    4    0    0 -0.66536862400E-01 -0.25478078521E-01  0.29437950855E-01  0.77091767489E-01  0.51100000000E-03 0. -1.
         11    1    4    4    0    0 -0.23229853367E-01 -0.48322330382E-01  0.29665326587E-01  0.61277780830E-01  0.51100000000E-03 0.  1.
</event>
<event>
 8    1  0.2928569E+004  0.1043930E+01  0.7957747E-01            NaN
         13   -1    0    0    0    0  0.00000000000E+00  0.00000000000E+00  0.74505805969E-08  0.10566000000E+00  0.10566000000E+00 0.  1.
     999900   -1    0    0    0    0 -0.00000000000E+00 -0.00000000000E+00 -0.74505805969E-08  0.93827000000E+00  0.93827000000E+00 0. -1.
     999902    2    1    2    0    0 -0.35241796557E-02  0.93960014595E-02  0.76857684974E-02  0.10312897578E+01  0.10312122909E+01 0.  0.
     999903    2    3    3    0    0 -0.39021072055E-01  0.91157279540E-01 -0.90240690790E-01  0.14138272479E+00  0.44870913924E-01 0.  0.
         14    1    1    2    0    0  0.35241796557E-02 -0.93960014595E-02 -0.76857684974E-02  0.12640242208E-01  0.00000000000E+00 0. -1.
     999901    1    3    3    0    0  0.35496892400E-01 -0.81761278081E-01  0.97926459288E-01  0.88990703301E+00  0.88000000000E+00 0.  1.
        -11    1    4    4    0    0 -0.18534807092E-01  0.12537978492E-01 -0.40059969312E-01  0.45889020919E-01  0.51100000000E-03 0. -1.
         11    1    4    4    0    0 -0.20486264963E-01  0.78619301048E-01 -0.50180721478E-01  0.95493703868E-01  0.51100000000E-03 0.  1.
</event>
<event>
 8    1  0.2928569E+004  0.1043930E+01  0.7957747E-01            NaN
         13   -1    0    0    0    0  0.00000000000E+00  0.00000000000E+00  0.74505805969E-08  0.10566000000E+00  0.10566000000E+00 0.  1.
     999900   -1    0    0    0    0 -0.00000000000E+00 -0.00000000000E+00 -0.74505805969E-08  0.93827000000E+00  0.93827000000E+00 0.  1.
     999902    2    1    2    0    0  0.16163551159E-02 -0.33692608471E-03 -0.14003641993E-01  0.10298293577E+01  0.10297328187E+01 0.  0.
     999903    2    3    3    0    0 -0.82886242586E-01 -0.10246771900E+00  0.12918981350E-01  0.13949446820E+00  0.43841121481E-01 0.  0.
         14    1    1    2    0    0 -0.16163551159E-02  0.33692608471E-03  0.14003641993E-01  0.14100642259E-01  0.00000000000E+00 0.  1.
     999901    1    3    3    0    0  0.84502597702E-01  0.10213079292E+00 -0.26922623343E-01  0.89033488954E+00  0.88000000000E+00 0.  1.
        -11    1    4    4    0    0 -0.33332136208E-01 -0.37893635371E-01  0.26447281997E-01  0.56979634536E-01  0.51100000000E-03 0. -1.
         11    1    4    4    0    0 -0.49554106377E-01 -0.64574083631E-01 -0.13528300648E-01  0.82514833667E-01  0.51100000000E-03 0.  1.
</event>
<event>
 8    1  0.2928569E+004  0.1043930E+01  0.7957747E-01            NaN
         13   -1    0    0    0    0  0.00000000000E+00  0.00000000000E+00  0.74505805969E-08  0.10566000000E+00  0.10566000000E+00 0.  1.
     999900   -1    0    0    0    0 -0.00000000000E+00 -0.00000000000E+00 -0.74505805969E-08  0.93827000000E+00  0.93827000000E+00 0.  1.
     999902    2    1    2    0    0  0.19059749881E-02 -0.37689129625E-03 -0.14036274260E-01  0.10297598983E+01  0.10296623992E+01 0.  0.
     999903    2    3    3    0    0  0.10862005387E+00  0.18434209168E-01  0.72251442770E-01  0.13892471586E+00  0.44064379286E-01 0.  0.
         14    1    1    2    0    0 -0.19059749881E-02  0.37689129625E-03  0.14036274260E-01  0.14170101722E-01  0.00000000000E+00 0.  1.
     999901    1    3    3    0    0 -0.10671407889E+00 -0.18811100464E-01 -0.86287717030E-01  0.89083518242E+00  0.88000000000E+00 0.  1.
        -11    1    4    4    0    0  0.44638555736E-01 -0.13665134079E-01  0.23080776181E-01  0.52079937574E-01  0.51100000000E-03 0.  1.
         11    1    4    4    0    0  0.63981498138E-01  0.32099343247E-01  0.49170666589E-01  0.86844778281E-01  0.51100000000E-03 0. -1.
</event>
<event>
 8    1  0.2928569E+004  0.1043930E+01  0.7957747E-01            NaN
         13   -1    0    0    0    0  0.00000000000E+00  0.00000000000E+00  0.74505805969E-08  0.10566000000E+00  0.10566000000E+00 0. -1.
     999900   -1    0    0    0    0 -0.00000000000E+00 -0.00000000000E+00 -0.74505805969E-08  0.93827000000E+00  0.93827000000E+00 0. -1.
     999902    2    1    2    0    0 -0.75300666953E-02 -0.13216013884E-01  0.81709303254E-02  0.10266635867E+01  0.10265183832E+01 0.  0.
     999903    2    3    3    0    0 -0.28056694707E-01  0.36461610151E-01  0.11884144601E+00  0.13810454426E+00  0.53225451826E-01 0.  0.
         14    1    1    2    0    0  0.75300666953E-02  0.13216013884E-01 -0.81709303254E-02  0.17266413345E-01  0.00000000000E+00 0.  1.
     999901    1    3    3    0    0  0.20526628012E-01 -0.49677624035E-01 -0.11067051568E+00  0.88855904240E+00  0.88000000000E+00 0. -1.
        -11    1    4    4    0    0 -0.32459657526E-01  0.67163380919E-02  0.92014575889E-01  0.97804303899E-01  0.51100000000E-03 0. -1.
         11    1    4    4    0    0  0.44029628186E-02  0.29745272059E-01  0.26826870119E-01  0.40300240357E-01  0.51100000000E-03 0.  1.
</event>
<event>
 8    1  0.2928569E+004  0.1043930E+01  0.7957747E-01            NaN
         13   -1    0    0    0    0  0.00000000000E+00  0.00000000000E+00  0.74505805969E-08  0.10566000000E+00  0.10566000000E+00 0. -1.
     999900   -1    0    0    0    0 -0.00000000000E+00 -0.00000000000E+00 -0.74505805969E-08  0.93827000000E+00  0.93827000000E+00 0. -1.
     999902    2    1    2    0    0 -0.12043242877E-03  0.88096193355E-02  0.10881959015E-01  0.10299285383E+01  0.10298333618E+01 0.  0.
     999903    2    3    3    0    0 -0.50309201864E-01  0.11271658325E+00 -0.49401067793E-01  0.14035020392E+00  0.44962988234E-01 0.  0.
         14    1    1    2    0    0  0.12043242877E-03 -0.88096193355E-02 -0.10881959015E-01  0.14001461667E-01  0.00000000000E+00 0.  1.
     999901    1    3    3    0    0  0.50188769436E-01 -0.10390696391E+00  0.60283026809E-01  0.88957833441E+00  0.88000000000E+00 0.  1.
        -11    1    4    4    0    0  0.66212646695E-02  0.30883124317E-01 -0.96867469765E-02  0.33040924645E-01  0.51100000000E-03 0. -1.
         11    1    4    4    0    0 -0.56930466534E-01  0.81833458933E-01 -0.39714320817E-01  0.10730927928E+00  0.51100000000E-03 0.  1.
</event>
<event>
 8    1  0.2928569E+004  0.1043930E+01  0.7957747E-01            NaN
         13   -1    0    0    0    0  0.00000000000E+00  0.00000000000E+00  0.74505805969E-08  0.10566000000E+00  0.10566000000E+00 0.  1.
     999900   -1    0    0    0    0 -0.00000000000E+00 -0.00000000000E+00 -0.74505805969E-08  0.93827000000E+00  0.93827000000E+00 0. -1.
     999902    2    1    2    0    0  0.16055617035E-01 -0.30885442856E-02 -0.99290715847E-03  0.10275498959E+01  0.10274193306E+01 0.  0.
     999903    2    3    3    0    0 -0.67433576138E-01 -0.10909539191E+00 -0.15622621847E-01  0.13714441210E+00  0.45993822718E-01 0.  0.
         14    1    1    2    0    0 -0.16055617035E-01  0.30885442856E-02  0.99290715847E-03  0.16380104053E-01  0.00000000000E+00 0. -1.
     999901    1    3    3    0    0  0.83489193172E-01  0.10600684763E+00  0.14629714688E-01  0.89040548385E+00  0.88000000000E+00 0.  1.
        -11    1    4    4    0    0 -0.37000766977E-01 -0.22578245102E-01  0.33851217006E-02  0.43480502282E-01  0.51100000000E-03 0.  1.
         11    1    4    4    0    0 -0.30432809160E-01 -0.86517146811E-01 -0.19007743547E-01  0.93663909813E-01  0.51100000000E-03 0. -1.
</event>
<event>
 8    1  0.2928569E+004  0.1043930E+01  0.7957747E-01            NaN
         13   -1    0    0    0    0  0.00000000000E+00  0.00000000000E+00  0.74505805969E-08  0.10566000000E+00  0.10566000000E+00 0. -1.
     999900   -1    0    0    0    0 -0.00000000000E+00 -0.00000000000E+00 -0.74505805969E-08  0.93827000000E+00  0.93827000000E+00 0. -1.
     999902    2    1    2    0    0  0.76957163150E-02  0.52901260985E-02 -0.10295885825E-01  0.10300298292E+01  0.10299360341E+01 0.  0.
     999903    2    3    3    0    0  0.11107376979E+00  0.67077431302E-01 -0.33800354909E-01  0.14151581518E+00  0.45249285394E-01 0.  0.
         14    1    1    2    0    0 -0.76957163150E-02 -0.52901260985E-02  0.10295885825E-01  0.13900170814E-01  0.00000000000E+00 0.  1.
     999901    1    3    3    0    0 -0.10337805347E+00 -0.61787305203E-01  0.23504469084E-01  0.88851401401E+00  0.88000000000E+00 0. -1.
        -11    1    4    4    0    0  0.59172956491E-01  0.13671558077E-01 -0.26519690974E-02  0.60791811465E-01  0.51100000000E-03 0.  1.
         11    1    4    4    0    0  0.51900813295E-01  0.53405873224E-01 -0.31148385812E-01  0.80724003712E-01  0.51100000000E-03 0. -1.
</event>
<event>
 8    1  0.2928569E+004  0.1043930E+01  0.7957747E-01            NaN
         13   -1    0    0    0    0  0.00000000000E+00  0.00000000000E+00  0.74505805969E-08  0.10566000000E+00  0.10566000000E+00 0.  1.
     999900   -1    0    0    0    0 -0.00000000000E+00 -0.00000000000E+00 -0.74505805969E-08  0.93827000000E+00  0.93827000000E+00 0.  1.
     999902    2    1    2    0    0 -0.65517493714E-02  0.46882072051E-02 -0.16524757564E-01  0.10255459765E+01  0.10253811865E+01 0.  0.
     999903    2    3    3    0    0  0.70154829017E-01  0.27670642219E-01 -0.10580085288E+00  0.13741180159E+00  0.44730507159E-01 0.  0.
         14    1    1    2    0    0  0.65517493714E-02 -0.46882072051E-02  0.16524757564E-01  0.18384023476E-01  0.00000000000E+00 0.  1.
     999901    1    3    3    0    0 -0.76706578388E-01 -0.22982435014E-01  0.89276095319E-01  0.88813417493E+00  0.88000000000E+00 0.  1.
        -11    1    4    4    0    0  0.22269178167E-01  0.31507968273E-01 -0.36706620170E-01  0.53256975565E-01  0.51100000000E-03 0.  1.
         11    1    4    4    0    0  0.47885650849E-01 -0.38373260539E-02 -0.69094232713E-01  0.84154826027E-01  0.51100000000E-03 0. -1.
</event>
<event>
 8    1  0.2928569E+004  0.1043930E+01  0.7957747E-01            NaN
         13   -1    0    0    0    0  0.00000000000E+00  0.00000000000E+00  0.74505805969E-08  0.10566000000E+00  0.10566000000E+00 0. -1.
     999900   -1    0    0    0    0 -0.00000000000E+00 -0.00000000000E+00 -0.74505805969E-08  0.93827000000E+00  0.93827000000E+00 0. -1.
     999902    2    1    2    0    0 -0.55433728098E-02 -0.39336372440E-03  0.13145140683E-01  0.10296584044E+01  0.10295594938E+01 0.  0.
     999903    2    3    3    0    0  0.76308006799E-01  0.63523733689E-01  0.88580442405E-01  0.14034657584E+00  0.44637315445E-01 0.  0.
         14    1    1    2    0    0  0.55433728098E-02  0.39336372440E-03 -0.13145140683E-01  0.14271595591E-01  0.00000000000E+00 0.  1.
     999901    1    3    3    0    0 -0.81851379609E-01 -0.63917097413E-01 -0.75435301722E-01  0.88931182857E+00  0.88000000000E+00 0. -1.
        -11    1    4    4    0    0  0.53319419528E-01  0.37490597251E-01  0.28916783675E-01  0.71308813481E-01  0.51100000000E-03 0. -1.
         11    1    4    4    0    0  0.22988587271E-01  0.26033136438E-01  0.59663658730E-01  0.69037762359E-01  0.51100000000E-03 0.  1.
</event>
<event>
 8    1  0.2928569E+004  0.1043930E+01  0.7957747E-01            NaN
         13   -1    0    0    0    0  0.00000000000E+00  0.00000000000E+00  0.74505805969E-08  0.10566000000E+00  0.10566000000E+00 0.  1.
     999900   -1    0    0    0    0 -0.00000000000E+00 -0.00000000000E+00 -0.74505805969E-08  0.93827000000E+00  0.93827000000E+00 0. -1.
     999902    2    1    2    0    0  0.30061491786E-02  0.13842178492E-01  0.13371366922E-02  0.10297021831E+01  0.10296038827E+01 0.  0.
     999903    2    3    3    0    0  0.23709177923E-01  0.85194846252E-01  0.10050992219E+00  0.14102054161E+00  0.44319992682E-01 0.  0.
         14    1    1    2    0    0 -0.30061491786E-02 -0.13842178492E-01 -0.13371366922E-02  0.14227816868E-01  0.00000000000E+00 0.  1.
     999901    1    3    3    0    0 -0.20703028744E-01 -0.71352667760E-01 -0.99172785499E-01  0.88868164152E+00  0.88000000000E+00 0. -1.
        -11    1    4    4    0    0  0.22508648684E-01  0.11641487770E-01  0.26428319302E-01  0.36618037703E-01  0.51100000000E-03 0. -1.
         11    1    4    4    0    0  0.12005292392E-02  0.73553358482E-01  0.74081602889E-01  0.10440250391E+00  0.51100000000E-03 0.  1.
</event>
<event>
 8    1  0.2928569E+004  0.1043930E+01  0.7957747E-01            NaN
         13   -1    0    0    0    0  0.00000000000E+00  0.00000000000E+00  0.74505805969E-08  0.10566000000E+00  0.10566000000E+00 0.  1.
     999900   -1    0    0    0    0 -0.00000000000E+00 -0.00000000000E+00 -0.74505805969E-08  0.93827000000E+00  0.93827000000E+00 0.  1.
     999902    2    1    2    0    0  0.44537082185E-02  0.32165492695E-02  0.11694278058E-01  0.10310095571E+01  0.10309285955E+01 0.  0.
     999903    2    3    3    0    0 -0.39779457483E-02  0.83369519881E-01  0.10625298513E+00  0.14228184817E+00  0.44588412983E-01 0.  0.
         14    1    1    2    0    0 -0.44537082185E-02 -0.32165492695E-02 -0.11694278058E-01  0.12920442926E-01  0.00000000000E+00 0. -1.
     999901    1    3    3    0    0  0.84316539667E-02 -0.80152970611E-01 -0.94558707073E-01  0.88872770890E+00  0.88000000000E+00 0.  1.
        -11    1    4    4    0    0 -0.23944674747E-01  0.36222630843E-01  0.48612720873E-01  0.65183465584E-01  0.51100000000E-03 0.  1.
         11    1    4    4    0    0  0.19966728998E-01  0.47146889038E-01  0.57640264259E-01  0.77098382588E-01  0.51100000000E-03 0. -1.
</event>
<event>
 8    1  0.2928569E+004  0.1043930E+01  0.7957747E-01            NaN
         13   -1    0    0    0    0  0.00000000000E+00  0.00000000000E+00  0.74505805969E-08  0.10566000000E+00  0.10566000000E+00 0.  1.
     999900   -1    0    0    0    0 -0.00000000000E+00 -0.00000000000E+00 -0.74505805969E-08  0.93827000000E+00  0.93827000000E+00 0. -1.
     999902    2    1    2    0    0  0.44928898128E-02  0.11065950389E-01  0.33798610964E-02  0.10315177167E+01  0.10314430353E+01 0.  0.
     999903    2    3    3    0    0 -0.11819634700E+00 -0.83041767432E-02 -0.60794031989E-01  0.14048116341E+00  0.44718085285E-01 0.  0.
         14    1    1    2    0    0 -0.44928898128E-02 -0.11065950389E-01 -0.33798610964E-02  0.12412283348E-01  0.00000000000E+00 0.  1.
     999901    1    3    3    0    0  0.12268923682E+00  0.19370127132E-01  0.64173893085E-01  0.89103655324E+00  0.88000000000E+00 0.  1.
        -11    1    4    4    0    0 -0.98180605627E-01 -0.22544536242E-01 -0.56622266924E-01  0.11555963685E+00  0.51100000000E-03 0. -1.
         11    1    4    4    0    0 -0.20015741377E-01  0.14240359499E-01 -0.41717650647E-02  0.24921526565E-01  0.51100000000E-03 0.  1.
</event>
<event>
 7    1  0.2928569E+004  0.1043930E+01  0.7957747E-01            NaN
         13   -1    0    0    0    0  0.00000000000E+00  0.00000000000E+00  0.74505805969E-08  0.10566000000E+00  0.10566000000E+00 0. -1.
     999900   -1    0    0    0    0 -0.00000000000E+00 -0.00000000000E+00 -0.74505805969E-08  0.93827000000E+00  0.93827000000E+00 0. -1.
     999903    2    1    2    0    0  0.16553142308E-02  0.40093569238E-01  0.92457434005E-01  0.11062529700E+00  0.45599834152E-01 0.  0.
         14    1    1    2    0    0  0.31802808532E-01  0.31480510627E-01  0.15679515274E-02  0.44776105814E-01  0.00000000000E+00 0.  1.
     999901    1    1    2    0    0 -0.33458122763E-01 -0.71574079866E-01 -0.94025385532E-01  0.88852859718E+00  0.88000000000E+00 0. -1.
        -11    1    3    3    0    0 -0.17760582678E-01  0.36990694128E-01  0.64271003971E-01  0.76254657704E-01  0.51100000000E-03 0.  1.
         11    1    3    3    0    0  0.19415896909E-01  0.31028751107E-02  0.28186430034E-01  0.34370639299E-01  0.51100000000E-03 0. -1.
</event>
<event>
 8    1  0.2928569E+004  0.1043930E+01  0.7957747E-01            NaN
         13   -1    0    0    0    0  0.00000000000E+00  0.00000000000E+00  0.74505805969E-08  0.10566000000E+00  0.10566000000E+00 0.  1.
     999900   -1    0    0    0    0 -0.00000000000E+00 -0.00000000000E+00 -0.74505805969E-08  0.93827000000E+00  0.93827000000E+00 0. -1.
     999902    2    1    2    0    0  0.11778991788E-01 -0.74394304934E-02  0.61358407972E-03  0.10299848840E+01  0.10298904772E+01 0.  0.
     999903    2    3    3    0    0  0.10185919767E+00 -0.76327865530E-01 -0.42950080461E-01  0.14163931342E+00  0.44897065490E-01 0.  0.
         14    1    1    2    0    0 -0.11778991788E-01  0.74394304934E-02 -0.61358407972E-03  0.13945115956E-01  0.00000000000E+00 0.  1.
     999901    1    3    3    0    0 -0.90080205878E-01  0.68888435037E-01  0.43563664541E-01  0.88834557062E+00  0.88000000000E+00 0.  1.
        -11    1    4    4    0    0  0.63696083789E-01 -0.63517463827E-01 -0.11778134409E-01  0.90722901586E-01  0.51100000000E-03 0. -1.
         11    1    4    4    0    0  0.38163113878E-01 -0.12810401703E-01 -0.31171946052E-01  0.50916411837E-01  0.51100000000E-03 0.  1.
</event>
<event>
 8    1  0.2928569E+004  0.1043930E+01  0.7957747E-01            NaN
         13   -1    0    0    0    0  0.00000000000E+00  0.00000000000E+00  0.74505805969E-08  0.10566000000E+00  0.10566000000E+00 0.  1.
     999900   -1    0    0    0    0 -0.00000000000E+00 -0.00000000000E+00 -0.74505805969E-08  0.93827000000E+00  0.93827000000E+00 0. -1.
     999902    2    1    2    0    0  0.98098013742E-02 -0.11112463950E-02  0.10980765388E-01  0.10291636775E+01  0.10290577393E+01 0.  0.
     999903    2    3    3    0    0 -0.10782454299E+00 -0.34075276352E-01 -0.64226636513E-01  0.13754682058E+00  0.44797438386E-01 0.  0.
         14    1    1    2    0    0 -0.98098013742E-02  0.11112463950E-02 -0.10980765388E-01  0.14766322496E-01  0.00000000000E+00 0.  1.
     999901    1    3    3    0    0  0.11763434436E+00  0.32964029957E-01  0.75207401902E-01  0.89161685692E+00  0.88000000000E+00 0. -1.
        -11    1    4    4    0    0 -0.85856732372E-01 -0.87424437896E-02 -0.35237419437E-01  0.93218805327E-01  0.51100000000E-03 0. -1.
         11    1    4    4    0    0 -0.21967810614E-01 -0.25332832562E-01 -0.28989217076E-01  0.44328015256E-01  0.51100000000E-03 0.  1.
</event>
<event>
 8    1  0.2928569E+004  0.1043930E+01  0.7957747E-01            NaN
         13   -1    0    0    0    0  0.00000000000E+00  0.00000000000E+00  0.74505805969E-08  0.10566000000E+00  0.10566000000E+00 0.  1.
     999900   -1    0    0    0    0 -0.00000000000E+00 -0.00000000000E+00 -0.74505805969E-08  0.93827000000E+00  0.93827000000E+00 0.  1.
     999902    2    1    2    0    0 -0.74172121162E-02 -0.35682525384E-02 -0.22286724733E-01  0.10201719369E+01  0.10198952570E+01 0.  0.
     999903    2    3    3    0    0  0.11426707588E+00  0.11163627819E-01 -0.44253487716E-01  0.13140501983E+00  0.46122845156E-01 0.  0.
         14    1    1    2    0    0  0.74172121162E-02  0.35682525384E-02  0.22286724733E-01  0.23758063075E-01  0.00000000000E+00 0.  1.
     999901    1    3    3    0    0 -0.12168428800E+00 -0.14731880358E-01  0.21966762983E-01  0.88876691709E+00  0.88000000000E+00 0. -1.
        -11    1    4    4    0    0  0.57730472283E-01  0.34919063161E-02  0.21236032690E-02  0.57877211850E-01  0.51100000000E-03 0.  1.
         11    1    4    4    0    0  0.56536603599E-01  0.76717215033E-02 -0.46377090985E-01  0.73527807981E-01  0.51100000000E-03 0. -1.
</event>
<event>
 8    1  0.2928569E+004  0.1043930E+01  0.7957747E-01            NaN
         13   -1    0    0    0    0  0.00000000000E+00  0.00000000000E+00  0.74505805969E-08  0.10566000000E+00  0.10566000000E+00 0. -1.
     999900   -1    0    0    0    0 -0.00000000000E+00 -0.00000000000E+00 -0.74505805969E-08  0.93827000000E+00  0.93827000000E+00 0. -1.
     999902    2    1    2    0    0  0.13967475756E-02 -0.60393483584E-02 -0.15278763807E-01  0.10274416630E+01  0.10273093525E+01 0.  0.
     999903    2    3    3    0    0 -0.10038423413E+00  0.81269283606E-01 -0.57076038911E-02  0.13723170322E+00  0.46024696694E-01 0.  0.
         14    1    1    2    0    0 -0.13967475756E-02  0.60393483584E-02  0.15278763807E-01  0.16488336965E-01  0.00000000000E+00 0. -1.
     999901    1    3    3    0    0  0.10178098171E+00 -0.87308631965E-01 -0.95711599160E-02  0.89020995982E+00  0.88000000000E+00 0. -1.
        -11    1    4    4    0    0 -0.78475768314E-01  0.35372408478E-01 -0.69049895798E-02  0.86357359247E-01  0.51100000000E-03 0.  1.
         11    1    4    4    0    0 -0.21908465820E-01  0.45896875129E-01  0.11973856887E-02  0.50874343973E-01  0.51100000000E-03 0. -1.
</event>
<event>
 8    1  0.2928569E+004  0.1043930E+01  0.7957747E-01            NaN
         13   -1    0    0    0    0  0.00000000000E+00  0.00000000000E+00  0.74505805969E-08  0.10566000000E+00  0.10566000000E+00 0.  1.
     999900   -1    0    0    0    0 -0.00000000000E+00 -0.00000000000E+00 -0.74505805969E-08  0.93827000000E+00  0.93827000000E+00 0. -1.
     999902    2    1    2    0    0  0.63357066008E-02  0.10417885227E-01 -0.55621171514E-02  0.10305281099E+01  0.10304409613E+01 0.  0.
     999903    2    3    3    0    0 -0.21213143575E-01  0.50392568384E-01  0.12103056673E+00  0.14014469696E+00  0.44751866943E-01 0.  0.
         14    1    1    2    0    0 -0.63357066008E-02 -0.10417885227E-01  0.55621171514E-02  0.13401890088E-01  0.00000000000E+00 0. -1.
     999901    1    3    3    0    0  0.27548850175E-01 -0.39974683157E-01 -0.12659268388E+00  0.89038341295E+00  0.88000000000E+00 0. -1.
        -11    1    4    4    0    0 -0.19304846033E-01  0.52005161549E-01  0.71254077735E-01  0.90302926990E-01  0.51100000000E-03 0.  1.
         11    1    4    4    0    0 -0.19082975412E-02 -0.16125931644E-02  0.49776488998E-01  0.49841769974E-01  0.51100000000E-03 0. -1.
</event>
<event>
 8    1  0.2928569E+004  0.1043930E+01  0.7957747E-01            NaN
         13   -1    0    0    0    0  0.00000000000E+00  0.00000000000E+00  0.74505805969E-08  0.10566000000E+00  0.10566000000E+00 0.  1.
     999900   -1    0    0    0    0 -0.00000000000E+00 -0.00000000000E+00 -0.74505805969E-08  0.93827000000E+00  0.93827000000E+00 0. -1.
     999902    2    1    2    0    0  0.41949350355E-02  0.13612687796E-01  0.12373996230E-02  0.10296319614E+01  0.10295326814E+01 0.  0.
     999903    2    3    3    0    0  0.80931727894E-01  0.87844104712E-01 -0.60436298637E-01  0.14103616824E+00  0.44408594269E-01 0.  0.
         14    1    1    2    0    0 -0.41949350355E-02 -0.13612687796E-01 -0.12373996230E-02  0.14298038565E-01  0.00000000000E+00 0. -1.
     999901    1    3    3    0    0 -0.76736792858E-01 -0.74231416916E-01  0.61673698260E-01  0.88859579320E+00  0.88000000000E+00 0.  1.
        -11    1    4    4    0    0  0.66780404882E-01  0.48833893720E-01 -0.54604478992E-01  0.99127604122E-01  0.51100000000E-03 0. -1.
         11    1    4    4    0    0  0.14151323012E-01  0.39010210992E-01 -0.58318196454E-02  0.41908564113E-01  0.51100000000E-03 0.  1.
</event>
<event>
 8    1  0.2928569E+004  0.1043930E+01  0.7957747E-01            NaN
         13   -1    0    0    0    0  0.00000000000E+00  0.00000000000E+00  0.74505805969E-08  0.10566000000E+00  0.10566000000E+00 0.  1.
     999900   -1    0    0    0    0 -0.00000000000E+00 -0.00000000000E+00 -0.74505805969E-08  0.93827000000E+00  0.93827000000E+00 0. -1.
     999902    2    1    2    0    0  0.81195215490E-02 -0.49345752322E-02  0.10495025445E-01  0.10297729444E+01  0.10296756261E+01 0.  0.
     999903    2    3    3    0    0  0.93076995552E-02 -0.73484066649E-01 -0.11179077974E+00  0.13867572041E+00  0.35316223918E-01 0.  0.
         14    1    1    2    0    0 -0.81195215490E-02  0.49345752322E-02 -0.10495025445E-01  0.14157055555E-01  0.00000000000E+00 0. -1.
     999901    1    3    3    0    0 -0.11881780062E-02  0.68549491416E-01  0.12228580519E+00  0.89109722404E+00  0.88000000000E+00 0.  1.
        -11    1    4    4    0    0  0.17027925884E-01 -0.18792592722E-01 -0.48032986677E-01  0.54318880062E-01  0.51100000000E-03 0. -1.
         11    1    4    4    0    0 -0.77202263284E-02 -0.54691473926E-01 -0.63757793068E-01  0.84356840343E-01  0.51100000000E-03 0.  1.
</event>
<event>
 8    1  0.2928569E+004  0.1043930E+01  0.7957747E-01            NaN
         13   -1    0    0    0    0  0.00000000000E+00  0.00000000000E+00  0.74505805969E-08  0.10566000000E+00  0.10566000000E+00 0. -1.
     999900   -1    0    0    0    0 -0.00000000000E+00 -0.00000000000E+00 -0.74505805969E-08  0.93827000000E+00  0.93827000000E+00 0. -1.
     999902    2    1    2    0    0 -0.64830059292E-02 -0.51849485365E-02  0.10549922193E-01  0.10305056223E+01  0.10304181791E+01 0.  0.
     999903    2    3    3    0    0 -0.31485333638E-01  0.83962137518E-01  0.99111838338E-01  0.14122752617E+00  0.45618974979E-01 0.  0.
         14    1    1    2    0    0  0.64830059292E-02  0.51849485365E-02 -0.10549922193E-01  0.13424377658E-01  0.00000000000E+00 0.  1.
     999901    1    3    3    0    0  0.25002327709E-01 -0.89147086054E-01 -0.88561916145E-01  0.88927809617E+00  0.88000000000E+00 0. -1.
        -11    1    4    4    0    0 -0.37234453880E-01  0.40105506114E-01  0.67291187514E-01  0.86736504509E-01  0.51100000000E-03 0. -1.
         11    1    4    4    0    0  0.57491202422E-02  0.43856631404E-01  0.31820650825E-01  0.54491021660E-01  0.51100000000E-03 0.  1.
</event>
<event>
 8    1  0.2928569E+004  0.1043930E+01  0.7957747E-01            NaN
         13   -1    0    0    0    0  0.00000000000E+00  0.00000000000E+00  0.74505805969E-08  0.10566000000E+00  0.10566000000E+00 0.  1.
     999900   -1    0    0    0    0 -0.00000000000E+00 -0.00000000000E+00 -0.74505805969E-08  0.93827000000E+00  0.93827000000E+00 0. -1.
     999902    2    1    2    0    0 -0.28591773071E-02  0.30545112380E-02  0.12798274644E-01  0.10304652027E+01  0.10303772285E+01 0.  0.
     999903    2    3    3    0    0 -0.49594910672E-01 -0.11370009777E+00 -0.45420300887E-01  0.13961994671E+00  0.45203521852E-01 0.  0.
         14    1    1    2    0    0  0.28591773071E-02 -0.30545112380E-02 -0.12798274644E-01  0.13464797349E-01  0.00000000000E+00 0. -1.
     999901    1    3    3    0    0  0.46735733365E-01  0.11675460901E+00  0.58218575531E-01  0.89084525594E+00  0.88000000000E+00 0.  1.
        -11    1    4    4    0    0 -0.35831028770E-01 -0.39899742918E-01 -0.34467773852E-01  0.63750613040E-01  0.51100000000E-03 0. -1.
         11    1    4    4    0    0 -0.13763881902E-01 -0.73800354856E-01 -0.10952527035E-01  0.75869333669E-01  0.51100000000E-03 0.  1.
</event>
<event>
 8    1  0.2928569E+004  0.1043930E+01  0.7957747E-01            NaN
         13   -1    0    0    0    0  0.00000000000E+00  0.00000000000E+00  0.74505805969E-08  0.10566000000E+00  0.10566000000E+00 0.  1.
     999900   -1    0    0    0    0 -0.00000000000E+00 -0.00000000000E+00 -0.74505805969E-08  0.93827000000E+00  0.93827000000E+00 0.  1.
     999902    2    1    2    0    0  0.12967538144E-01 -0.51511549393E-02 -0.17949718352E-02  0.10298618314E+01  0.10297657396E+01 0.  0.
     999903    2    3    3    0    0  0.32691258051E-01  0.28634405558E-01  0.12491644674E+00  0.13992572541E+00  0.45677592218E-01 0.  0.
         14    1    1    2    0    0 -0.12967538144E-01  0.51511549393E-02  0.17949718352E-02  0.14068168560E-01  0.00000000000E+00 0.  1.
     999901    1    3    3    0    0 -0.19723719907E-01 -0.33785560497E-01 -0.12671141857E+00  0.88993610603E+00  0.88000000000E+00 0.  1.
        -11    1    4    4    0    0  0.18387582669E-01  0.22500669126E-01  0.12018796564E+00  0.12365189652E+00  0.51100000000E-03 0. -1.
         11    1    4    4    0    0  0.14303675383E-01  0.61337364320E-02  0.47284810928E-02  0.16273828883E-01  0.51100000000E-03 0.  1.
</event>
<event>
 8    1  0.2928569E+004  0.1043930E+01  0.7957747E-01            NaN
         13   -1    0    0    0    0  0.00000000000E+00  0.00000000000E+00  0.74505805969E-08  0.10566000000E+00  0.10566000000E+00 0. -1.
     999900   -1    0    0    0    0 -0.00000000000E+00 -0.00000000000E+00 -0.74505805969E-08  0.93827000000E+00  0.93827000000E+00 0. -1.
     999902    2    1    2    0    0  0.54221696473E-03  0.75074502005E-02  0.10500610462E-01  0.10310103008E+01  0.10309293485E+01 0.  0.
     999903    2    3    3    0    0 -0.76739007984E-01  0.91213825486E-01  0.63236782165E-01  0.14210071663E+00  0.44552056547E-01 0.  0.
         14    1    1    2    0    0 -0.54221696473E-03 -0.75074502005E-02 -0.10500610462E-01  0.12919699215E-01  0.00000000000E+00 0.  1.
     999901    1    3    3    0    0  0.77281224949E-01 -0.83706375285E-01 -0.52736171703E-01  0.88890958415E+00  0.88000000000E+00 0. -1.
        -11    1    4    4    0    0 -0.14127197255E-01  0.28138930409E-02  0.21765407501E-01  0.26105359240E-01  0.51100000000E-03 0. -1.
         11    1    4    4    0    0 -0.62611810729E-01  0.88399932445E-01  0.41471374663E-01  0.11599535739E+00  0.51100000000E-03 0.  1.
</event>
<event>
 8    1  0.2928569E+004  0.1043930E+01  0.7957747E-01            NaN
         13   -1    0    0    0    0  0.00000000000E+00  0.00000000000E+00  0.74505805969E-08  0.10566000000E+00  0.10566000000E+00 0. -1.
     999900   -1    0    0    0    0 -0.00000000000E+00 -0.00000000000E+00 -0.74505805969E-08  0.93827000000E+00  0.93827000000E+00 0. -1.
     999902    2    1    2    0    0  0.12653924981E-01  0.10029264637E-01 -0.14008046672E-02  0.10277228960E+01  0.10275950957E+01 0.  0.
     999903    2    3    3    0    0  0.36052571149E-01 -0.12213823879E+00  0.34590100021E-01  0.13681824856E+00  0.36127840488E-01 0.  0.
         14    1    1    2    0    0 -0.12653924981E-01 -0.10029264637E-01  0.14008046672E-02  0.16207104008E-01  0.00000000000E+00 0. -1.
     999901    1    3    3    0    0 -0.23398646168E-01  0.13216750342E+00 -0.35990904689E-01  0.89090464744E+00  0.88000000000E+00 0. -1.
        -11    1    4    4    0    0  0.18955562466E-01 -0.67426897148E-01  0.37446829043E-01  0.79424340940E-01  0.51100000000E-03 0. -1.
         11    1    4    4    0    0  0.17097008684E-01 -0.54711341638E-01 -0.28567290219E-02  0.57393907616E-01  0.51100000000E-03 0.  1.
</event>
<event>
 8    1  0.2928569E+004  0.1043930E+01  0.7957747E-01            NaN
         13   -1    0    0    0    0  0.00000000000E+00  0.00000000000E+00  0.74505805969E-08  0.10566000000E+00  0.10566000000E+00 0. -1.
     999900   -1    0    0    0    0 -0.00000000000E+00 -0.00000000000E+00 -0.74505805969E-08  0.93827000000E+00  0.93827000000E+00 0.  1.
     999902    2    1    2    0    0 -0.43098448789E-02 -0.67106878058E-02  0.11637265236E-01  0.10298220577E+01  0.10297254180E+01 0.  0.
     999903    2    3    3    0    0  0.98746112863E-01  0.21815286479E-01  0.87159276165E-01  0.14013793636E+00  0.42605167008E-01 0.  0.
         14    1    1    2    0    0  0.43098448789E-02  0.67106878058E-02 -0.11637265236E-01  0.14107942298E-01  0.00000000000E+00 0.  1.
     999901    1    3    3    0    0 -0.10305595774E+00 -0.28525974285E-01 -0.75522010929E-01  0.88968412134E+00  0.88000000000E+00 0.  1.
        -11    1    4    4    0    0  0.20871789965E-01  0.21352050160E-01  0.12898374705E-01  0.32529538168E-01  0.51100000000E-03 0. -1.
         11    1    4    4    0    0  0.77874322897E-01  0.46323631926E-03  0.74260901460E-01  0.10760839819E+00  0.51100000000E-03 0.  1.
</event>
<event>
 8    1  0.2928569E+004  0.1043930E+01  0.7957747E-01            NaN
         13   -1    0    0    0    0  0.00000000000E+00  0.00000000000E+00  0.74505805969E-08  0.10566000000E+00  0.10566000000E+00 0. -1.
     999900   -1    0    0    0    0 -0.00000000000E+00 -0.00000000000E+00 -0.74505805969E-08  0.93827000000E+00  0.93827000000E+00 0. -1.
     999902    2    1    2    0    0  0.10939378184E-01  0.74957635290E-02  0.85320075956E-02  0.10281613089E+01  0.10280403812E+01 0.  0.
     999903    2    3    3    0    0 -0.34310948028E-01 -0.10223173829E+00  0.74647438210E-01  0.13773502510E+00  0.42072884867E-01 0.  0.
         14    1    1    2    0    0 -0.10939378184E-01 -0.74957635290E-02 -0.85320075956E-02  0.15768691117E-01  0.00000000000E+00 0.  1.
     999901    1    3    3    0    0  0.45250326213E-01  0.10972750182E+00 -0.66115430614E-01  0.89042628378E+00  0.88000000000E+00 0.  1.
        -11    1    4    4    0    0 -0.13612797402E-01 -0.91351788189E-01  0.59871430596E-01  0.11006955429E+00  0.51100000000E-03 0. -1.
         11    1    4    4    0    0 -0.20698150626E-01 -0.10879950100E-01  0.14776007614E-01  0.27665470817E-01  0.51100000000E-03 0.  1.
</event>
<event>
 8    1  0.2928569E+004  0.1043930E+01  0.7957747E-01            NaN
         13   -1    0    0    0    0  0.00000000000E+00  0.00000000000E+00  0.74505805969E-08  0.10566000000E+00  0.10566000000E+00 0. -1.
     999900   -1    0    0    0    0 -0.00000000000E+00 -0.00000000000E+00 -0.74505805969E-08  0.93827000000E+00  0.93827000000E+00 0. -1.
     999902    2    1    2    0    0  0.74811759519E-02  0.97806247111E-02  0.92084396263E-03  0.10315818598E+01  0.10315079529E+01 0.  0.
     999903    2    3    3    0    0  0.40006788311E-01 -0.12596103438E+00  0.14772550716E-01  0.14047267272E+00  0.45250615848E-01 0.  0.
         14    1    1    2    0    0 -0.74811759519E-02 -0.97806247111E-02 -0.92084396263E-03  0.12348140223E-01  0.00000000000E+00 0.  1.
     999901    1    3    3    0    0 -0.32525612359E-01  0.13574165909E+00 -0.13851706753E-01  0.89110918705E+00  0.88000000000E+00 0.  1.
        -11    1    4    4    0    0  0.15773869774E-01 -0.46435423318E-01  0.27715929916E-01  0.56333803337E-01  0.51100000000E-03 0. -1.
         11    1    4    4    0    0  0.24232918538E-01 -0.79525611061E-01 -0.12943379200E-01  0.84138869386E-01  0.51100000000E-03 0.  1.
</event>
<event>
 8    1  0.2928569E+004  0.1043930E+01  0.7957747E-01            NaN
         13   -1    0    0    0    0  0.00000000000E+00  0.00000000000E+00  0.74505805969E-08  0.10566000000E+00  0.10566000000E+00 0. -1.
     999900   -1    0    0    0    0 -0.00000000000E+00 -0.00000000000E+00 -0.74505805969E-08  0.93827000000E+00  0.93827000000E+00 0. -1.
     999902    2    1    2    0    0  0.38676442082E-02 -0.10585857589E-01  0.30902342402E-02  0.10322437431E+01  0.10321775896E+01 0.  0.
     999903    2    3    3    0    0 -0.55916489048E-02 -0.81882049502E-01  0.10854365649E+00  0.14303451605E+00  0.44059174423E-01 0.  0.
         14    1    1    2    0    0 -0.38676442082E-02  0.10585857589E-01 -0.30902342402E-02  0.11686256898E-01  0.00000000000E+00 0.  1.
     999901    1    3    3    0    0  0.94592931129E-02  0.71296191913E-01 -0.10545342225E+00  0.88920922705E+00  0.88000000000E+00 0. -1.
        -11    1    4    4    0    0  0.19128073247E-01 -0.28598697783E-01  0.40418717819E-01  0.53082036247E-01  0.51100000000E-03 0.  1.
         11    1    4    4    0    0 -0.24719722152E-01 -0.53283351720E-01  0.68124938667E-01  0.89952479805E-01  0.51100000000E-03 0. -1.
</event>
<event>
 8    1  0.2928569E+004  0.1043930E+01  0.7957747E-01            NaN
         13   -1    0    0    0    0  0.00000000000E+00  0.00000000000E+00  0.74505805969E-08  0.10566000000E+00  0.10566000000E+00 0.  1.
     999900   -1    0    0    0    0 -0.00000000000E+00 -0.00000000000E+00 -0.74505805969E-08  0.93827000000E+00  0.93827000000E+00 0. -1.
     999902    2    1    2    0    0 -0.77799354157E-03  0.13825174312E-01  0.59492474041E-02  0.10288590258E+01  0.10287486383E+01 0.  0.
     999903    2    3    3    0    0  0.10818769443E+00 -0.27709361811E-01 -0.67603282663E-01  0.13812415305E+00  0.45118642170E-01 0.  0.
         14    1    1    2    0    0  0.77799354157E-03 -0.13825174312E-01 -0.59492474041E-02  0.15070974201E-01  0.00000000000E+00 0. -1.
     999901    1    3    3    0    0 -0.10896568797E+00  0.41534536123E-01  0.73552530067E-01  0.89073487275E+00  0.88000000000E+00 0.  1.
        -11    1    4    4    0    0  0.35313203025E-01 -0.27994594644E-01 -0.12523318583E-01  0.46774076864E-01  0.51100000000E-03 0. -1.
         11    1    4    4    0    0  0.72874491407E-01  0.28523283294E-03 -0.55079964080E-01  0.91350076188E-01  0.51100000000E-03 0.  1.
</event>
<event>
 8    1  0.2928569E+004  0.1043930E+01  0.7957747E-01            NaN
         13   -1    0    0    0    0  0.00000000000E+00  0.00000000000E+00  0.74505805969E-08  0.10566000000E+00  0.10566000000E+00 0.  1.
     999900   -1    0    0    0    0 -0.00000000000E+00 -0.00000000000E+00 -0.74505805969E-08  0.93827000000E+00  0.93827000000E+00 0. -1.
     999902    2    1    2    0    0 -0.13926197994E-01 -0.96614931152E-03  0.20571365013E-02  0.10298195696E+01  0.10297228956E+01 0.  0.
     999903    2    3    3    0    0 -0.11332529986E+00  0.68712167129E-01  0.20141559653E-01  0.14130266173E+00  0.44685280437E-01 0.  0.
         14    1    1    2    0    0  0.13926197994E-01  0.96614931152E-03 -0.20571365013E-02  0.14110430385E-01  0.00000000000E+00 0.  1.
     999901    1    3    3    0    0  0.99399101865E-01 -0.69678316440E-01 -0.18084423151E-01  0.88851690788E+00  0.88000000000E+00 0.  1.
        -11    1    4    4    0    0 -0.93655028679E-02  0.25077329365E-01  0.19011968175E-04  0.26773990635E-01  0.51100000000E-03 0.  1.
         11    1    4    4    0    0 -0.10395979699E+00  0.43634837764E-01  0.20122547685E-01  0.11452867110E+00  0.51100000000E-03 0. -1.
</event>
<event>
 8    1  0.2928569E+004  0.1043930E+01  0.7957747E-01            NaN
         13   -1    0    0    0    0  0.00000000000E+00  0.00000000000E+00  0.74505805969E-08  0.10566000000E+00  0.10566000000E+00 0. -1.
     999900   -1    0    0    0    0 -0.00000000000E+00 -0.00000000000E+00 -0.74505805969E-08  0.93827000000E+00  0.93827000000E+00 0. -1.
     999902    2    1    2    0    0 -0.14631139163E-02  0.15616371525E-01  0.20932656761E-01  0.10177730147E+01  0.10174368391E+01 0.  0.
     999903    2    3    3    0    0 -0.16753531942E-01 -0.35292349233E-02 -0.11728568934E+00  0.12664751155E+00  0.44615276839E-01 0.  0.
         14    1    1    2    0    0  0.14631139163E-02 -0.15616371525E-01 -0.20932656761E-01  0.26156985319E-01  0.00000000000E+00 0.  1.
     999901    1    3    3    0    0  0.15290418026E-01  0.19145606448E-01  0.13821834610E+00  0.89112550313E+00  0.88000000000E+00 0.  1.
        -11    1    4    4    0    0 -0.19039466663E-01 -0.21575389957E-01 -0.82733901454E-01  0.87596565648E-01  0.51100000000E-03 0.  1.
         11    1    4    4    0    0  0.22859347210E-02  0.18046155034E-01 -0.34551787882E-01  0.39050945903E-01  0.51100000000E-03 0. -1.
</event>
<event>
 8    1  0.2928569E+004  0.1043930E+01  0.7957747E-01            NaN
         13   -1    0    0    0    0  0.00000000000E+00  0.00000000000E+00  0.74505805969E-08  0.10566000000E+00  0.10566000000E+00 0.  1.
     999900   -1    0    0    0    0 -0.00000000000E+00 -0.00000000000E+00 -0.74505805969E-08  0.93827000000E+00  0.93827000000E+00 0.  1.
     999902    2    1    2    0    0  0.53823202800E-02  0.12489315561E-01 -0.12944470374E-02  0.10302688153E+01  0.10301782388E+01 0.  0.
     999903    2    3    3    0    0  0.27696969063E-01 -0.22530351969E-01 -0.12801514780E+00  0.14022249252E+00  0.44718346182E-01 0.  0.
         14    1    1    2    0    0 -0.53823202800E-02 -0.12489315561E-01  0.12944470374E-02  0.13661184718E-01  0.00000000000E+00 0. -1.
     999901    1    3    3    0    0 -0.22314648783E-01  0.35019667529E-01  0.12672070077E+00  0.89004632276E+00  0.88000000000E+00 0. -1.
        -11    1    4    4    0    0  0.14460711849E-01 -0.33247522060E-01 -0.59998435558E-01  0.70104089044E-01  0.51100000000E-03 0.  1.
         11    1    4    4    0    0  0.13236257215E-01  0.10717170091E-01 -0.68016712246E-01  0.70118403473E-01  0.51100000000E-03 0. -1.
</event>
<event>
 8    1  0.2928569E+004  0.1043930E+01  0.7957747E-01            NaN
         13   -1    0    0    0    0  0.00000000000E+00  0.00000000000E+00  0.74505805969E-08  0.10566000000E+00  0.10566000000E+00 0.  1.
     999900   -1    0    0    0    0 -0.00000000000E+00 -0.00000000000E+00 -0.74505805969E-08  0.93827000000E+00  0.93827000000E+00 0.  1.
     999902    2    1    2    0    0 -0.45619521404E-02  0.98567375588E-02  0.85529157244E-02  0.10301054186E+01  0.10300126477E+01 0.  0.
     999903    2    3    3    0    0 -0.74738081557E-01  0.10244671458E+00  0.45014637462E-01  0.14172090158E+00  0.44467810780E-01 0.  0.
         14    1    1    2    0    0  0.45619521404E-02 -0.98567375588E-02 -0.85529157244E-02  0.13824581369E-01  0.00000000000E+00 0. -1.
     999901    1    3    3    0    0  0.70176129417E-01 -0.92589977022E-01 -0.36461721737E-01  0.88838451705E+00  0.88000000000E+00 0.  1.
        -11    1    4    4    0    0 -0.47044759542E-01  0.27533420360E-01  0.18346445200E-01  0.57516535097E-01  0.51100000000E-03 0. -1.
         11    1    4    4    0    0 -0.27693322015E-01  0.74913294221E-01  0.26668192261E-01  0.84204366482E-01  0.51100000000E-03 0.  1.
</event>
<event>
 8    1  0.2928569E+004  0.1043930E+01  0.7957747E-01            NaN
         13   -1    0    0    0    0  0.00000000000E+00  0.00000000000E+00  0.74505805969E-08  0.10566000000E+00  0.10566000000E+00 0.  1.
     999900   -1    0    0    0    0 -0.00000000000E+00 -0.00000000000E+00 -0.74505805969E-08  0.93827000000E+00  0.93827000000E+00 0.  1.
     999902    2    1    2    0    0  0.46331662569E-02  0.27886310450E-02  0.13118903117E-01  0.10297402744E+01  0.10296425032E+01 0.  0.
     999903    2    3    3    0    0  0.43536767765E-01 -0.40711078079E-01  0.12005610163E+00  0.14134774895E+00  0.44865092997E-01 0.  0.
         14    1    1    2    0    0 -0.46331662569E-02 -0.27886310450E-02 -0.13118903117E-01  0.14189725567E-01  0.00000000000E+00 0. -1.
     999901    1    3    3    0    0 -0.38903601508E-01  0.43499709124E-01 -0.10693719851E+00  0.88839252548E+00  0.88000000000E+00 0.  1.
        -11    1    4    4    0    0  0.31314719518E-01 -0.47056247081E-01  0.73065496454E-01  0.92378189747E-01  0.51100000000E-03 0.  1.
         11    1    4    4    0    0  0.12222048247E-01  0.63451690020E-02  0.46990605176E-01  0.48969559206E-01  0.51100000000E-03 0. -1.
</event>
<event>
 8    1  0.2928569E+004  0.1043930E+01  0.7957747E-01            NaN
         13   -1    0    0    0    0  0.00000000000E+00  0.00000000000E+00  0.74505805969E-08  0.10566000000E+00  0.10566000000E+00 0. -1.
     999900   -1    0    0    0    0 -0.00000000000E+00 -0.00000000000E+00 -0.74505805969E-08  0.93827000000E+00  0.93827000000E+00 0.  1.
     999902    2    1    2    0    0 -0.13862044601E-01  0.39343415373E-02  0.14795143397E-02  0.10294446872E+01  0.10293427708E+01 0.  0.
     999903    2    3    3    0    0 -0.44089496256E-02 -0.10979722902E-01 -0.13156538428E+00  0.13926901052E+00  0.44118179934E-01 0.  0.
         14    1    1    2    0    0  0.13862044601E-01 -0.39343415373E-02 -0.14795143397E-02  0.14485312787E-01  0.00000000000E+00 0. -1.
     999901    1    3    3    0    0 -0.94530949754E-02  0.14914064439E-01  0.13304489862E+00  0.89017567669E+00  0.88000000000E+00 0. -1.
        -11    1    4    4    0    0 -0.41332135591E-02 -0.26252223733E-01 -0.53706224321E-01  0.59923971473E-01  0.51100000000E-03 0.  1.
         11    1    4    4    0    0 -0.27573606648E-03  0.15272500831E-01 -0.77859159954E-01  0.79345039050E-01  0.51100000000E-03 0. -1.
</event>
<event>
 8    1  0.2928569E+004  0.1043930E+01  0.7957747E-01            NaN
         13   -1    0    0    0    0  0.00000000000E+00  0.00000000000E+00  0.74505805969E-08  0.10566000000E+00  0.10566000000E+00 0.  1.
     999900   -1    0    0    0    0 -0.00000000000E+00 -0.00000000000E+00 -0.74505805969E-08  0.93827000000E+00  0.93827000000E+00 0. -1.
     999902    2    1    2    0    0  0.28442586622E-02  0.13225528907E-01 -0.32013737026E-02  0.10300284456E+01  0.10299346316E+01 0.  0.
     999903    2    3    3    0    0  0.10287407334E+00  0.80723493630E-01 -0.20393381311E-01  0.14162678854E+00  0.50427173650E-01 0.  0.
         14    1    1    2    0    0 -0.28442586622E-02 -0.13225528907E-01  0.32013737026E-02  0.13901554438E-01  0.00000000000E+00 0.  1.
     999901    1    3    3    0    0 -0.10002981468E+00 -0.67497964723E-01  0.17192007609E-01  0.88840165702E+00  0.88000000000E+00 0.  1.
        -11    1    4    4    0    0  0.46516440648E-01  0.67352184325E-02 -0.38921628395E-02  0.47165161618E-01  0.51100000000E-03 0. -1.
         11    1    4    4    0    0  0.56357632694E-01  0.73988275197E-01 -0.16501218472E-01  0.94461626927E-01  0.51100000000E-03 0.  1.
</event>
<event>
 8    1  0.2928569E+004  0.1043930E+01  0.7957747E-01            NaN
         13   -1    0    0    0    0  0.00000000000E+00  0.00000000000E+00  0.74505805969E-08  0.10566000000E+00  0.10566000000E+00 0.  1.
     999900   -1    0    0    0    0 -0.00000000000E+00 -0.00000000000E+00 -0.74505805969E-08  0.93827000000E+00  0.93827000000E+00 0.  1.
     999902    2    1    2    0    0  0.22999084232E-02 -0.12820522688E-01 -0.43277028526E-02  0.10302046806E+01  0.10301132460E+01 0.  0.
     999903    2    3    3    0    0  0.79840399820E-01 -0.49652184338E-01  0.93733538105E-01  0.14060639705E+00  0.46307168705E-01 0.  0.
         14    1    1    2    0    0 -0.22999084232E-02  0.12820522688E-01  0.43277028526E-02  0.13725319403E-01  0.00000000000E+00 0.  1.
     999901    1    3    3    0    0 -0.77540491397E-01  0.36831661650E-01 -0.98061240958E-01  0.88959828354E+00  0.88000000000E+00 0.  1.
        -11    1    4    4    0    0  0.32327936803E-01 -0.19595950490E-02  0.52414733958E-01  0.61615752593E-01  0.51100000000E-03 0. -1.
         11    1    4    4    0    0  0.47512463018E-01 -0.47692589289E-01  0.41318804147E-01  0.78990644460E-01  0.51100000000E-03 0.  1.
</event>
<event>
 8    1  0.2928569E+004  0.1043930E+01  0.7957747E-01            NaN
         13   -1    0    0    0    0  0.00000000000E+00  0.00000000000E+00  0.74505805969E-08  0.10566000000E+00  0.10566000000E+00 0. -1.
     999900   -1    0    0    0    0 -0.00000000000E+00 -0.00000000000E+00 -0.74505805969E-08  0.93827000000E+00  0.93827000000E+00 0. -1.
     999902    2    1    2    0    0 -0.12734840682E-01 -0.20346932086E-02 -0.43810600139E-02  0.10303098006E+01  0.10302197705E+01 0.  0.
     999903    2    3    3    0    0  0.83203761185E-01 -0.50676635547E-01  0.88391296441E-01  0.13891933401E+00  0.44660640500E-01 0.  0.
         14    1    1    2    0    0  0.12734840682E-01  0.20346932086E-02  0.43810600139E-02  0.13620199356E-01  0.00000000000E+00 0. -1.
     999901    1    3    3    0    0 -0.95938601867E-01  0.48641942338E-01 -0.92772356455E-01  0.89139046663E+00  0.88000000000E+00 0. -1.
        -11    1    4    4    0    0  0.56823409003E-01 -0.56434950665E-01  0.63790370946E-01  0.10238787044E+00  0.51100000000E-03 0.  1.
         11    1    4    4    0    0  0.26380352182E-01  0.57583151186E-02  0.24600925495E-01  0.36531463569E-01  0.51100000000E-03 0. -1.
</event>
<event>
 8    1  0.2928569E+004  0.1043930E+01  0.7957747E-01            NaN
         13   -1    0    0    0    0  0.00000000000E+00  0.00000000000E+00  0.74505805969E-08  0.10566000000E+00  0.10566000000E+00 0.  1.
     999900   -1    0    0    0    0 -0.00000000000E+00 -0.00000000000E+00 -0.74505805969E-08  0.93827000000E+00  0.93827000000E+00 0.  1.
     999902    2    1    2    0    0 -0.42428653355E-02 -0.19841767419E-01  0.93707483986E-02  0.10215803117E+01  0.10213358041E+01 0.  0.
     999903    2    3    3    0    0 -0.97622492735E-01 -0.76405800071E-01  0.15074026114E-01  0.13481553345E+00  0.50793743951E-01 0.  0.
         14    1    1    2    0    0  0.42428653355E-02  0.19841767419E-01 -0.93707483986E-02  0.22349688278E-01  0.00000000000E+00 0. -1.
     999901    1    3    3    0    0  0.93379627399E-01  0.56564032652E-01 -0.57032777150E-02  0.88676477827E+00  0.88000000000E+00 0.  1.
        -11    1    4    4    0    0 -0.32247919842E-01 -0.50832563942E-01  0.22401801020E-01  0.64233789402E-01  0.51100000000E-03 0. -1.
         11    1    4    4    0    0 -0.65374572893E-01 -0.25573236129E-01 -0.73277749066E-02  0.70581744050E-01  0.51100000000E-03 0.  1.
</event>
<event>
 8    1  0.2928569E+004  0.1043930E+01  0.7957747E-01            NaN
         13   -1    0    0    0    0  0.00000000000E+00  0.00000000000E+00  0.74505805969E-08  0.10566000000E+00  0.10566000000E+00 0. -1.
     999900   -1    0    0    0    0 -0.00000000000E+00 -0.00000000000E+00 -0.74505805969E-08  0.93827000000E+00  0.93827000000E+00 0.  1.
     999902    2    1    2    0    0  0.24003659141E-02  0.13749388535E-01  0.57817889076E-03  0.10299606860E+01  0.10298659491E+01 0.  0.
     999903    2    3    3    0    0 -0.11947395079E+00  0.28750039565E-01  0.50401144676E-01  0.14003894987E+00  0.44385159721E-01 0.  0.
         14    1    1    2    0    0 -0.24003659141E-02 -0.13749388535E-01 -0.57817889076E-03  0.13969313957E-01  0.00000000000E+00 0. -1.
     999901    1    3    3    0    0  0.12187431670E+00 -0.15000651030E-01 -0.49822965785E-01  0.88992173618E+00  0.88000000000E+00 0. -1.
        -11    1    4    4    0    0 -0.27854004267E-01 -0.75341041427E-02 -0.10355258681E-02  0.28878048995E-01  0.51100000000E-03 0.  1.
         11    1    4    4    0    0 -0.91619946519E-01  0.36284143707E-01  0.51436670544E-01  0.11116090087E+00  0.51100000000E-03 0. -1.
</event>
<event>
 8    1  0.2928569E+004  0.1043930E+01  0.7957747E-01            NaN
         13   -1    0    0    0    0  0.00000000000E+00  0.00000000000E+00  0.74505805969E-08  0.10566000000E+00  0.10566000000E+00 0. -1.
     999900   -1    0    0    0    0 -0.00000000000E+00 -0.00000000000E+00 -0.74505805969E-08  0.93827000000E+00  0.93827000000E+00 0. -1.
     999902    2    1    2    0    0 -0.12515363534E-01 -0.33311948091E-02  0.93987686728E-04  0.10309785516E+01  0.10308971984E+01 0.  0.
     999903    2    3    3    0    0 -0.21505527014E-01 -0.13336378812E+00  0.64714415413E-02  0.14135505238E+00  0.41121571024E-01 0.  0.
         14    1    1    2    0    0  0.12515363534E-01  0.33311948091E-02 -0.93987686728E-04  0.12951448450E-01  0.00000000000E+00 0.  1.
     999901    1    3    3    0    0  0.89901634798E-02  0.13003259331E+00 -0.63774538546E-02  0.88962349917E+00  0.88000000000E+00 0. -1.
        -11    1    4    4    0    0 -0.11727785278E-01 -0.86334127291E-01 -0.15557972635E-01  0.88506689668E-01  0.51100000000E-03 0.  1.
         11    1    4    4    0    0 -0.97777417360E-02 -0.47029660829E-01  0.22029414176E-01  0.52848362709E-01  0.51100000000E-03 0. -1.
</event>
<event>
 8    1  0.2928569E+004  0.1043930E+01  0.7957747E-01            NaN
         13   -1    0    0    0    0  0.00000000000E+00  0.00000000000E+00  0.74505805969E-08  0.10566000000E+00  0.10566000000E+00 0.  1.
     999900   -1    0    0    0    0 -0.00000000000E+00 -0.00000000000E+00 -0.74505805969E-08  0.93827000000E+00  0.93827000000E+00 0. -1.
     999902    2    1    2    0    0 -0.14451818795E-01  0.25803842546E-02  0.40789813519E-02  0.10286934801E+01  0.10285806359E+01 0.  0.
     999903    2    3    3    0    0  0.17593567267E-02  0.12430508140E+00  0.43291146716E-01  0.13930194765E+00  0.45563808420E-01 0.  0.
         14    1    1    2    0    0  0.14451818795E-01 -0.25803842546E-02 -0.40789813519E-02  0.15236519886E-01  0.00000000000E+00 0. -1.
     999901    1    3    3    0    0 -0.16211175521E-01 -0.12172469714E+00 -0.39212165364E-01  0.88939153246E+00  0.88000000000E+00 0. -1.
        -11    1    4    4    0    0  0.11720086662E-01  0.10144994261E+00  0.17843488552E-01  0.10367305577E+00  0.51100000000E-03 0. -1.
         11    1    4    4    0    0 -0.99607299355E-02  0.22855138785E-01  0.25447658164E-01  0.35628891882E-01  0.51100000000E-03 0.  1.
</event>
<event>
 8    1  0.2928569E+004  0.1043930E+01  0.7957747E-01            NaN
         13   -1    0    0    0    0  0.00000000000E+00  0.00000000000E+00  0.74505805969E-08  0.10566000000E+00  0.10566000000E+00 0. -1.
     999900   -1    0    0    0    0 -0.00000000000E+00 -0.00000000000E+00 -0.74505805969E-08  0.93827000000E+00  0.93827000000E+00 0.  1.
     999902    2    1    2    0    0 -0.93594421932E-02  0.40144360875E-02  0.96333674165E-02  0.10299115613E+01  0.10298161523E+01 0.  0.
     999903    2    3    3    0    0  0.37232376919E-01  0.23951258151E-01  0.12591839209E+00  0.14081624503E+00  0.44876059759E-01 0.  0.
         14    1    1    2    0    0  0.93594421932E-02 -0.40144360875E-02 -0.96333674165E-02  0.14018438681E-01  0.00000000000E+00 0.  1.
     999901    1    3    3    0    0 -0.46591819112E-01 -0.19936822064E-01 -0.11628502468E+00  0.88909531629E+00  0.88000000000E+00 0.  1.
        -11    1    4    4    0    0  0.11136730319E-01  0.31143825033E-01  0.47721261987E-01  0.58065002940E-01  0.51100000000E-03 0. -1.
         11    1    4    4    0    0  0.26095646600E-01 -0.71925668815E-02  0.78197130105E-01  0.82751242090E-01  0.51100000000E-03 0.  1.
</event>
<event>
 8    1  0.2928569E+004  0.1043930E+01  0.7957747E-01            NaN
         13   -1    0    0    0    0  0.00000000000E+00  0.00000000000E+00  0.74505805969E-08  0.10566000000E+00  0.10566000000E+00 0.  1.
     999900   -1    0    0    0    0 -0.00000000000E+00 -0.00000000000E+00 -0.74505805969E-08  0.93827000000E+00  0.93827000000E+00 0.  1.
     999902    2    1    2    0    0  0.72111854903E-02  0.10864840093E-01 -0.48771326714E-02  0.10300076306E+01  0.10299135336E+01 0.  0.
     999903    2    3    3    0    0 -0.10196875169E+00  0.41557179735E-01 -0.72938012323E-01  0.14012305285E+00  0.46796268953E-01 0.  0.
         14    1    1    2    0    0 -0.72111854903E-02 -0.10864840093E-01  0.48771326714E-02  0.13922369393E-01  0.00000000000E+00 0.  1.
     999901    1    3    3    0    0  0.10917993718E+00 -0.30692339642E-01  0.68060879651E-01  0.88988457776E+00  0.88000000000E+00 0. -1.
        -11    1    4    4    0    0 -0.50276795509E-01  0.37065171280E-01 -0.19029407561E-01  0.65299024203E-01  0.51100000000E-03 0. -1.
         11    1    4    4    0    0 -0.51691956184E-01  0.44920084550E-02 -0.53908604762E-01  0.74824028644E-01  0.51100000000E-03 0.  1.
</event>
<event>
 8    1  0.2928569E+004  0.1043930E+01  0.7957747E-01            NaN
         13   -1    0    0    0    0  0.00000000000E+00  0.00000000000E+00  0.74505805969E-08  0.10566000000E+00  0.10566000000E+00 0.  1.
     999900   -1    0    0    0    0 -0.00000000000E+00 -0.00000000000E+00 -0.74505805969E-08  0.93827000000E+00  0.93827000000E+00 0.  1.
     999902    2    1    2    0    0 -0.97428854347E-03  0.66277746976E-02 -0.12771052435E-01  0.10295086126E+01  0.10294076000E+01 0.  0.
     999903    2    3    3    0    0 -0.65147387352E-01 -0.56396640385E-01 -0.99757718522E-01  0.14065713813E+00  0.49072038644E-01 0.  0.
         14    1    1    2    0    0  0.97428854347E-03 -0.66277746976E-02  0.12771052435E-01  0.14421387447E-01  0.00000000000E+00 0.  1.
     999901    1    3    3    0    0  0.64173098809E-01  0.63024415083E-01  0.86986666087E-01  0.88885147442E+00  0.88000000000E+00 0. -1.
        -11    1    4    4    0    0 -0.26346826067E-01 -0.52555290300E-01 -0.71136656748E-01  0.92287045876E-01  0.51100000000E-03 0.  1.
         11    1    4    4    0    0 -0.38800561285E-01 -0.38413500852E-02 -0.28621061774E-01  0.48370092253E-01  0.51100000000E-03 0. -1.
</event>
<event>
 8    1  0.2928569E+004  0.1043930E+01  0.7957747E-01            NaN
         13   -1    0    0    0    0  0.00000000000E+00  0.00000000000E+00  0.74505805969E-08  0.10566000000E+00  0.10566000000E+00 0. -1.
     999900   -1    0    0    0    0 -0.00000000000E+00 -0.00000000000E+00 -0.74505805969E-08  0.93827000000E+00  0.93827000000E+00 0.  1.
     999902    2    1    2    0    0 -0.57444971580E-02  0.72766382029E-02  0.88729924885E-02  0.10310972798E+01  0.10310174207E+01 0.  0.
     999903    2    3    3    0    0 -0.52843115594E-01 -0.11747244307E-01  0.12361391076E+00  0.14219589819E+00  0.44820552370E-01 0.  0.
         14    1    1    2    0    0  0.57444971580E-02 -0.72766382029E-02 -0.88729924885E-02  0.12832720165E-01  0.00000000000E+00 0. -1.
     999901    1    3    3    0    0  0.47098618436E-01  0.19023882510E-01 -0.11474091827E+00  0.88890138164E+00  0.88000000000E+00 0.  1.
        -11    1    4    4    0    0 -0.10821092543E-01  0.15600925185E-02 -0.13040684155E-04  0.10944917704E-01  0.51100000000E-03 0. -1.
         11    1    4    4    0    0 -0.42022023051E-01 -0.13307336826E-01  0.12362695144E+00  0.13125098049E+00  0.51100000000E-03 0.  1.
</event>
<event>
 8    1  0.2928569E+004  0.1043930E+01  0.7957747E-01            NaN
         13   -1    0    0    0    0  0.00000000000E+00  0.00000000000E+00  0.74505805969E-08  0.10566000000E+00  0.10566000000E+00 0.  1.
     999900   -1    0    0    0    0 -0.00000000000E+00 -0.00000000000E+00 -0.74505805969E-08  0.93827000000E+00  0.93827000000E+00 0.  1.
     999902    2    1    2    0    0 -0.14446002340E-01  0.48084289097E-03 -0.17594168032E-01  0.10211599991E+01  0.10209061028E+01 0.  0.
     999903    2    3    3    0    0  0.12091828220E+00 -0.49085636549E-05  0.17668196228E-01  0.13011165032E+00  0.44672647070E-01 0.  0.
         14    1    1    2    0    0  0.14446002340E-01 -0.48084289097E-03  0.17594168032E-01  0.22770000927E-01  0.00000000000E+00 0.  1.
     999901    1    3    3    0    0 -0.13536428454E+00  0.48575145462E-03 -0.35262364259E-01  0.89104834875E+00  0.88000000000E+00 0. -1.
        -11    1    4    4    0    0  0.17185124544E-01  0.37039696339E-02  0.19546440761E-01  0.26293960600E-01  0.51100000000E-03 0. -1.
         11    1    4    4    0    0  0.10373315766E+00 -0.37088781976E-02 -0.18782445330E-02  0.10381768972E+00  0.51100000000E-03 0.  1.
</event>
<event>
 8    1  0.2928569E+004  0.1043930E+01  0.7957747E-01            NaN
         13   -1    0    0    0    0  0.00000000000E+00  0.00000000000E+00  0.74505805969E-08  0.10566000000E+00  0.10566000000E+00 0.  1.
     999900   -1    0    0    0    0 -0.00000000000E+00 -0.00000000000E+00 -0.74505805969E-08  0.93827000000E+00  0.93827000000E+00 0. -1.
     999902    2    1    2    0    0  0.86788805477E-02  0.61522819608E-02 -0.93097417521E-02  0.10297933514E+01  0.10296963154E+01 0.  0.
     999903    2    3    3    0    0 -0.10279422425E+00 -0.44352589101E-01  0.66561708429E-01  0.13809078217E+00  0.45878081837E-01 0.  0.
         14    1    1    2    0    0 -0.86788805477E-02 -0.61522819608E-02  0.93097417521E-02  0.14136648555E-01  0.00000000000E+00 0.  1.
     999901    1    3    3    0    0  0.11147310480E+00  0.50504871062E-01 -0.75871450181E-01  0.89170256927E+00  0.88000000000E+00 0. -1.
        -11    1    4    4    0    0 -0.31233878843E-01  0.73792149894E-02  0.23926051782E-01  0.40034048962E-01  0.51100000000E-03 0. -1.
         11    1    4    4    0    0 -0.71560345406E-01 -0.51731804091E-01  0.42635656647E-01  0.98056733210E-01  0.51100000000E-03 0.  1.
</event>
<event>
 8    1  0.2928569E+004  0.1043930E+01  0.7957747E-01            NaN
         13   -1    0    0    0    0  0.00000000000E+00  0.00000000000E+00  0.74505805969E-08  0.10566000000E+00  0.10566000000E+00 0. -1.
     999900   -1    0    0    0    0 -0.00000000000E+00 -0.00000000000E+00 -0.74505805969E-08  0.93827000000E+00  0.93827000000E+00 0.  1.
     999902    2    1    2    0    0 -0.68873735234E-02  0.93523930586E-02 -0.79310368196E-02  0.10298657007E+01  0.10297696621E+01 0.  0.
     999903    2    3    3    0    0 -0.56663335162E-02  0.10151590877E+00  0.84680903526E-01  0.14021825588E+00  0.46397379133E-01 0.  0.
         14    1    1    2    0    0  0.68873735234E-02 -0.93523930586E-02  0.79310368196E-02  0.14064299307E-01  0.00000000000E+00 0. -1.
     999901    1    3    3    0    0 -0.12210400073E-02 -0.92163515715E-01 -0.92611940345E-01  0.88964744481E+00  0.88000000000E+00 0.  1.
        -11    1    4    4    0    0  0.11491543107E-01  0.68726388041E-01  0.34198168199E-01  0.77621825573E-01  0.51100000000E-03 0.  1.
         11    1    4    4    0    0 -0.17157876623E-01  0.32789520733E-01  0.50482735327E-01  0.62596430307E-01  0.51100000000E-03 0. -1.
</event>
<event>
 8    1  0.2928569E+004  0.1043930E+01  0.7957747E-01            NaN
         13   -1    0    0    0    0  0.00000000000E+00  0.00000000000E+00  0.74505805969E-08  0.10566000000E+00  0.10566000000E+00 0.  1.
     999900   -1    0    0    0    0 -0.00000000000E+00 -0.00000000000E+00 -0.74505805969E-08  0.93827000000E+00  0.93827000000E+00 0. -1.
     999902    2    1    2    0    0  0.13381110391E-01 -0.30161292318E-02 -0.22010894942E-02  0.10300377019E+01  0.10299440137E+01 0.  0.
     999903    2    3    3    0    0  0.11541366565E+00 -0.25815332458E-01 -0.63551731079E-01  0.14172787578E+00  0.45400689876E-01 0.  0.
         14    1    1    2    0    0 -0.13381110391E-01  0.30161292318E-02  0.22010894942E-02  0.13892298075E-01  0.00000000000E+00 0. -1.
     999901    1    3    3    0    0 -0.10203255526E+00  0.22799203226E-01  0.61350641585E-01  0.88830982614E+00  0.88000000000E+00 0.  1.
        -11    1    4    4    0    0  0.59437727550E-01 -0.28443630390E-01 -0.14998982587E-01  0.67580427386E-01  0.51100000000E-03 0. -1.
         11    1    4    4    0    0  0.55975938102E-01  0.26282979317E-02 -0.48552748492E-01  0.74147448396E-01  0.51100000000E-03 0.  1.
</event>
<event>
 8    1  0.2928569E+004  0.1043930E+01  0.7957747E-01            NaN
         13   -1    0    0    0    0  0.00000000000E+00  0.00000000000E+00  0.74505805969E-08  0.10566000000E+00  0.10566000000E+00 0.  1.
     999900   -1    0    0    0    0 -0.00000000000E+00 -0.00000000000E+00 -0.74505805969E-08  0.93827000000E+00  0.93827000000E+00 0.  1.
     999902    2    1    2    0    0 -0.39617689452E-02  0.17465794669E-02 -0.14475232517E-01  0.10288211116E+01  0.10287101638E+01 0.  0.
     999903    2    3    3    0    0 -0.49566400501E-01  0.69055597953E-01  0.98452018527E-01  0.13788741572E+00  0.45767191235E-01 0.  0.
         14    1    1    2    0    0  0.39617689452E-02 -0.17465794669E-02  0.14475232517E-01  0.15108888424E-01  0.00000000000E+00 0.  1.
     999901    1    3    3    0    0  0.45604631556E-01 -0.67309018486E-01 -0.11292725104E+00  0.89093369586E+00  0.88000000000E+00 0.  1.
        -11    1    4    4    0    0 -0.13679405105E-02  0.40313380294E-01  0.43970866543E-01  0.59671920679E-01  0.51100000000E-03 0.  1.
         11    1    4    4    0    0 -0.48198459991E-01  0.28742217659E-01  0.54481151984E-01  0.78215495038E-01  0.51100000000E-03 0. -1.
</event>
<event>
 8    1  0.2928569E+004  0.1043930E+01  0.7957747E-01            NaN
         13   -1    0    0    0    0  0.00000000000E+00  0.00000000000E+00  0.74505805969E-08  0.10566000000E+00  0.10566000000E+00 0.  1.
     999900   -1    0    0    0    0 -0.00000000000E+00 -0.00000000000E+00 -0.74505805969E-08  0.93827000000E+00  0.93827000000E+00 0.  1.
     999902    2    1    2    0    0 -0.13085163300E-01 -0.11491705330E-02 -0.19219372968E-02  0.10306546117E+01  0.10305691111E+01 0.  0.
     999903    2    3    3    0    0 -0.74833433396E-01  0.46451549586E-01 -0.10140339925E+00  0.14162410678E+00  0.44910455666E-01 0.  0.
         14    1    1    2    0    0  0.13085163300E-01  0.11491705330E-02  0.19219372968E-02  0.13275388298E-01  0.00000000000E+00 0.  1.
     999901    1    3    3    0    0  0.61748270096E-01 -0.47600720119E-01  0.99481461952E-01  0.88903050493E+00  0.88000000000E+00 0.  1.
        -11    1    4    4    0    0 -0.48397663403E-01  0.41333566323E-01 -0.41601609540E-01  0.76037836405E-01  0.51100000000E-03 0.  1.
         11    1    4    4    0    0 -0.26435769992E-01  0.51179832634E-02 -0.59801789709E-01  0.65586270371E-01  0.51100000000E-03 0. -1.
</event>
<event>
 8    1  0.2928569E+004  0.1043930E+01  0.7957747E-01            NaN
         13   -1    0    0    0    0  0.00000000000E+00  0.00000000000E+00  0.74505805969E-08  0.10566000000E+00  0.10566000000E+00 0.  1.
     999900   -1    0    0    0    0 -0.00000000000E+00 -0.00000000000E+00 -0.74505805969E-08  0.93827000000E+00  0.93827000000E+00 0.  1.
     999902    2    1    2    0    0 -0.20917847413E-02 -0.12182835721E-01 -0.79872244879E-02  0.10292129077E+01  0.10291076798E+01 0.  0.
     999903    2    3    3    0    0  0.72746841719E-01 -0.11124865459E+00 -0.25214336022E-02  0.14048081574E+00  0.45388719246E-01 0.  0.
         14    1    1    2    0    0  0.20917847413E-02  0.12182835721E-01  0.79872244879E-02  0.14717092261E-01  0.00000000000E+00 0. -1.
     999901    1    3    3    0    0 -0.74838626460E-01  0.99065818872E-01 -0.54657908857E-02  0.88873209200E+00  0.88000000000E+00 0.  1.
        -11    1    4    4    0    0  0.28536672241E-01 -0.55855204185E-01 -0.22835514964E-01  0.66752283570E-01  0.51100000000E-03 0.  1.
         11    1    4    4    0    0  0.44210169478E-01 -0.55393450407E-01  0.20314081362E-01  0.73728532169E-01  0.51100000000E-03 0. -1.
</event>
<event>
 8    1  0.2928569E+004  0.1043930E+01  0.7957747E-01            NaN
         13   -1    0    0    0    0  0.00000000000E+00  0.00000000000E+00  0.74505805969E-08  0.10566000000E+00  0.10566000000E+00 0.  1.
     999900   -1    0    0    0    0 -0.00000000000E+00 -0.00000000000E+00 -0.74505805969E-08  0.93827000000E+00  0.93827000000E+00 0. -1.
     999902    2    1    2    0    0 -0.64713232816E-03 -0.76232629755E-03  0.14265193266E-01  0.10296298021E+01  0.10295304919E+01 0.  0.
     999903    2    3    3    0    0  0.13046148280E+00  0.12147904104E-01  0.20005955019E-01  0.13980448251E+00  0.44466673180E-01 0.  0.
         14    1    1    2    0    0  0.64713232816E-03  0.76232629755E-03 -0.14265193266E-01  0.14300197920E-01  0.00000000000E+00 0. -1.
     999901    1    3    3    0    0 -0.13110861513E+00 -0.12910230401E-01 -0.57407617527E-02  0.88982531957E+00  0.88000000000E+00 0.  1.
        -11    1    4    4    0    0  0.77768850981E-01  0.28525604357E-01  0.71487558612E-02  0.83144874274E-01  0.51100000000E-03 0.  1.
         11    1    4    4    0    0  0.52692631821E-01 -0.16377700253E-01  0.12857199157E-01  0.56659608231E-01  0.51100000000E-03 0. -1.
</event>
<event>
 8    1  0.2928569E+004  0.1043930E+01  0.7957747E-01            NaN
         13   -1    0    0    0    0  0.00000000000E+00  0.00000000000E+00  0.74505805969E-08  0.10566000000E+00  0.10566000000E+00 0. -1.
     999900   -1    0    0    0    0 -0.00000000000E+00 -0.00000000000E+00 -0.74505805969E-08  0.93827000000E+00  0.93827000000E+00 0. -1.
     999902    2    1    2    0    0  0.49526859003E-02  0.52607184814E-03 -0.11749299580E-01  0.10311686564E+01  0.10310896887E+01 0.  0.
     999903    2    3    3    0    0  0.10891275935E-01 -0.10950406761E+00  0.74250125029E-01  0.14013678299E+00  0.44894054894E-01 0.  0.
         14    1    1    2    0    0 -0.49526859003E-02 -0.52607184814E-03  0.11749299580E-01  0.12761343575E-01  0.00000000000E+00 0. -1.
     999901    1    3    3    0    0 -0.59385900346E-02  0.11003013946E+00 -0.85999424609E-01  0.89103187343E+00  0.88000000000E+00 0.  1.
        -11    1    4    4    0    0 -0.13031142873E-01 -0.74429851470E-01  0.55319982781E-01  0.93649212972E-01  0.51100000000E-03 0.  1.
         11    1    4    4    0    0  0.23922418808E-01 -0.35074216144E-01  0.18930142248E-01  0.46487570019E-01  0.51100000000E-03 0. -1.
</event>
<event>
 8    1  0.2928569E+004  0.1043930E+01  0.7957747E-01            NaN
         13   -1    0    0    0    0  0.00000000000E+00  0.00000000000E+00  0.74505805969E-08  0.10566000000E+00  0.10566000000E+00 0.  1.
     999900   -1    0    0    0    0 -0.00000000000E+00 -0.00000000000E+00 -0.74505805969E-08  0.93827000000E+00  0.93827000000E+00 0. -1.
     999902    2    1    2    0    0  0.11480343398E-01  0.27184857431E-02 -0.32934862974E-02  0.10316811020E+01  0.10316083854E+01 0.  0.
     999903    2    3    3    0    0  0.70526634888E-01 -0.10294442201E+00 -0.51496561284E-01  0.14208869478E+00  0.44336679053E-01 0.  0.
         14    1    1    2    0    0 -0.11480343398E-01 -0.27184857431E-02  0.32934862974E-02  0.12248897961E-01  0.00000000000E+00 0. -1.
     999901    1    3    3    0    0 -0.59046291490E-01  0.10566290775E+00  0.48203074986E-01  0.88959240726E+00  0.88000000000E+00 0. -1.
        -11    1    4    4    0    0  0.40461895682E-01 -0.43209292945E-01 -0.26220135971E-02  0.59256595205E-01  0.51100000000E-03 0. -1.
         11    1    4    4    0    0  0.30064739206E-01 -0.59735129062E-01 -0.48874547686E-01  0.82832099576E-01  0.51100000000E-03 0.  1.
</event>
<event>
 8    1  0.2928569E+004  0.1043930E+01  0.7957747E-01            NaN
         13   -1    0    0    0    0  0.00000000000E+00  0.00000000000E+00  0.74505805969E-08  0.10566000000E+00  0.10566000000E+00 0.  1.
     999900   -1    0    0    0    0 -0.00000000000E+00 -0.00000000000E+00 -0.74505805969E-08  0.93827000000E+00  0.93827000000E+00 0. -1.
     999902    2    1    2    0    0 -0.31445172230E-02  0.16122808256E-02  0.13731820563E-01  0.10297507781E+01  0.10296531526E+01 0.  0.
     999903    2    3    3    0    0  0.33226117996E-03  0.13220942517E+00  0.11244316430E-01  0.14010259494E+00  0.44976215446E-01 0.  0.
         14    1    1    2    0    0  0.31445172230E-02 -0.16122808256E-02 -0.13731820563E-01  0.14179221911E-01  0.00000000000E+00 0. -1.
     999901    1    3    3    0    0 -0.34767784030E-02 -0.13059714435E+00  0.24875041331E-02  0.88964818315E+00  0.88000000000E+00 0.  1.
        -11    1    4    4    0    0 -0.68679553806E-02  0.51015214001E-01 -0.16401444914E-01  0.54027672418E-01  0.51100000000E-03 0. -1.
         11    1    4    4    0    0  0.72002165606E-02  0.81194211171E-01  0.27645761344E-01  0.86074922524E-01  0.51100000000E-03 0.  1.
</event>
<event>
 8    1  0.2928569E+004  0.1043930E+01  0.7957747E-01            NaN
         13   -1    0    0    0    0  0.00000000000E+00  0.00000000000E+00  0.74505805969E-08  0.10566000000E+00  0.10566000000E+00 0. -1.
     999900   -1    0    0    0    0 -0.00000000000E+00 -0.00000000000E+00 -0.74505805969E-08  0.93827000000E+00  0.93827000000E+00 0. -1.
     999902    2    1    2    0    0  0.68740354389E-02 -0.67017258988E-02  0.90893468174E-02  0.10307094963E+01  0.10306247057E+01 0.  0.
     999903    2    3    3    0    0 -0.59662574760E-01  0.74503520612E-01  0.92113448515E-01  0.14058904711E+00  0.46583208982E-01 0.  0.
         14    1    1    2    0    0 -0.68740354389E-02  0.67017258988E-02 -0.90893468174E-02  0.13220503727E-01  0.00000000000E+00 0.  1.
     999901    1    3    3    0    0  0.66536610198E-01 -0.81205246511E-01 -0.83024101697E-01  0.89012044916E+00  0.88000000000E+00 0. -1.
        -11    1    4    4    0    0  0.63423125025E-02  0.18384386699E-01  0.14409182015E-01  0.24209424807E-01  0.51100000000E-03 0. -1.
         11    1    4    4    0    0 -0.66004887262E-01  0.56119133914E-01  0.77704266500E-01  0.11637962230E+00  0.51100000000E-03 0.  1.
</event>
<event>
 8    1  0.2928569E+004  0.1043930E+01  0.7957747E-01            NaN
         13   -1    0    0    0    0  0.00000000000E+00  0.00000000000E+00  0.74505805969E-08  0.10566000000E+00  0.10566000000E+00 0. -1.
     999900   -1    0    0    0    0 -0.00000000000E+00 -0.00000000000E+00 -0.74505805969E-08  0.93827000000E+00  0.93827000000E+00 0.  1.
     999902    2    1    2    0    0 -0.11256385771E-01  0.51873424133E-02  0.41557470641E-02  0.10308577020E+01  0.10307748138E+01 0.  0.
     999903    2    3    3    0    0 -0.91201415477E-01 -0.29924921540E-01  0.94388574247E-01  0.14194485926E+00  0.45010454412E-01 0.  0.
         14    1    1    2    0    0  0.11256385771E-01 -0.51873424133E-02 -0.41557470641E-02  0.13072298022E-01  0.00000000000E+00 0. -1.
     999901    1    3    3    0    0  0.79945029707E-01  0.35112263953E-01 -0.90232827183E-01  0.88891284272E+00  0.88000000000E+00 0.  1.
        -11    1    4    4    0    0 -0.35348495268E-01 -0.32442924215E-01  0.57818802798E-01  0.75135441220E-01  0.51100000000E-03 0.  1.
         11    1    4    4    0    0 -0.55852920209E-01  0.25180026749E-02  0.36569771449E-01  0.66809418036E-01  0.51100000000E-03 0. -1.
</event>
<event>
 8    1  0.2928569E+004  0.1043930E+01  0.7957747E-01            NaN
         13   -1    0    0    0    0  0.00000000000E+00  0.00000000000E+00  0.74505805969E-08  0.10566000000E+00  0.10566000000E+00 0.  1.
     999900   -1    0    0    0    0 -0.00000000000E+00 -0.00000000000E+00 -0.74505805969E-08  0.93827000000E+00  0.93827000000E+00 0.  1.
     999902    2    1    2    0    0 -0.24871000154E-02 -0.12175205401E-01  0.24232755795E-02  0.10312692908E+01  0.10311915712E+01 0.  0.
     999903    2    3    3    0    0  0.12259138249E+00 -0.17085049962E-01  0.50765704604E-01  0.14109755242E+00  0.44842129107E-01 0.  0.
         14    1    1    2    0    0  0.24871000154E-02  0.12175205401E-01 -0.24232755795E-02  0.12660709205E-01  0.00000000000E+00 0. -1.
     999901    1    3    3    0    0 -0.12507848250E+00  0.49098445610E-02 -0.48342429024E-01  0.89017173838E+00  0.88000000000E+00 0. -1.
        -11    1    4    4    0    0  0.38042219929E-01  0.48812557052E-02 -0.30756769029E-02  0.38480619328E-01  0.51100000000E-03 0. -1.
         11    1    4    4    0    0  0.84549162556E-01 -0.21966305667E-01  0.53841381507E-01  0.10261693309E+00  0.51100000000E-03 0.  1.
</event>
<event>
 8    1  0.2928569E+004  0.1043930E+01  0.7957747E-01            NaN
         13   -1    0    0    0    0  0.00000000000E+00  0.00000000000E+00  0.74505805969E-08  0.10566000000E+00  0.10566000000E+00 0. -1.
     999900   -1    0    0    0    0 -0.00000000000E+00 -0.00000000000E+00 -0.74505805969E-08  0.93827000000E+00  0.93827000000E+00 0. -1.
     999902    2    1    2    0    0 -0.11499282676E-01  0.10383780551E-02 -0.78365284120E-02  0.10299756849E+01  0.10298811527E+01 0.  0.
     999903    2    3    3    0    0  0.16154881868E-01  0.10681214864E+00  0.75774668109E-01  0.13927726486E+00  0.44570627925E-01 0.  0.
         14    1    1    2    0    0  0.11499282676E-01 -0.10383780551E-02  0.78365284120E-02  0.13954315053E-01  0.00000000000E+00 0. -1.
     999901    1    3    3    0    0 -0.27654164545E-01 -0.10577377059E+00 -0.83611196521E-01  0.89069842009E+00  0.88000000000E+00 0. -1.
        -11    1    4    4    0    0 -0.76503767642E-03  0.21787946087E-01  0.39868208815E-01  0.45442656970E-01  0.51100000000E-03 0. -1.
         11    1    4    4    0    0  0.16919919545E-01  0.85024202557E-01  0.35906459294E-01  0.93834607890E-01  0.51100000000E-03 0.  1.
</event>
<event>
 8    1  0.2928569E+004  0.1043930E+01  0.7957747E-01            NaN
         13   -1    0    0    0    0  0.00000000000E+00  0.00000000000E+00  0.74505805969E-08  0.10566000000E+00  0.10566000000E+00 0. -1.
     999900   -1    0    0    0    0 -0.00000000000E+00 -0.00000000000E+00 -0.74505805969E-08  0.93827000000E+00  0.93827000000E+00 0.  1.
     999902    2    1    2    0    0 -0.94567338163E-02 -0.13041988138E-01 -0.40677615784E-02  0.10273146471E+01  0.10271802734E+01 0.  0.
     999903    2    3    3    0    0 -0.51430450276E-01 -0.43610568663E-01  0.11207176823E+00  0.13816639093E+00  0.44529736535E-01 0.  0.
         14    1    1    2    0    0  0.94567338163E-02  0.13041988138E-01  0.40677615784E-02  0.16615352940E-01  0.00000000000E+00 0.  1.
     999901    1    3    3    0    0  0.41973716460E-01  0.30568580525E-01 -0.11613952980E+00  0.88914825613E+00  0.88000000000E+00 0.  1.
        -11    1    4    4    0    0 -0.43723970937E-01 -0.96504017098E-02  0.51058178969E-01  0.67912551479E-01  0.51100000000E-03 0. -1.
         11    1    4    4    0    0 -0.77064793384E-02 -0.33960166953E-01  0.61013589257E-01  0.70253839455E-01  0.51100000000E-03 0.  1.
</event>
<event>
 8    1  0.2928569E+004  0.1043930E+01  0.7957747E-01            NaN
         13   -1    0    0    0    0  0.00000000000E+00  0.00000000000E+00  0.74505805969E-08  0.10566000000E+00  0.10566000000E+00 0.  1.
     999900   -1    0    0    0    0 -0.00000000000E+00 -0.00000000000E+00 -0.74505805969E-08  0.93827000000E+00  0.93827000000E+00 0.  1.
     999902    2    1    2    0    0 -0.79322908739E-03 -0.49262123723E-02 -0.12968379094E-01  0.10300348340E+01  0.10299411069E+01 0.  0.
     999903    2    3    3    0    0 -0.13139819888E+00  0.17048765764E-01  0.44548745241E-02  0.13995386718E+00  0.44845199853E-01 0.  0.
         14    1    1    2    0    0  0.79322908739E-03  0.49262123723E-02  0.12968379094E-01  0.13895165959E-01  0.00000000000E+00 0.  1.
     999901    1    3    3    0    0  0.13060496979E+00 -0.21974978136E-01 -0.17423253618E-01  0.89008096686E+00  0.88000000000E+00 0. -1.
        -11    1    4    4    0    0 -0.54151953309E-01  0.29225700961E-01 -0.11879790832E-02  0.61548745391E-01  0.51100000000E-03 0.  1.
         11    1    4    4    0    0 -0.77246245569E-01 -0.12176935198E-01  0.56428536073E-02  0.78405121791E-01  0.51100000000E-03 0. -1.
</event>
<event>
 8    1  0.2928569E+004  0.1043930E+01  0.7957747E-01            NaN
         13   -1    0    0    0    0  0.00000000000E+00  0.00000000000E+00  0.74505805969E-08  0.10566000000E+00  0.10566000000E+00 0.  1.
     999900   -1    0    0    0    0 -0.00000000000E+00 -0.00000000000E+00 -0.74505805969E-08  0.93827000000E+00  0.93827000000E+00 0.  1.
     999902    2    1    2    0    0  0.47804021077E-02  0.14037631961E-01 -0.45442461772E-02  0.10284200829E+01  0.10283031213E+01 0.  0.
     999903    2    3    3    0    0  0.98225676754E-02 -0.12187258123E+00  0.41626138021E-01  0.13677625610E+00  0.45006665875E-01 0.  0.
         14    1    1    2    0    0 -0.47804021077E-02 -0.14037631961E-01  0.45442461772E-02  0.15509917108E-01  0.00000000000E+00 0.  1.
     999901    1    3    3    0    0 -0.50421655676E-02  0.13591021319E+00 -0.46170384198E-01  0.89164382679E+00  0.88000000000E+00 0.  1.
        -11    1    4    4    0    0  0.78033850584E-02 -0.28893857183E-01  0.31125313504E-01  0.43183261375E-01  0.51100000000E-03 0.  1.
         11    1    4    4    0    0  0.20191826170E-02 -0.92978724050E-01  0.10500824517E-01  0.93592994722E-01  0.51100000000E-03 0. -1.
</event>
<event>
 8    1  0.2928569E+004  0.1043930E+01  0.7957747E-01            NaN
         13   -1    0    0    0    0  0.00000000000E+00  0.00000000000E+00  0.74505805969E-08  0.10566000000E+00  0.10566000000E+00 0.  1.
     999900   -1    0    0    0    0 -0.00000000000E+00 -0.00000000000E+00 -0.74505805969E-08  0.93827000000E+00  0.93827000000E+00 0. -1.
     999902    2    1    2    0    0 -0.14705718943E-01  0.17353079773E-02 -0.35527672903E-02  0.10287020120E+01  0.10285892950E+01 0.  0.
     999903    2    3    3    0    0  0.52259261559E-01 -0.11842253269E+00 -0.16696750783E-01  0.13791866033E+00  0.44585297048E-01 0.  0.
         14    1    1    2    0    0  0.14705718943E-01 -0.17353079773E-02  0.35527672903E-02  0.15227988009E-01  0.00000000000E+00 0.  1.
     999901    1    3    3    0    0 -0.66964980501E-01  0.12015784067E+00  0.13143983493E-01  0.89078335166E+00  0.88000000000E+00 0. -1.
        -11    1    4    4    0    0  0.42708108577E-01 -0.46122707025E-01  0.10127588533E-02  0.62869495330E-01  0.51100000000E-03 0. -1.
         11    1    4    4    0    0  0.95511529818E-02 -0.72299825669E-01 -0.17709509637E-01  0.75049165003E-01  0.51100000000E-03 0.  1.
</event>
<event>
 8    1  0.2928569E+004  0.1043930E+01  0.7957747E-01            NaN
         13   -1    0    0    0    0  0.00000000000E+00  0.00000000000E+00  0.74505805969E-08  0.10566000000E+00  0.10566000000E+00 0. -1.
     999900   -1    0    0    0    0 -0.00000000000E+00 -0.00000000000E+00 -0.74505805969E-08  0.93827000000E+00  0.93827000000E+00 0. -1.
     999902    2    1    2    0    0 -0.10463566013E-01 -0.78582604849E-02  0.20385214264E-02  0.10306863585E+01  0.10306012689E+01 0.  0.
     999903    2    3    3    0    0  0.84755699247E-02  0.63153191016E-01 -0.11554036461E+00  0.13982940499E+00  0.46287426190E-01 0.  0.
         14    1    1    2    0    0  0.10463566013E-01  0.78582604849E-02 -0.20385214264E-02  0.13243641537E-01  0.00000000000E+00 0. -1.
     999901    1    3    3    0    0 -0.18939135938E-01 -0.71011451501E-01  0.11757888604E+00  0.89085695348E+00  0.88000000000E+00 0.  1.
        -11    1    4    4    0    0  0.27131856846E-01  0.35611606273E-01 -0.56832187587E-01  0.72349725806E-01  0.51100000000E-03 0.  1.
         11    1    4    4    0    0 -0.18656286921E-01  0.27541584743E-01 -0.58708177025E-01  0.67479679181E-01  0.51100000000E-03 0. -1.
</event>
<event>
 8    1  0.2928569E+004  0.1043930E+01  0.7957747E-01            NaN
         13   -1    0    0    0    0  0.00000000000E+00  0.00000000000E+00  0.74505805969E-08  0.10566000000E+00  0.10566000000E+00 0.  1.
     999900   -1    0    0    0    0 -0.00000000000E+00 -0.00000000000E+00 -0.74505805969E-08  0.93827000000E+00  0.93827000000E+00 0.  1.
     999902    2    1    2    0    0 -0.55604925091E-02  0.87337366411E-02  0.97217757398E-02  0.10297275299E+01  0.10296295818E+01 0.  0.
     999903    2    3    3    0    0  0.10314535241E+00 -0.18100586459E-01 -0.78551357552E-01  0.13825168186E+00  0.44459158910E-01 0.  0.
         14    1    1    2    0    0  0.55604925091E-02 -0.87337366411E-02 -0.97217757398E-02  0.14202470074E-01  0.00000000000E+00 0.  1.
     999901    1    3    3    0    0 -0.10870584492E+00  0.26834323100E-01  0.88273133292E-01  0.89147584806E+00  0.88000000000E+00 0. -1.
        -11    1    4    4    0    0  0.48351334485E-01  0.13865640979E-01 -0.36227584194E-01  0.61990374445E-01  0.51100000000E-03 0.  1.
         11    1    4    4    0    0  0.54794017925E-01 -0.31966227439E-01 -0.42323773358E-01  0.76261307420E-01  0.51100000000E-03 0. -1.
</event>
<event>
 8    1  0.2928569E+004  0.1043930E+01  0.7957747E-01            NaN
         13   -1    0    0    0    0  0.00000000000E+00  0.00000000000E+00  0.74505805969E-08  0.10566000000E+00  0.10566000000E+00 0. -1.
     999900   -1    0    0    0    0 -0.00000000000E+00 -0.00000000000E+00 -0.74505805969E-08  0.93827000000E+00  0.93827000000E+00 0.  1.
     999902    2    1    2    0    0 -0.10866469221E-01  0.78805829697E-02 -0.33846559511E-03  0.10305024797E+01  0.10304149953E+01 0.  0.
     999903    2    3    3    0    0  0.11680376716E+00  0.14280221953E-01 -0.59689435050E-01  0.13928803742E+00  0.44623804736E-01 0.  0.
         14    1    1    2    0    0  0.10866469221E-01 -0.78805829697E-02  0.33846559511E-03  0.13427520256E-01  0.00000000000E+00 0. -1.
     999901    1    3    3    0    0 -0.12767023638E+00 -0.63996389834E-02  0.59350969455E-01  0.89121444233E+00  0.88000000000E+00 0. -1.
        -11    1    4    4    0    0  0.65965246031E-01  0.17488759034E-01 -0.55877604266E-01  0.88203390842E-01  0.51100000000E-03 0.  1.
         11    1    4    4    0    0  0.50838521129E-01 -0.32085370810E-02 -0.38118307838E-02  0.51084646576E-01  0.51100000000E-03 0. -1.
</event>
<event>
 8    1  0.2928569E+004  0.1043930E+01  0.7957747E-01            NaN
         13   -1    0    0    0    0  0.00000000000E+00  0.00000000000E+00  0.74505805969E-08  0.10566000000E+00  0.10566000000E+00 0. -1.
     999900   -1    0    0    0    0 -0.00000000000E+00 -0.00000000000E+00 -0.74505805969E-08  0.93827000000E+00  0.93827000000E+00 0. -1.
     999902    2    1    2    0    0 -0.21392956507E-02 -0.63383893731E-02  0.12956768398E-01  0.10293481752E+01  0.10292448864E+01 0.  0.
     999903    2    3    3    0    0 -0.10980224506E+00 -0.71734489447E-01 -0.15541542196E-01  0.13992132931E+00  0.46195983212E-01 0.  0.
         14    1    1    2    0    0  0.21392956507E-02  0.63383893731E-02 -0.12956768398E-01  0.14581824750E-01  0.00000000000E+00 0.  1.
     999901    1    3    3    0    0  0.10766294941E+00  0.65396100074E-01  0.28498310594E-01  0.88942684594E+00  0.88000000000E+00 0. -1.
        -11    1    4    4    0    0 -0.74386420577E-01 -0.71179997296E-01 -0.55104612637E-02  0.10310459682E+00  0.51100000000E-03 0.  1.
         11    1    4    4    0    0 -0.35415824481E-01 -0.55449215133E-03 -0.10031080932E-01  0.36816732485E-01  0.51100000000E-03 0. -1.
</event>
<event>
 8    1  0.2928569E+004  0.1043930E+01  0.7957747E-01            NaN
         13   -1    0    0    0    0  0.00000000000E+00  0.00000000000E+00  0.74505805969E-08  0.10566000000E+00  0.10566000000E+00 0. -1.
     999900   -1    0    0    0    0 -0.00000000000E+00 -0.00000000000E+00 -0.74505805969E-08  0.93827000000E+00  0.93827000000E+00 0. -1.
     999902    2    1    2    0    0  0.12892636094E-01 -0.51532963154E-02 -0.13814772157E-03  0.10300449140E+01  0.10299513237E+01 0.  0.
     999903    2    3    3    0    0  0.45491823394E-01  0.51682819339E-01 -0.11300279493E+00  0.14042056651E+00  0.46985998205E-01 0.  0.
         14    1    1    2    0    0 -0.12892636094E-01  0.51532963154E-02  0.13814772157E-03  0.13885085997E-01  0.00000000000E+00 0.  1.
     999901    1    3    3    0    0 -0.32599187300E-01 -0.56836115654E-01  0.11286464721E+00  0.88962434749E+00  0.88000000000E+00 0.  1.
        -11    1    4    4    0    0  0.43100908263E-01  0.16848758621E-01 -0.79722454474E-01  0.92181884492E-01  0.51100000000E-03 0.  1.
         11    1    4    4    0    0  0.23909151309E-02  0.34834060718E-01 -0.33280340457E-01  0.48238682021E-01  0.51100000000E-03 0. -1.
</event>
<event>
 8    1  0.2928569E+004  0.1043930E+01  0.7957747E-01            NaN
         13   -1    0    0    0    0  0.00000000000E+00  0.00000000000E+00  0.74505805969E-08  0.10566000000E+00  0.10566000000E+00 0. -1.
     999900   -1    0    0    0    0 -0.00000000000E+00 -0.00000000000E+00 -0.74505805969E-08  0.93827000000E+00  0.93827000000E+00 0.  1.
     999902    2    1    2    0    0  0.90908756576E-03 -0.14440199303E-01  0.25572569920E-02  0.10292369622E+01  0.10291320805E+01 0.  0.
     999903    2    3    3    0    0  0.73503580564E-01 -0.10186367827E+00  0.44892302063E-01  0.14092109433E+00  0.45436227150E-01 0.  0.
         14    1    1    2    0    0 -0.90908756576E-03  0.14440199303E-01 -0.25572569920E-02  0.14693037788E-01  0.00000000000E+00 0.  1.
     999901    1    3    3    0    0 -0.72594492998E-01  0.87423478962E-01 -0.42335045071E-01  0.88831586788E+00  0.88000000000E+00 0. -1.
        -11    1    4    4    0    0  0.29693041273E-01 -0.36352600355E-01 -0.56731272722E-02  0.47282488795E-01  0.51100000000E-03 0. -1.
         11    1    4    4    0    0  0.43810539291E-01 -0.65511077910E-01  0.50565429335E-01  0.93638605537E-01  0.51100000000E-03 0.  1.
</event>
<event>
 8    1  0.2928569E+004  0.1043930E+01  0.7957747E-01            NaN
         13   -1    0    0    0    0  0.00000000000E+00  0.00000000000E+00  0.74505805969E-08  0.10566000000E+00  0.10566000000E+00 0.  1.
     999900   -1    0    0    0    0 -0.00000000000E+00 -0.00000000000E+00 -0.74505805969E-08  0.93827000000E+00  0.93827000000E+00 0. -1.
     999902    2    1    2    0    0  0.10641969377E-01 -0.70126983007E-02 -0.42277201408E-02  0.10305023022E+01  0.10304148154E+01 0.  0.
     999903    2    3    3    0    0 -0.13074397455E+00 -0.15070298085E-01  0.26632193833E-02  0.13915366388E+00  0.45117055180E-01 0.  0.
         14    1    1    2    0    0 -0.10641969377E-01  0.70126983007E-02  0.42277201408E-02  0.13427697765E-01  0.00000000000E+00 0. -1.
     999901    1    3    3    0    0  0.14138594393E+00  0.80575997840E-02 -0.68909395241E-02  0.89134863836E+00  0.88000000000E+00 0.  1.
        -11    1    4    4    0    0 -0.31990826295E-02 -0.46585573388E-02  0.94290683355E-02  0.11004759735E-01  0.51100000000E-03 0. -1.
         11    1    4    4    0    0 -0.12754489192E+00 -0.10411740746E-01 -0.67658489522E-02  0.12814890414E+00  0.51100000000E-03 0.  1.
</event>
<event>
 8    1  0.2928569E+004  0.1043930E+01  0.7957747E-01            NaN
         13   -1    0    0    0    0  0.00000000000E+00  0.00000000000E+00  0.74505805969E-08  0.10566000000E+00  0.10566000000E+00 0.  1.
     999900   -1    0    0    0    0 -0.00000000000E+00 -0.00000000000E+00 -0.74505805969E-08  0.93827000000E+00  0.93827000000E+00 0. -1.
     999902    2    1    2    0    0  0.16463728761E-01  0.62361338945E-02 -0.41274582073E-02  0.10258474216E+01  0.10256880387E+01 0.  0.
     999903    2    3    3    0    0 -0.65647223570E-01  0.54655362861E-01 -0.95484952062E-01  0.13599753430E+00  0.45620024262E-01 0.  0.
         14    1    1    2    0    0 -0.16463728761E-01 -0.62361338945E-02  0.41274582073E-02  0.18082578409E-01  0.00000000000E+00 0. -1.
     999901    1    3    3    0    0  0.82110952331E-01 -0.48419228967E-01  0.91357493855E-01  0.88984988729E+00  0.88000000000E+00 0.  1.
        -11    1    4    4    0    0 -0.30851941386E-01  0.31893386060E-01 -0.80268343267E-01  0.91718582705E-01  0.51100000000E-03 0. -1.
         11    1    4    4    0    0 -0.34795282185E-01  0.22761976802E-01 -0.15216608795E-01  0.44278951596E-01  0.51100000000E-03 0.  1.
</event>
<event>
 8    1  0.2928569E+004  0.1043930E+01  0.7957747E-01            NaN
         13   -1    0    0    0    0  0.00000000000E+00  0.00000000000E+00  0.74505805969E-08  0.10566000000E+00  0.10566000000E+00 0.  1.
     999900   -1    0    0    0    0 -0.00000000000E+00 -0.00000000000E+00 -0.74505805969E-08  0.93827000000E+00  0.93827000000E+00 0.  1.
     999902    2    1    2    0    0 -0.32298624920E-02 -0.17769111210E-01 -0.35289267226E-02  0.10255281890E+01  0.10253630770E+01 0.  0.
     999903    2    3    3    0    0 -0.66419535005E-01 -0.74667481335E-01 -0.83544727685E-01  0.13781602412E+00  0.45019413390E-01 0.  0.
         14    1    1    2    0    0  0.32298624920E-02  0.17769111210E-01  0.35289267226E-02  0.18401811018E-01  0.00000000000E+00 0.  1.
     999901    1    3    3    0    0  0.63189672513E-01  0.56898370125E-01  0.80015800963E-01  0.88771216486E+00  0.88000000000E+00 0.  1.
        -11    1    4    4    0    0 -0.30063799961E-02 -0.31886932000E-01 -0.16182831178E-01  0.35888158200E-01  0.51100000000E-03 0. -1.
         11    1    4    4    0    0 -0.63413155009E-01 -0.42780549335E-01 -0.67361896507E-01  0.10192786592E+00  0.51100000000E-03 0.  1.
</event>
<event>
 8    1  0.2928569E+004  0.1043930E+01  0.7957747E-01            NaN
         13   -1    0    0    0    0  0.00000000000E+00  0.00000000000E+00  0.74505805969E-08  0.10566000000E+00  0.10566000000E+00 0. -1.
     999900   -1    0    0    0    0 -0.00000000000E+00 -0.00000000000E+00 -0.74505805969E-08  0.93827000000E+00  0.93827000000E+00 0. -1.
     999902    2    1    2    0    0  0.10228505523E-01  0.97085198725E-02 -0.21781572005E-01  0.10179816944E+01  0.10176509301E+01 0.  0.
     999903    2    3    3    0    0 -0.50179640262E-02 -0.59997388182E-01  0.10201491241E+00  0.12645663139E+00  0.44264779647E-01 0.  0.
         14    1    1    2    0    0 -0.10228505523E-01 -0.97085198725E-02  0.21781572005E-01  0.25948305578E-01  0.00000000000E+00 0. -1.
     999901    1    3    3    0    0  0.15246469550E-01  0.69705908055E-01 -0.12379648442E+00  0.89152506303E+00  0.88000000000E+00 0. -1.
        -11    1    4    4    0    0  0.80668779218E-02 -0.43657332148E-01  0.94140590983E-01  0.10408529753E+00  0.51100000000E-03 0.  1.
         11    1    4    4    0    0 -0.13084841948E-01 -0.16340056034E-01  0.78743214304E-02  0.22371333867E-01  0.51100000000E-03 0. -1.
</event>
<event>
 8    1  0.2928569E+004  0.1043930E+01  0.7957747E-01            NaN
         13   -1    0    0    0    0  0.00000000000E+00  0.00000000000E+00  0.74505805969E-08  0.10566000000E+00  0.10566000000E+00 0.  1.
     999900   -1    0    0    0    0 -0.00000000000E+00 -0.00000000000E+00 -0.74505805969E-08  0.93827000000E+00  0.93827000000E+00 0. -1.
     999902    2    1    2    0    0  0.14215153269E-02  0.25423060094E-02 -0.18195364935E-01  0.10255029728E+01  0.10253374039E+01 0.  0.
     999903    2    3    3    0    0  0.44246667598E-01 -0.80332998621E-01 -0.93136572834E-01  0.13740472689E+00  0.42361297319E-01 0.  0.
         14    1    1    2    0    0 -0.14215153269E-02 -0.25423060094E-02  0.18195364935E-01  0.18427027182E-01  0.00000000000E+00 0.  1.
     999901    1    3    3    0    0 -0.42825152271E-01  0.82875304631E-01  0.74941207899E-01  0.88809824593E+00  0.88000000000E+00 0.  1.
        -11    1    4    4    0    0  0.44697623452E-01 -0.38149676545E-01 -0.56679024744E-01  0.81645871479E-01  0.51100000000E-03 0. -1.
         11    1    4    4    0    0 -0.45095585389E-03 -0.42183322076E-01 -0.36457548090E-01  0.55758855407E-01  0.51100000000E-03 0.  1.
</event>
<event>
 8    1  0.2928569E+004  0.1043930E+01  0.7957747E-01            NaN
         13   -1    0    0    0    0  0.00000000000E+00  0.00000000000E+00  0.74505805969E-08  0.10566000000E+00  0.10566000000E+00 0.  1.
     999900   -1    0    0    0    0 -0.00000000000E+00 -0.00000000000E+00 -0.74505805969E-08  0.93827000000E+00  0.93827000000E+00 0.  1.
     999902    2    1    2    0    0  0.10009190705E-01  0.90832722823E-02 -0.25990380901E-02  0.10301661076E+01  0.10300741549E+01 0.  0.
     999903    2    3    3    0    0  0.34694408324E-01  0.93954851145E-01  0.89537291916E-01  0.14095204557E+00  0.42653680792E-01 0.  0.
         14    1    1    2    0    0 -0.10009190705E-01 -0.90832722823E-02  0.25990380901E-02  0.13763892361E-01  0.00000000000E+00 0.  1.
     999901    1    3    3    0    0 -0.24685217619E-01 -0.84871578863E-01 -0.92136330006E-01  0.88921406207E+00  0.88000000000E+00 0.  1.
        -11    1    4    4    0    0  0.13239778896E-01  0.30627576949E-01  0.58244572301E-01  0.67126980705E-01  0.51100000000E-03 0.  1.
         11    1    4    4    0    0  0.21454629428E-01  0.63327274196E-01  0.31292719614E-01  0.73825064869E-01  0.51100000000E-03 0. -1.
</event>
<event>
 8    1  0.2928569E+004  0.1043930E+01  0.7957747E-01            NaN
         13   -1    0    0    0    0  0.00000000000E+00  0.00000000000E+00  0.74505805969E-08  0.10566000000E+00  0.10566000000E+00 0.  1.
     999900   -1    0    0    0    0 -0.00000000000E+00 -0.00000000000E+00 -0.74505805969E-08  0.93827000000E+00  0.93827000000E+00 0.  1.
     999902    2    1    2    0    0  0.81491489752E-02 -0.72275854291E-03 -0.47758437322E-02  0.10344568964E+01  0.10344135202E+01 0.  0.
     999903    2    3    3    0    0 -0.67848919923E-01  0.85578531272E-01  0.79198939930E-01  0.14301122591E+00  0.47461328477E-01 0.  0.
         14    1    1    2    0    0 -0.81491489752E-02  0.72275854291E-03  0.47758437322E-02  0.94731036248E-02  0.00000000000E+00 0.  1.
     999901    1    3    3    0    0  0.75998068899E-01 -0.86301289815E-01 -0.83974783662E-01  0.89144567047E+00  0.88000000000E+00 0.  1.
        -11    1    4    4    0    0  0.18226324191E-02  0.29282726531E-01  0.16397292197E-01  0.33614466743E-01  0.51100000000E-03 0. -1.
         11    1    4    4    0    0 -0.69671552342E-01  0.56295804742E-01  0.62801647733E-01  0.10939675917E+00  0.51100000000E-03 0.  1.
</event>
<event>
 8    1  0.2928569E+004  0.1043930E+01  0.7957747E-01            NaN
         13   -1    0    0    0    0  0.00000000000E+00  0.00000000000E+00  0.74505805969E-08  0.10566000000E+00  0.10566000000E+00 0.  1.
     999900   -1    0    0    0    0 -0.00000000000E+00 -0.00000000000E+00 -0.74505805969E-08  0.93827000000E+00  0.93827000000E+00 0.  1.
     999902    2    1    2    0    0 -0.28980259794E-04  0.14305002668E-03 -0.14360348572E-01  0.10295689097E+01  0.10294687460E+01 0.  0.
     999903    2    3    3    0    0  0.11202016658E+00  0.54460448965E-01  0.43948335630E-01  0.13889203576E+00  0.42954431337E-01 0.  0.
         14    1    1    2    0    0  0.28980259794E-04 -0.14305002668E-03  0.14360348572E-01  0.14361090288E-01  0.00000000000E+00 0.  1.
     999901    1    3    3    0    0 -0.11204914684E+00 -0.54317398938E-01 -0.58308684202E-01  0.89067687395E+00  0.88000000000E+00 0.  1.
        -11    1    4    4    0    0  0.10711471489E+00  0.44298368335E-01  0.27827980835E-01  0.11920807532E+00  0.51100000000E-03 0. -1.
         11    1    4    4    0    0  0.49054516909E-02  0.10162080630E-01  0.16120354795E-01  0.19683960443E-01  0.51100000000E-03 0.  1.
</event>
<event>
 8    1  0.2928569E+004  0.1043930E+01  0.7957747E-01            NaN
         13   -1    0    0    0    0  0.00000000000E+00  0.00000000000E+00  0.74505805969E-08  0.10566000000E+00  0.10566000000E+00 0. -1.
     999900   -1    0    0    0    0 -0.00000000000E+00 -0.00000000000E+00 -0.74505805969E-08  0.93827000000E+00  0.93827000000E+00 0. -1.
     999902    2    1    2    0    0 -0.67389828466E-02 -0.84504639088E-03 -0.56405838099E-02  0.10351013999E+01  0.10350637488E+01 0.  0.
     999903    2    3    3    0    0  0.12594979714E+00 -0.21731590544E-01  0.46929974209E-01  0.14335803797E+00  0.44871941597E-01 0.  0.
         14    1    1    2    0    0  0.67389828466E-02  0.84504639088E-03  0.56405838099E-02  0.88286000547E-02  0.00000000000E+00 0.  1.
     999901    1    3    3    0    0 -0.13268877999E+00  0.20886544153E-01 -0.52570558019E-01  0.89174336198E+00  0.88000000000E+00 0. -1.
        -11    1    4    4    0    0  0.34356297079E-01 -0.17508597635E-01 -0.34832041586E-02  0.38720795089E-01  0.51100000000E-03 0. -1.
         11    1    4    4    0    0  0.91593500063E-01 -0.42229929095E-02  0.50413178367E-01  0.10463724288E+00  0.51100000000E-03 0.  1.
</event>
<event>
 8    1  0.2928569E+004  0.1043930E+01  0.7957747E-01            NaN
         13   -1    0    0    0    0  0.00000000000E+00  0.00000000000E+00  0.74505805969E-08  0.10566000000E+00  0.10566000000E+00 0. -1.
     999900   -1    0    0    0    0 -0.00000000000E+00 -0.00000000000E+00 -0.74505805969E-08  0.93827000000E+00  0.93827000000E+00 0. -1.
     999902    2    1    2    0    0 -0.22374500701E-02 -0.83147375988E-02  0.11281754602E-01  0.10297377827E+01  0.10296399770E+01 0.  0.
     999903    2    3    3    0    0  0.88834968644E-01 -0.46635502593E-01 -0.85405172932E-01  0.13894542284E+00  0.44105160796E-01 0.  0.
         14    1    1    2    0    0  0.22374500701E-02  0.83147375988E-02 -0.11281754602E-01  0.14192217271E-01  0.00000000000E+00 0. -1.
     999901    1    3    3    0    0 -0.91072418714E-01  0.38320764994E-01  0.96686927534E-01  0.89079235989E+00  0.88000000000E+00 0.  1.
        -11    1    4    4    0    0  0.39040029352E-02 -0.12093264828E-01 -0.28043068024E-01  0.30792256791E-01  0.51100000000E-03 0. -1.
         11    1    4    4    0    0  0.84930965709E-01 -0.34542237765E-01 -0.57362104908E-01  0.10815316605E+00  0.51100000000E-03 0.  1.
</event>
<event>
 8    1  0.2928569E+004  0.1043930E+01  0.7957747E-01            NaN
         13   -1    0    0    0    0  0.00000000000E+00  0.00000000000E+00  0.74505805969E-08  0.10566000000E+00  0.10566000000E+00 0. -1.
     999900   -1    0    0    0    0 -0.00000000000E+00 -0.00000000000E+00 -0.74505805969E-08  0.93827000000E+00  0.93827000000E+00 0.  1.
     999902    2    1    2    0    0 -0.92161303566E-04 -0.78585717934E-03 -0.14516825028E-01  0.10293916275E+01  0.10292889578E+01 0.  0.
     999903    2    3    3    0    0 -0.87946070926E-01  0.93182637645E-01 -0.36013702375E-01  0.13977906962E+00  0.42704639034E-01 0.  0.
         14    1    1    2    0    0  0.92161303566E-04  0.78585717934E-03  0.14516825028E-01  0.14538372471E-01  0.00000000000E+00 0. -1.
     999901    1    3    3    0    0  0.87853909623E-01 -0.93968494824E-01  0.21496877347E-01  0.88961255791E+00  0.88000000000E+00 0. -1.
        -11    1    4    4    0    0 -0.81968858479E-02  0.91235421160E-02 -0.19064630519E-01  0.22674858681E-01  0.51100000000E-03 0.  1.
         11    1    4    4    0    0 -0.79749185078E-01  0.84059095529E-01 -0.16949071855E-01  0.11710421094E+00  0.51100000000E-03 0. -1.
</event>
<event>
 8    1  0.2928569E+004  0.1043930E+01  0.7957747E-01            NaN
         13   -1    0    0    0    0  0.00000000000E+00  0.00000000000E+00  0.74505805969E-08  0.10566000000E+00  0.10566000000E+00 0.  1.
     999900   -1    0    0    0    0 -0.00000000000E+00 -0.00000000000E+00 -0.74505805969E-08  0.93827000000E+00  0.93827000000E+00 0. -1.
     999902    2    1    2    0    0 -0.50052381045E-02 -0.12031371494E-01 -0.12396458263E-02  0.10308401936E+01  0.10307570819E+01 0.  0.
     999903    2    3    3    0    0  0.29978820667E-01 -0.12845595237E+00  0.27434254546E-01  0.14202032441E+00  0.44916286969E-01 0.  0.
         14    1    1    2    0    0  0.50052381045E-02  0.12031371494E-01  0.12396458263E-02  0.13089806350E-01  0.00000000000E+00 0. -1.
     999901    1    3    3    0    0 -0.34984058772E-01  0.11642458087E+00 -0.28673900372E-01  0.88881986924E+00  0.88000000000E+00 0. -1.
        -11    1    4    4    0    0  0.15977772689E-01 -0.28263242885E-01  0.24731380494E-01  0.40816692916E-01  0.51100000000E-03 0.  1.
         11    1    4    4    0    0  0.14001047978E-01 -0.10019270948E+00  0.27028740522E-02  0.10120363149E+00  0.51100000000E-03 0. -1.
</event>
<event>
 8    1  0.2928569E+004  0.1043930E+01  0.7957747E-01            NaN
         13   -1    0    0    0    0  0.00000000000E+00  0.00000000000E+00  0.74505805969E-08  0.10566000000E+00  0.10566000000E+00 0.  1.
     999900   -1    0    0    0    0 -0.00000000000E+00 -0.00000000000E+00 -0.74505805969E-08  0.93827000000E+00  0.93827000000E+00 0.  1.
     999902    2    1    2    0    0 -0.79665998966E-02  0.65196552909E-02  0.92858951558E-02  0.10300663617E+01  0.10299730623E+01 0.  0.
     999903    2    3    3    0    0 -0.12208102400E+00  0.13083495415E-01 -0.51740919696E-01  0.14057804925E+00  0.44834260199E-01 0.  0.
         14    1    1    2    0    0  0.79665998966E-02 -0.65196552909E-02 -0.92858951558E-02  0.13863638334E-01  0.00000000000E+00 0. -1.
     999901    1    3    3    0    0  0.11411442410E+00 -0.65638401246E-02  0.61026814852E-01  0.88948831241E+00  0.88000000000E+00 0. -1.
        -11    1    4    4    0    0 -0.76158728581E-01  0.48808679245E-02 -0.81857471884E-02  0.76754429115E-01  0.51100000000E-03 0.  1.
         11    1    4    4    0    0 -0.45922295420E-01  0.82026274910E-02 -0.43555172508E-01  0.63823620139E-01  0.51100000000E-03 0. -1.
</event>
<event>
 8    1  0.2928569E+004  0.1043930E+01  0.7957747E-01            NaN
         13   -1    0    0    0    0  0.00000000000E+00  0.00000000000E+00  0.74505805969E-08  0.10566000000E+00  0.10566000000E+00 0. -1.
     999900   -1    0    0    0    0 -0.00000000000E+00 -0.00000000000E+00 -0.74505805969E-08  0.93827000000E+00  0.93827000000E+00 0.  1.
     999902    2    1    2    0    0 -0.80688054296E-02  0.60947248386E-02  0.92908949978E-02  0.10301978472E+01  0.10301063209E+01 0.  0.
     999903    2    3    3    0    0 -0.84243763875E-01  0.10374545403E+00  0.11482744871E-01  0.14152293842E+00  0.45130451864E-01 0.  0.
         14    1    1    2    0    0  0.80688054296E-02 -0.60947248386E-02 -0.92908949978E-02  0.13732152846E-01  0.00000000000E+00 0.  1.
     999901    1    3    3    0    0  0.76174958446E-01 -0.97650729193E-01 -0.21918498736E-02  0.88867490873E+00  0.88000000000E+00 0.  1.
        -11    1    4    4    0    0 -0.39352899625E-01  0.82229747249E-01  0.10099120256E-01  0.91720419714E-01  0.51100000000E-03 0. -1.
         11    1    4    4    0    0 -0.44890864250E-01  0.21515706782E-01  0.13836246151E-02  0.49802518707E-01  0.51100000000E-03 0.  1.
</event>
<event>
 8    1  0.2928569E+004  0.1043930E+01  0.7957747E-01            NaN
         13   -1    0    0    0    0  0.00000000000E+00  0.00000000000E+00  0.74505805969E-08  0.10566000000E+00  0.10566000000E+00 0. -1.
     999900   -1    0    0    0    0 -0.00000000000E+00 -0.00000000000E+00 -0.74505805969E-08  0.93827000000E+00  0.93827000000E+00 0. -1.
     999902    2    1    2    0    0  0.46194254684E-02  0.11874463656E-01 -0.89645572816E-02  0.10283509992E+01  0.10282329854E+01 0.  0.
     999903    2    3    3    0    0 -0.90921736777E-01 -0.68183694225E-01  0.61348488445E-01  0.13678981413E+00  0.45078130365E-01 0.  0.
         14    1    1    2    0    0 -0.46194254684E-02 -0.11874463656E-01  0.89645572816E-02  0.15579000803E-01  0.00000000000E+00 0. -1.
     999901    1    3    3    0    0  0.95541162245E-01  0.80058157881E-01 -0.70313045727E-01  0.89156118507E+00  0.88000000000E+00 0. -1.
        -11    1    4    4    0    0 -0.39278887661E-01 -0.42305737497E-01  0.53100231561E-01  0.78437887235E-01  0.51100000000E-03 0. -1.
         11    1    4    4    0    0 -0.51642849115E-01 -0.25877956728E-01  0.82482568847E-02  0.58351926890E-01  0.51100000000E-03 0.  1.
</event>
<event>
 8    1  0.2928569E+004  0.1043930E+01  0.7957747E-01            NaN
         13   -1    0    0    0    0  0.00000000000E+00  0.00000000000E+00  0.74505805969E-08  0.10566000000E+00  0.10566000000E+00 0.  1.
     999900   -1    0    0    0    0 -0.00000000000E+00 -0.00000000000E+00 -0.74505805969E-08  0.93827000000E+00  0.93827000000E+00 0.  1.
     999902    2    1    2    0    0 -0.14753806784E-02  0.14153927461E-01 -0.28106274002E-02  0.10294244825E+01  0.10293222796E+01 0.  0.
     999903    2    3    3    0    0 -0.37325917190E-01  0.93802215130E-01 -0.87488938135E-01  0.14105545616E+00  0.45279661660E-01 0.  0.
         14    1    1    2    0    0  0.14753806784E-02 -0.14153927461E-01  0.28106274002E-02  0.14505517471E-01  0.00000000000E+00 0.  1.
     999901    1    3    3    0    0  0.35850536512E-01 -0.79648287669E-01  0.84678310735E-01  0.88836902637E+00  0.88000000000E+00 0.  1.
        -11    1    4    4    0    0  0.24307647816E-02  0.48117616663E-01 -0.51865149694E-01  0.70791726384E-01  0.51100000000E-03 0. -1.
         11    1    4    4    0    0 -0.39756681972E-01  0.45684598467E-01 -0.35623788442E-01  0.70263729779E-01  0.51100000000E-03 0.  1.
</event>
<event>
 8    1  0.2928569E+004  0.1043930E+01  0.7957747E-01            NaN
         13   -1    0    0    0    0  0.00000000000E+00  0.00000000000E+00  0.74505805969E-08  0.10566000000E+00  0.10566000000E+00 0.  1.
     999900   -1    0    0    0    0 -0.00000000000E+00 -0.00000000000E+00 -0.74505805969E-08  0.93827000000E+00  0.93827000000E+00 0.  1.
     999902    2    1    2    0    0  0.14242933354E-01 -0.90939079265E-02 -0.18913139284E-01  0.10185672882E+01  0.10182514687E+01 0.  0.
     999903    2    3    3    0    0 -0.65586397328E-01 -0.63896832519E-02 -0.10512304179E+00  0.13075414224E+00  0.41272124120E-01 0.  0.
         14    1    1    2    0    0 -0.14242933354E-01  0.90939079265E-02  0.18913139284E-01  0.25362711793E-01  0.00000000000E+00 0.  1.
     999901    1    3    3    0    0  0.79829330682E-01 -0.27042246746E-02  0.86209902510E-01  0.88781314597E+00  0.88000000000E+00 0. -1.
        -11    1    4    4    0    0 -0.54560896763E-01  0.11038738688E-01 -0.87047708536E-01  0.10332623040E+00  0.51100000000E-03 0.  1.
         11    1    4    4    0    0 -0.11025500565E-01 -0.17428421940E-01 -0.18075333258E-01  0.27427911831E-01  0.51100000000E-03 0. -1.
</event>
<event>
 8    1  0.2928569E+004  0.1043930E+01  0.7957747E-01            NaN
         13   -1    0    0    0    0  0.00000000000E+00  0.00000000000E+00  0.74505805969E-08  0.10566000000E+00  0.10566000000E+00 0.  1.
     999900   -1    0    0    0    0 -0.00000000000E+00 -0.00000000000E+00 -0.74505805969E-08  0.93827000000E+00  0.93827000000E+00 0. -1.
     999902    2    1    2    0    0 -0.55322152445E-02  0.11265582791E-01 -0.87775916022E-02  0.10286144891E+01  0.10285004629E+01 0.  0.
     999903    2    3    3    0    0  0.10475170105E+00 -0.11700534780E-01 -0.78518100407E-01  0.13869667076E+00  0.44292809812E-01 0.  0.
         14    1    1    2    0    0  0.55322152445E-02 -0.11265582791E-01  0.87775916022E-02  0.15315510944E-01  0.00000000000E+00 0.  1.
     999901    1    3    3    0    0 -0.11028391630E+00  0.22966117571E-01  0.69740508805E-01  0.88991781829E+00  0.88000000000E+00 0.  1.
        -11    1    4    4    0    0  0.28784417147E-01 -0.23770002012E-01 -0.28042710212E-01  0.46692723021E-01  0.51100000000E-03 0.  1.
         11    1    4    4    0    0  0.75967283907E-01  0.12069467231E-01 -0.50475390195E-01  0.92003947740E-01  0.51100000000E-03 0. -1.
</event>
<event>
 8    1  0.2928569E+004  0.1043930E+01  0.7957747E-01            NaN
         13   -1    0    0    0    0  0.00000000000E+00  0.00000000000E+00  0.74505805969E-08  0.10566000000E+00  0.10566000000E+00 0.  1.
     999900   -1    0    0    0    0 -0.00000000000E+00 -0.00000000000E+00 -0.74505805969E-08  0.93827000000E+00  0.93827000000E+00 0.  1.
     999902    2    1    2    0    0  0.39514811036E-02 -0.14355803335E-01  0.88913763602E-02  0.10265875704E+01  0.10264410747E+01 0.  0.
     999903    2    3    3    0    0  0.39213502731E-01 -0.12145064755E+00  0.31343869013E-01  0.13910977894E+00  0.45619446373E-01 0.  0.
         14    1    1    2    0    0 -0.39514811036E-02  0.14355803335E-01 -0.88913763602E-02  0.17342429642E-01  0.00000000000E+00 0. -1.
     999901    1    3    3    0    0 -0.35262021627E-01  0.10709484421E+00 -0.22452492653E-01  0.88747779141E+00  0.88000000000E+00 0. -1.
        -11    1    4    4    0    0  0.27628154680E-01 -0.11877012769E+00  0.21849092411E-01  0.12388422871E+00  0.51100000000E-03 0. -1.
         11    1    4    4    0    0  0.11585348051E-01 -0.26805198524E-02  0.94947766028E-02  0.15225550232E-01  0.51100000000E-03 0.  1.
</event>
<event>
 8    1  0.2928569E+004  0.1043930E+01  0.7957747E-01            NaN
         13   -1    0    0    0    0  0.00000000000E+00  0.00000000000E+00  0.74505805969E-08  0.10566000000E+00  0.10566000000E+00 0. -1.
     999900   -1    0    0    0    0 -0.00000000000E+00 -0.00000000000E+00 -0.74505805969E-08  0.93827000000E+00  0.93827000000E+00 0. -1.
     999902    2    1    2    0    0  0.69590940569E-02  0.16178056046E-02  0.12369100229E-01  0.10296457105E+01  0.10295466227E+01 0.  0.
     999903    2    3    3    0    0 -0.10266749434E+00 -0.28003857384E-01  0.78692748575E-01  0.13987368460E+00  0.45246751741E-01 0.  0.
         14    1    1    2    0    0 -0.69590940569E-02 -0.16178056046E-02 -0.12369100229E-01  0.14284289466E-01  0.00000000000E+00 0.  1.
     999901    1    3    3    0    0  0.10962658840E+00  0.29621662989E-01 -0.66323648346E-01  0.88977202593E+00  0.88000000000E+00 0. -1.
        -11    1    4    4    0    0 -0.35544250448E-01 -0.31219139978E-01  0.42230967564E-01  0.63417223081E-01  0.51100000000E-03 0. -1.
         11    1    4    4    0    0 -0.67123243892E-01  0.32152825939E-02  0.36461781012E-01  0.76456461521E-01  0.51100000000E-03 0.  1.
</event>
<event>
 8    1  0.2928569E+004  0.1043930E+01  0.7957747E-01            NaN
         13   -1    0    0    0    0  0.00000000000E+00  0.00000000000E+00  0.74505805969E-08  0.10566000000E+00  0.10566000000E+00 0. -1.
     999900   -1    0    0    0    0 -0.00000000000E+00 -0.00000000000E+00 -0.74505805969E-08  0.93827000000E+00  0.93827000000E+00 0. -1.
     999902    2    1    2    0    0  0.86283043444E-02  0.87121144095E-02  0.50378134589E-02  0.10306737510E+01  0.10305884983E+01 0.  0.
     999903    2    3    3    0    0 -0.84811305318E-01 -0.14754448156E-01  0.10228026817E+00  0.14009094450E+00  0.41875628065E-01 0.  0.
         14    1    1    2    0    0 -0.86283043444E-02 -0.87121144095E-02 -0.50378134589E-02  0.13256249009E-01  0.00000000000E+00 0. -1.
     999901    1    3    3    0    0  0.93439609662E-01  0.23466562565E-01 -0.97242454707E-01  0.89058280649E+00  0.88000000000E+00 0. -1.
        -11    1    4    4    0    0 -0.40181784554E-01 -0.20798796498E-01  0.27965896800E-01  0.53193216208E-01  0.51100000000E-03 0.  1.
         11    1    4    4    0    0 -0.44629520764E-01  0.60443483427E-02  0.74314371366E-01  0.86897728296E-01  0.51100000000E-03 0. -1.
</event>
<event>
 8    1  0.2928569E+004  0.1043930E+01  0.7957747E-01            NaN
         13   -1    0    0    0    0  0.00000000000E+00  0.00000000000E+00  0.74505805969E-08  0.10566000000E+00  0.10566000000E+00 0.  1.
     999900   -1    0    0    0    0 -0.00000000000E+00 -0.00000000000E+00 -0.74505805969E-08  0.93827000000E+00  0.93827000000E+00 0.  1.
     999902    2    1    2    0    0  0.80072052723E-02 -0.11107880493E-02  0.12229515164E-01  0.10292701832E+01  0.10291657786E+01 0.  0.
     999903    2    3    3    0    0  0.70254170844E-01 -0.42494259341E-01  0.10577543689E+00  0.14116089047E+00  0.44682696335E-01 0.  0.
         14    1    1    2    0    0 -0.80072052723E-02  0.11107880493E-02 -0.12229515164E-01  0.14659816762E-01  0.00000000000E+00 0. -1.
     999901    1    3    3    0    0 -0.62246965572E-01  0.41383471291E-01 -0.93545921729E-01  0.88810929276E+00  0.88000000000E+00 0.  1.
        -11    1    4    4    0    0  0.27971903985E-01 -0.36807540175E-01  0.33005388344E-01  0.56805274465E-01  0.51100000000E-03 0. -1.
         11    1    4    4    0    0  0.42282266859E-01 -0.56867191659E-02  0.72770048549E-01  0.84355616010E-01  0.51100000000E-03 0.  1.
</event>
<event>
 7    1  0.2928569E+004  0.1043930E+01  0.7957747E-01            NaN
         13   -1    0    0    0    0  0.00000000000E+00  0.00000000000E+00  0.74505805969E-08  0.10566000000E+00  0.10566000000E+00 0. -1.
     999900   -1    0    0    0    0 -0.00000000000E+00 -0.00000000000E+00 -0.74505805969E-08  0.93827000000E+00  0.93827000000E+00 0.  1.
     999903    2    1    2    0    0 -0.79213782671E-01  0.80594072935E-01 -0.44043455011E-01  0.12951740087E+00  0.45439005734E-01 0.  0.
         14    1    1    2    0    0  0.78145388510E-02 -0.18054859455E-01  0.21329696857E-01  0.29017252375E-01  0.00000000000E+00 0. -1.
     999901    1    1    2    0    0  0.71399243820E-01 -0.62539213480E-01  0.22713758154E-01  0.88539534675E+00  0.88000000000E+00 0. -1.
        -11    1    3    3    0    0 -0.83745028158E-02  0.19082776272E-01 -0.27084039694E-01  0.34177345929E-01  0.51100000000E-03 0. -1.
         11    1    3    3    0    0 -0.70839279856E-01  0.61511296664E-01 -0.16959415318E-01  0.95340054943E-01  0.51100000000E-03 0.  1.
</event>
<event>
 8    1  0.2928569E+004  0.1043930E+01  0.7957747E-01            NaN
         13   -1    0    0    0    0  0.00000000000E+00  0.00000000000E+00  0.74505805969E-08  0.10566000000E+00  0.10566000000E+00 0.  1.
     999900   -1    0    0    0    0 -0.00000000000E+00 -0.00000000000E+00 -0.74505805969E-08  0.93827000000E+00  0.93827000000E+00 0. -1.
     999902    2    1    2    0    0  0.21660735950E-02 -0.13595409480E-01  0.52015135339E-02  0.10292132484E+01  0.10291080254E+01 0.  0.
     999903    2    3    3    0    0  0.60250005455E-02 -0.13261181744E+00  0.23190234500E-01  0.14101091182E+00  0.41522229228E-01 0.  0.
         14    1    1    2    0    0 -0.21660735950E-02  0.13595409480E-01 -0.52015135339E-02  0.14716751570E-01  0.00000000000E+00 0. -1.
     999901    1    3    3    0    0 -0.38589269505E-02  0.11901640796E+00 -0.17988720966E-01  0.88820233661E+00  0.88000000000E+00 0.  1.
        -11    1    4    4    0    0 -0.95327905727E-02 -0.82884782627E-01  0.29564513402E-01  0.88516003417E-01  0.51100000000E-03 0. -1.
         11    1    4    4    0    0  0.15557791118E-01 -0.49727034810E-01 -0.63742789026E-02  0.52494908401E-01  0.51100000000E-03 0.  1.
</event>
<event>
 8    1  0.2928569E+004  0.1043930E+01  0.7957747E-01            NaN
         13   -1    0    0    0    0  0.00000000000E+00  0.00000000000E+00  0.74505805969E-08  0.10566000000E+00  0.10566000000E+00 0.  1.
     999900   -1    0    0    0    0 -0.00000000000E+00 -0.00000000000E+00 -0.74505805969E-08  0.93827000000E+00  0.93827000000E+00 0. -1.
     999902    2    1    2    0    0 -0.45191996497E-02 -0.37124237411E-02 -0.11227072921E-01  0.10312709154E+01  0.10311932159E+01 0.  0.
     999903    2    3    3    0    0  0.69861143405E-01  0.11251432769E+00  0.11080879554E-01  0.14023851540E+00  0.44766081090E-01 0.  0.
         14    1    1    2    0    0  0.45191996497E-02  0.37124237411E-02  0.11227072921E-01  0.12659084559E-01  0.00000000000E+00 0.  1.
     999901    1    3    3    0    0 -0.74380343055E-01 -0.11622675143E+00 -0.22307952475E-01  0.89103240004E+00  0.88000000000E+00 0.  1.
        -11    1    4    4    0    0  0.60326474566E-01  0.63140062365E-01 -0.49160537837E-02  0.87466449081E-01  0.51100000000E-03 0.  1.
         11    1    4    4    0    0  0.95346688393E-02  0.49374265325E-01  0.15996933338E-01  0.52772066318E-01  0.51100000000E-03 0. -1.
</event>
<event>
 8    1  0.2928569E+004  0.1043930E+01  0.7957747E-01            NaN
         13   -1    0    0    0    0  0.00000000000E+00  0.00000000000E+00  0.74505805969E-08  0.10566000000E+00  0.10566000000E+00 0. -1.
     999900   -1    0    0    0    0 -0.00000000000E+00 -0.00000000000E+00 -0.74505805969E-08  0.93827000000E+00  0.93827000000E+00 0.  1.
     999902    2    1    2    0    0  0.54483925597E-02 -0.63101407035E-02 -0.10930489939E-01  0.10301830561E+01  0.10300913312E+01 0.  0.
     999903    2    3    3    0    0  0.17209860496E-01 -0.73322901714E-02  0.13015755213E+00  0.13886649472E+00  0.44642728441E-01 0.  0.
         14    1    1    2    0    0 -0.54483925597E-02  0.63101407035E-02  0.10930489939E-01  0.13746943933E-01  0.00000000000E+00 0. -1.
     999901    1    3    3    0    0 -0.11761467937E-01  0.10221494679E-02 -0.14108804207E+00  0.89131656135E+00  0.88000000000E+00 0.  1.
        -11    1    4    4    0    0  0.16642771988E-01 -0.25364267887E-01  0.79968035330E-01  0.85530554426E-01  0.51100000000E-03 0.  1.
         11    1    4    4    0    0  0.56708850846E-03  0.18031977716E-01  0.50189516797E-01  0.53335940294E-01  0.51100000000E-03 0. -1.
</event>
<event>
 8    1  0.2928569E+004  0.1043930E+01  0.7957747E-01            NaN
         13   -1    0    0    0    0  0.00000000000E+00  0.00000000000E+00  0.74505805969E-08  0.10566000000E+00  0.10566000000E+00 0.  1.
     999900   -1    0    0    0    0 -0.00000000000E+00 -0.00000000000E+00 -0.74505805969E-08  0.93827000000E+00  0.93827000000E+00 0.  1.
     999902    2    1    2    0    0  0.22013960956E-02  0.36461700523E-02  0.26947378747E-02  0.10388899293E+01  0.10388777035E+01 0.  0.
     999903    2    3    3    0    0  0.14779259737E-01  0.70313267216E-01  0.12155061252E+00  0.14831178927E+00  0.45381200604E-01 0.  0.
         14    1    1    2    0    0 -0.22013960956E-02 -0.36461700523E-02 -0.26947378747E-02  0.50400707369E-02  0.00000000000E+00 0. -1.
     999901    1    3    3    0    0 -0.12577863641E-01 -0.66667097164E-01 -0.11885587464E+00  0.89057813999E+00  0.88000000000E+00 0.  1.
        -11    1    4    4    0    0 -0.96001020351E-02  0.40848647308E-01  0.38812769537E-01  0.57161754225E-01  0.51100000000E-03 0. -1.
         11    1    4    4    0    0  0.24379361772E-01  0.29464619908E-01  0.82737842979E-01  0.91150035044E-01  0.51100000000E-03 0.  1.
</event>
<event>
 8    1  0.2928569E+004  0.1043930E+01  0.7957747E-01            NaN
         13   -1    0    0    0    0  0.00000000000E+00  0.00000000000E+00  0.74505805969E-08  0.10566000000E+00  0.10566000000E+00 0. -1.
     999900   -1    0    0    0    0 -0.00000000000E+00 -0.00000000000E+00 -0.74505805969E-08  0.93827000000E+00  0.93827000000E+00 0. -1.
     999902    2    1    2    0    0  0.13582126054E-02  0.10636533906E-01 -0.49089908955E-02  0.10321368331E+01  0.10320694567E+01 0.  0.
     999903    2    3    3    0    0 -0.56790951550E-02  0.13189741798E+00 -0.33559603689E-01  0.14333168944E+00  0.44593107134E-01 0.  0.
         14    1    1    2    0    0 -0.13582126054E-02 -0.10636533906E-01  0.49089908955E-02  0.11793166947E-01  0.00000000000E+00 0. -1.
     999901    1    3    3    0    0  0.70373077604E-02 -0.12126088408E+00  0.28650612794E-01  0.88880514362E+00  0.88000000000E+00 0.  1.
        -11    1    4    4    0    0  0.13865589533E-01  0.83916071397E-01 -0.33784217166E-01  0.91519375339E-01  0.51100000000E-03 0.  1.
         11    1    4    4    0    0 -0.19544684688E-01  0.47981346587E-01  0.22461347654E-03  0.51812314097E-01  0.51100000000E-03 0. -1.
</event>
<event>
 8    1  0.2928569E+004  0.1043930E+01  0.7957747E-01            NaN
         13   -1    0    0    0    0  0.00000000000E+00  0.00000000000E+00  0.74505805969E-08  0.10566000000E+00  0.10566000000E+00 0.  1.
     999900   -1    0    0    0    0 -0.00000000000E+00 -0.00000000000E+00 -0.74505805969E-08  0.93827000000E+00  0.93827000000E+00 0.  1.
     999902    2    1    2    0    0  0.86441339082E-02  0.10557953964E-01 -0.29283748765E-02  0.10299741116E+01  0.10298795578E+01 0.  0.
     999903    2    3    3    0    0 -0.72540378661E-01 -0.90537235292E-01 -0.66154576863E-01  0.13822935267E+00  0.35662703064E-01 0.  0.
         14    1    1    2    0    0 -0.86441339082E-02 -0.10557953964E-01  0.29283748765E-02  0.13955888447E-01  0.00000000000E+00 0.  1.
     999901    1    3    3    0    0  0.81184512569E-01  0.10109518926E+00  0.63226201987E-01  0.89174475888E+00  0.88000000000E+00 0.  1.
        -11    1    4    4    0    0 -0.25771646605E-01 -0.44207435294E-01 -0.47458183074E-01  0.69792659827E-01  0.51100000000E-03 0. -1.
         11    1    4    4    0    0 -0.46768732056E-01 -0.46329799999E-01 -0.18696393789E-01  0.68436692847E-01  0.51100000000E-03 0.  1.
</event>
<event>
 8    1  0.2928569E+004  0.1043930E+01  0.7957747E-01            NaN
         13   -1    0    0    0    0  0.00000000000E+00  0.00000000000E+00  0.74505805969E-08  0.10566000000E+00  0.10566000000E+00 0.  1.
     999900   -1    0    0    0    0 -0.00000000000E+00 -0.00000000000E+00 -0.74505805969E-08  0.93827000000E+00  0.93827000000E+00 0.  1.
     999902    2    1    2    0    0 -0.13341199350E-01  0.12845338645E-02 -0.31772937160E-02  0.10301556462E+01  0.10300635527E+01 0.  0.
     999903    2    3    3    0    0  0.69395782490E-02  0.12856806394E+00 -0.33034888977E-01  0.14026583113E+00  0.44780516756E-01 0.  0.
         14    1    1    2    0    0  0.13341199350E-01 -0.12845338645E-02  0.31772937160E-02  0.13774353804E-01  0.00000000000E+00 0.  1.
     999901    1    3    3    0    0 -0.20280777599E-01 -0.12728353007E+00  0.29857595261E-01  0.88988981507E+00  0.88000000000E+00 0. -1.
        -11    1    4    4    0    0  0.21124891263E-01  0.71840461025E-01 -0.40325224699E-02  0.74992234462E-01  0.51100000000E-03 0.  1.
         11    1    4    4    0    0 -0.14185313014E-01  0.56727602914E-01 -0.29002366507E-01  0.65273596666E-01  0.51100000000E-03 0. -1.
</event>
<event>
 8    1  0.2928569E+004  0.1043930E+01  0.7957747E-01            NaN
         13   -1    0    0    0    0  0.00000000000E+00  0.00000000000E+00  0.74505805969E-08  0.10566000000E+00  0.10566000000E+00 0. -1.
     999900   -1    0    0    0    0 -0.00000000000E+00 -0.00000000000E+00 -0.74505805969E-08  0.93827000000E+00  0.93827000000E+00 0. -1.
     999902    2    1    2    0    0  0.14546601297E-01  0.14679874072E-02  0.24211133472E-02  0.10291104053E+01  0.10290036958E+01 0.  0.
     999903    2    3    3    0    0  0.37141494820E-01  0.11868527726E+00 -0.45094016352E-01  0.13978025865E+00  0.45159325950E-01 0.  0.
         14    1    1    2    0    0 -0.14546601297E-01 -0.14679874072E-02 -0.24211133472E-02  0.14819594669E-01  0.00000000000E+00 0. -1.
     999901    1    3    3    0    0 -0.22594893523E-01 -0.11721728985E+00  0.47515129699E-01  0.88933014669E+00  0.88000000000E+00 0.  1.
        -11    1    4    4    0    0  0.20289286423E-01  0.80203504746E-01 -0.69303360523E-02  0.83021370718E-01  0.51100000000E-03 0.  1.
         11    1    4    4    0    0  0.16852208396E-01  0.38481772515E-01 -0.38163680299E-01  0.56758887927E-01  0.51100000000E-03 0. -1.
</event>
<event>
 8    1  0.2928569E+004  0.1043930E+01  0.7957747E-01            NaN
         13   -1    0    0    0    0  0.00000000000E+00  0.00000000000E+00  0.74505805969E-08  0.10566000000E+00  0.10566000000E+00 0.  1.
     999900   -1    0    0    0    0 -0.00000000000E+00 -0.00000000000E+00 -0.74505805969E-08  0.93827000000E+00  0.93827000000E+00 0.  1.
     999902    2    1    2    0    0 -0.10023989289E-01 -0.69370981134E-02  0.82078450055E-02  0.10292340002E+01  0.10291290758E+01 0.  0.
     999903    2    3    3    0    0 -0.14117985535E-01  0.13008980392E+00  0.30305047460E-02  0.13860504401E+00  0.45601531427E-01 0.  0.
         14    1    1    2    0    0  0.10023989289E-01  0.69370981134E-02 -0.82078450055E-02  0.14695999834E-01  0.00000000000E+00 0. -1.
     999901    1    3    3    0    0  0.40939962464E-02 -0.13702690203E+00  0.51773402594E-02  0.89062895615E+00  0.88000000000E+00 0. -1.
        -11    1    4    4    0    0 -0.57227633471E-02  0.72151435373E-01 -0.20931218144E-01  0.75345581560E-01  0.51100000000E-03 0. -1.
         11    1    4    4    0    0 -0.83952221882E-02  0.57938368543E-01  0.23961722890E-01  0.63259462453E-01  0.51100000000E-03 0.  1.
</event>
<event>
 8    1  0.2928569E+004  0.1043930E+01  0.7957747E-01            NaN
         13   -1    0    0    0    0  0.00000000000E+00  0.00000000000E+00  0.74505805969E-08  0.10566000000E+00  0.10566000000E+00 0. -1.
     999900   -1    0    0    0    0 -0.00000000000E+00 -0.00000000000E+00 -0.74505805969E-08  0.93827000000E+00  0.93827000000E+00 0. -1.
     999902    2    1    2    0    0  0.67541361304E-02  0.47376860898E-02 -0.11398936065E-01  0.10298587610E+01  0.10297626269E+01 0.  0.
     999903    2    3    3    0    0 -0.84507235503E-02  0.74600636295E-01 -0.11094357089E+00  0.14136500529E+00  0.45154392181E-01 0.  0.
         14    1    1    2    0    0 -0.67541361304E-02 -0.47376860898E-02  0.11398936065E-01  0.14071239027E-01  0.00000000000E+00 0.  1.
     999901    1    3    3    0    0  0.15204859681E-01 -0.69862950205E-01  0.99544634828E-01  0.88849375569E+00  0.88000000000E+00 0.  1.
        -11    1    4    4    0    0  0.18689732403E-01  0.29098088922E-01 -0.45888968442E-01  0.57463583441E-01  0.51100000000E-03 0.  1.
         11    1    4    4    0    0 -0.27140455953E-01  0.45502547373E-01 -0.65054602451E-01  0.83901421846E-01  0.51100000000E-03 0. -1.
</event>
<event>
 8    1  0.2928569E+004  0.1043930E+01  0.7957747E-01            NaN
         13   -1    0    0    0    0  0.00000000000E+00  0.00000000000E+00  0.74505805969E-08  0.10566000000E+00  0.10566000000E+00 0. -1.
     999900   -1    0    0    0    0 -0.00000000000E+00 -0.00000000000E+00 -0.74505805969E-08  0.93827000000E+00  0.93827000000E+00 0. -1.
     999902    2    1    2    0    0  0.16521176288E-01  0.58628002360E-02  0.38805235964E-02  0.10259750520E+01  0.10258179309E+01 0.  0.
     999903    2    3    3    0    0  0.95500253029E-01  0.89957281003E-01 -0.54670170009E-02  0.13839578642E+00  0.43713781465E-01 0.  0.
         14    1    1    2    0    0 -0.16521176288E-01 -0.58628002360E-02 -0.38805235964E-02  0.17954947951E-01  0.00000000000E+00 0. -1.
     999901    1    3    3    0    0 -0.78979076741E-01 -0.84094480767E-01  0.93475405973E-02  0.88757926563E+00  0.88000000000E+00 0. -1.
        -11    1    4    4    0    0  0.91436833508E-01  0.70830204315E-01  0.58258118596E-02  0.11580938464E+00  0.51100000000E-03 0. -1.
         11    1    4    4    0    0  0.40634195211E-02  0.19127076688E-01 -0.11292828860E-01  0.22586401783E-01  0.51100000000E-03 0.  1.
</event>
<event>
 7    1  0.2928569E+004  0.1043930E+01  0.7957747E-01            NaN
         13   -1    0    0    0    0  0.00000000000E+00  0.00000000000E+00  0.74505805969E-08  0.10566000000E+00  0.10566000000E+00 0. -1.
     999900   -1    0    0    0    0 -0.00000000000E+00 -0.00000000000E+00 -0.74505805969E-08  0.93827000000E+00  0.93827000000E+00 0. -1.
     999903    2    1    2    0    0  0.44096749041E-03 -0.75403466659E-02 -0.26008659989E-01  0.53614145944E-01  0.46270670740E-01 0.  0.
         14    1    1    2    0    0  0.43226510886E-01 -0.28687295449E-01 -0.86982575773E-01  0.10127912249E+00  0.00000000000E+00 0.  1.
     999901    1    1    2    0    0 -0.43667478376E-01  0.36227642115E-01  0.11299123576E+00  0.88903673157E+00  0.88000000000E+00 0.  1.
        -11    1    3    3    0    0  0.20983862774E-01  0.64328262279E-02 -0.10645427398E-01  0.24398565443E-01  0.51100000000E-03 0.  1.
         11    1    3    3    0    0 -0.20542895284E-01 -0.13973172894E-01 -0.15363232591E-01  0.29215580501E-01  0.51100000000E-03 0. -1.
</event>
<event>
 8    1  0.2928569E+004  0.1043930E+01  0.7957747E-01            NaN
         13   -1    0    0    0    0  0.00000000000E+00  0.00000000000E+00  0.74505805969E-08  0.10566000000E+00  0.10566000000E+00 0.  1.
     999900   -1    0    0    0    0 -0.00000000000E+00 -0.00000000000E+00 -0.74505805969E-08  0.93827000000E+00  0.93827000000E+00 0.  1.
     999902    2    1    2    0    0 -0.65986569318E-02  0.69923791091E-02 -0.10492170091E-01  0.10296990031E+01  0.10296006584E+01 0.  0.
     999903    2    3    3    0    0 -0.12731211616E+00 -0.56991865717E-02  0.36648205317E-01  0.14011762401E+00  0.45265902781E-01 0.  0.
         14    1    1    2    0    0  0.65986569318E-02 -0.69923791091E-02  0.10492170091E-01  0.14230996877E-01  0.00000000000E+00 0.  1.
     999901    1    3    3    0    0  0.12071345923E+00  0.12691565681E-01 -0.47140375408E-01  0.88958137912E+00  0.88000000000E+00 0.  1.
        -11    1    4    4    0    0 -0.10891032658E+00  0.51636378123E-02  0.15644959427E-01  0.11015057089E+00  0.51100000000E-03 0. -1.
         11    1    4    4    0    0 -0.18401789584E-01 -0.10862824384E-01  0.21003245891E-01  0.29967053116E-01  0.51100000000E-03 0.  1.
</event>
<event>
 8    1  0.2928569E+004  0.1043930E+01  0.7957747E-01            NaN
         13   -1    0    0    0    0  0.00000000000E+00  0.00000000000E+00  0.74505805969E-08  0.10566000000E+00  0.10566000000E+00 0.  1.
     999900   -1    0    0    0    0 -0.00000000000E+00 -0.00000000000E+00 -0.74505805969E-08  0.93827000000E+00  0.93827000000E+00 0. -1.
     999902    2    1    2    0    0 -0.12631586157E-01  0.50912048842E-02  0.16280011414E-02  0.10302140340E+01  0.10301227248E+01 0.  0.
     999903    2    3    3    0    0 -0.50052642355E-01 -0.12223079962E+00 -0.13821627783E-01  0.14012981364E+00  0.44717914686E-01 0.  0.
         14    1    1    2    0    0  0.12631586157E-01 -0.50912048842E-02 -0.16280011414E-02  0.13715966015E-01  0.00000000000E+00 0.  1.
     999901    1    3    3    0    0  0.37421056199E-01  0.12732200450E+00  0.15449628924E-01  0.89008422035E+00  0.88000000000E+00 0. -1.
        -11    1    4    4    0    0 -0.31738497897E-01 -0.35438093817E-01 -0.19102226186E-01  0.51267405907E-01  0.51100000000E-03 0.  1.
         11    1    4    4    0    0 -0.18314144458E-01 -0.86792705800E-01  0.52805984030E-02  0.88862407731E-01  0.51100000000E-03 0. -1.
</event>
<event>
 8    1  0.2928569E+004  0.1043930E+01  0.7957747E-01            NaN
         13   -1    0    0    0    0  0.00000000000E+00  0.00000000000E+00  0.74505805969E-08  0.10566000000E+00  0.10566000000E+00 0.  1.
     999900   -1    0    0    0    0 -0.00000000000E+00 -0.00000000000E+00 -0.74505805969E-08  0.93827000000E+00  0.93827000000E+00 0.  1.
     999902    2    1    2    0    0 -0.74700581694E-03  0.87683305453E-02 -0.11103839595E-01  0.10297618353E+01  0.10296643630E+01 0.  0.
     999903    2    3    3    0    0 -0.11176502300E+00 -0.48614189161E-01 -0.52156743148E-01  0.13998484377E+00  0.44951872864E-01 0.  0.
         14    1    1    2    0    0  0.74700581694E-03 -0.87683305453E-02  0.11103839595E-01  0.14168164736E-01  0.00000000000E+00 0.  1.
     999901    1    3    3    0    0  0.11101801719E+00  0.57382519706E-01  0.41052903554E-01  0.88977699150E+00  0.88000000000E+00 0.  1.
        -11    1    4    4    0    0 -0.86933380121E-01 -0.31278085789E-01 -0.58069848251E-01  0.10912423941E+00  0.51100000000E-03 0.  1.
         11    1    4    4    0    0 -0.24831642882E-01 -0.17336103372E-01  0.59131051024E-02  0.30860604357E-01  0.51100000000E-03 0. -1.
</event>
<event>
 8    1  0.2928569E+004  0.1043930E+01  0.7957747E-01            NaN
         13   -1    0    0    0    0  0.00000000000E+00  0.00000000000E+00  0.74505805969E-08  0.10566000000E+00  0.10566000000E+00 0.  1.
     999900   -1    0    0    0    0 -0.00000000000E+00 -0.00000000000E+00 -0.74505805969E-08  0.93827000000E+00  0.93827000000E+00 0.  1.
     999902    2    1    2    0    0  0.14196617646E-01  0.75981612316E-02 -0.58784863740E-02  0.10267884537E+01  0.10266453604E+01 0.  0.
     999903    2    3    3    0    0 -0.35397441008E-01 -0.69778700524E-01  0.10131872363E+00  0.13553204212E+00  0.44512973477E-01 0.  0.
         14    1    1    2    0    0 -0.14196617646E-01 -0.75981612316E-02  0.58784863740E-02  0.17141546276E-01  0.00000000000E+00 0.  1.
     999901    1    3    3    0    0  0.49594058654E-01  0.77376861755E-01 -0.10719721000E+00  0.89125641160E+00  0.88000000000E+00 0.  1.
        -11    1    4    4    0    0 -0.23443787923E-01 -0.11806225963E-01  0.13221656390E-01  0.29395092828E-01  0.51100000000E-03 0. -1.
         11    1    4    4    0    0 -0.11953653085E-01 -0.57972474561E-01  0.88097067237E-01  0.10613694929E+00  0.51100000000E-03 0.  1.
</event>
<event>
 8    1  0.2928569E+004  0.1043930E+01  0.7957747E-01            NaN
         13   -1    0    0    0    0  0.00000000000E+00  0.00000000000E+00  0.74505805969E-08  0.10566000000E+00  0.10566000000E+00 0.  1.
     999900   -1    0    0    0    0 -0.00000000000E+00 -0.00000000000E+00 -0.74505805969E-08  0.93827000000E+00  0.93827000000E+00 0. -1.
     999902    2    1    2    0    0 -0.14321918013E-01 -0.18356823386E-02 -0.25244689099E-02  0.10292718961E+01  0.10291675161E+01 0.  0.
     999903    2    3    3    0    0 -0.80382661616E-01  0.87518884623E-01  0.59246449095E-01  0.14013528865E+00  0.44797655527E-01 0.  0.
         14    1    1    2    0    0  0.14321918013E-01  0.18356823386E-02  0.25244689099E-02  0.14658103850E-01  0.00000000000E+00 0.  1.
     999901    1    3    3    0    0  0.66060743604E-01 -0.89354566962E-01 -0.61770918005E-01  0.88913660750E+00  0.88000000000E+00 0.  1.
        -11    1    4    4    0    0 -0.57365260869E-01  0.36859685355E-01  0.47936384168E-01  0.83352070203E-01  0.51100000000E-03 0.  1.
         11    1    4    4    0    0 -0.23017400747E-01  0.50659199268E-01  0.11310064927E-01  0.56783218448E-01  0.51100000000E-03 0. -1.
</event>
<event>
 8    1  0.2928569E+004  0.1043930E+01  0.7957747E-01            NaN
         13   -1    0    0    0    0  0.00000000000E+00  0.00000000000E+00  0.74505805969E-08  0.10566000000E+00  0.10566000000E+00 0.  1.
     999900   -1    0    0    0    0 -0.00000000000E+00 -0.00000000000E+00 -0.74505805969E-08  0.93827000000E+00  0.93827000000E+00 0. -1.
     999902    2    1    2    0    0  0.59309715108E-02 -0.27472710441E-02  0.11867527721E-01  0.10303814895E+01  0.10302924109E+01 0.  0.
     999903    2    3    3    0    0  0.13462704865E-01 -0.11855404724E+00 -0.53464707449E-01  0.14036113171E+00  0.51053558282E-01 0.  0.
         14    1    1    2    0    0 -0.59309715108E-02  0.27472710441E-02 -0.11867527721E-01  0.13548510451E-01  0.00000000000E+00 0. -1.
     999901    1    3    3    0    0 -0.75317333546E-02  0.11580677619E+00  0.65332235170E-01  0.89002035784E+00  0.88000000000E+00 0.  1.
        -11    1    4    4    0    0 -0.96060360951E-02 -0.78470065128E-01 -0.50926816324E-01  0.94040569929E-01  0.51100000000E-03 0.  1.
         11    1    4    4    0    0  0.23068740960E-01 -0.40083982108E-01 -0.25378911251E-02  0.46320561778E-01  0.51100000000E-03 0. -1.
</event>
<event>
 8    1  0.2928569E+004  0.1043930E+01  0.7957747E-01            NaN
         13   -1    0    0    0    0  0.00000000000E+00  0.00000000000E+00  0.74505805969E-08  0.10566000000E+00  0.10566000000E+00 0.  1.
     999900   -1    0    0    0    0 -0.00000000000E+00 -0.00000000000E+00 -0.74505805969E-08  0.93827000000E+00  0.93827000000E+00 0. -1.
     999902    2    1    2    0    0  0.53036286937E-02 -0.14039667235E-01 -0.39487257178E-02  0.10284111995E+01  0.10282941029E+01 0.  0.
     999903    2    3    3    0    0  0.11027848404E+00 -0.50973303461E-01 -0.51839988894E-01  0.14011091987E+00  0.46733967430E-01 0.  0.
         14    1    1    2    0    0 -0.53036286937E-02  0.14039667235E-01  0.39487257178E-02  0.15518800475E-01  0.00000000000E+00 0. -1.
     999901    1    3    3    0    0 -0.10497485534E+00  0.36933636226E-01  0.47891263176E-01  0.88830027965E+00  0.88000000000E+00 0.  1.
        -11    1    4    4    0    0  0.88440994427E-01 -0.19981758120E-01 -0.46247178660E-01  0.10178478672E+00  0.51100000000E-03 0. -1.
         11    1    4    4    0    0  0.21837489611E-01 -0.30991545341E-01 -0.55928102341E-02  0.38326133153E-01  0.51100000000E-03 0.  1.
</event>
<event>
 8    1  0.2928569E+004  0.1043930E+01  0.7957747E-01            NaN
         13   -1    0    0    0    0  0.00000000000E+00  0.00000000000E+00  0.74505805969E-08  0.10566000000E+00  0.10566000000E+00 0. -1.
     999900   -1    0    0    0    0 -0.00000000000E+00 -0.00000000000E+00 -0.74505805969E-08  0.93827000000E+00  0.93827000000E+00 0.  1.
     999902    2    1    2    0    0 -0.13527519445E-03  0.44284505439E-02  0.16453986026E-01  0.10268899551E+01  0.10267485655E+01 0.  0.
     999903    2    3    3    0    0 -0.59141571242E-01 -0.11271575490E+00  0.29246920179E-01  0.13707639767E+00  0.41617179219E-01 0.  0.
         14    1    1    2    0    0  0.13527519445E-03 -0.44284505439E-02 -0.16453986026E-01  0.17040044887E-01  0.00000000000E+00 0.  1.
     999901    1    3    3    0    0  0.59006296047E-01  0.11714420545E+00 -0.12792934153E-01  0.88981355744E+00  0.88000000000E+00 0.  1.
        -11    1    4    4    0    0 -0.27929103876E-01 -0.53080662913E-01  0.35123300378E-01  0.69508984808E-01  0.51100000000E-03 0.  1.
         11    1    4    4    0    0 -0.31212467366E-01 -0.59635091990E-01 -0.58763801987E-02  0.67567412863E-01  0.51100000000E-03 0. -1.
</event>
<event>
 8    1  0.2928569E+004  0.1043930E+01  0.7957747E-01            NaN
         13   -1    0    0    0    0  0.00000000000E+00  0.00000000000E+00  0.74505805969E-08  0.10566000000E+00  0.10566000000E+00 0. -1.
     999900   -1    0    0    0    0 -0.00000000000E+00 -0.00000000000E+00 -0.74505805969E-08  0.93827000000E+00  0.93827000000E+00 0. -1.
     999902    2    1    2    0    0 -0.13620442087E-01 -0.27239346240E-02 -0.23250657031E-04  0.10300398307E+01  0.10299461714E+01 0.  0.
     999903    2    3    3    0    0  0.70466331855E-02 -0.83545584230E-01 -0.10333851626E+00  0.14007729714E+00  0.43741062471E-01 0.  0.
         14    1    1    2    0    0  0.13620442087E-01  0.27239346240E-02  0.23250657031E-04  0.13890169296E-01  0.00000000000E+00 0.  1.
     999901    1    3    3    0    0 -0.20667075273E-01  0.80821649606E-01  0.10331526561E+00  0.88996253357E+00  0.88000000000E+00 0.  1.
        -11    1    4    4    0    0 -0.18339500858E-01 -0.27796395752E-01 -0.35965278269E-01  0.49017744445E-01  0.51100000000E-03 0. -1.
         11    1    4    4    0    0  0.25386134043E-01 -0.55749188477E-01 -0.67373237994E-01  0.91059552692E-01  0.51100000000E-03 0.  1.
</event>
<event>
 8    1  0.2928569E+004  0.1043930E+01  0.7957747E-01            NaN
         13   -1    0    0    0    0  0.00000000000E+00  0.00000000000E+00  0.74505805969E-08  0.10566000000E+00  0.10566000000E+00 0.  1.
     999900   -1    0    0    0    0 -0.00000000000E+00 -0.00000000000E+00 -0.74505805969E-08  0.93827000000E+00  0.93827000000E+00 0. -1.
     999902    2    1    2    0    0  0.13937339884E-01  0.35663887499E-02  0.84840191179E-04  0.10295433475E+01  0.10294428244E+01 0.  0.
     999903    2    3    3    0    0  0.19111289776E-01 -0.13110784996E+00 -0.25201288966E-01  0.13892372689E+00  0.33319471909E-01 0.  0.
         14    1    1    2    0    0 -0.13937339884E-01 -0.35663887499E-02 -0.84840191179E-04  0.14386652481E-01  0.00000000000E+00 0. -1.
     999901    1    3    3    0    0 -0.51739498925E-02  0.13467423871E+00  0.25286129157E-01  0.89061962063E+00  0.88000000000E+00 0.  1.
        -11    1    4    4    0    0  0.26942124372E-01 -0.10653794656E+00 -0.26691347572E-01  0.11308802447E+00  0.51100000000E-03 0.  1.
         11    1    4    4    0    0 -0.78308345954E-02 -0.24569903402E-01  0.14900586063E-02  0.25835702416E-01  0.51100000000E-03 0. -1.
</event>
<event>
 8    1  0.2928569E+004  0.1043930E+01  0.7957747E-01            NaN
         13   -1    0    0    0    0  0.00000000000E+00  0.00000000000E+00  0.74505805969E-08  0.10566000000E+00  0.10566000000E+00 0. -1.
     999900   -1    0    0    0    0 -0.00000000000E+00 -0.00000000000E+00 -0.74505805969E-08  0.93827000000E+00  0.93827000000E+00 0. -1.
     999902    2    1    2    0    0  0.90898086039E-02  0.36570892049E-02 -0.11533175213E-01  0.10287968228E+01  0.10286855154E+01 0.  0.
     999903    2    3    3    0    0 -0.82471597624E-01  0.56092649495E-01  0.83092493279E-01  0.13745682244E+00  0.45189222760E-01 0.  0.
         14    1    1    2    0    0 -0.90898086039E-02 -0.36570892049E-02  0.11533175213E-01  0.15133177208E-01  0.00000000000E+00 0. -1.
     999901    1    3    3    0    0  0.91561406228E-01 -0.52435560290E-01 -0.94625668492E-01  0.89134000035E+00  0.88000000000E+00 0. -1.
        -11    1    4    4    0    0 -0.46641417957E-01  0.15598539106E-01  0.62649436044E-01  0.79648912415E-01  0.51100000000E-03 0. -1.
         11    1    4    4    0    0 -0.35830179667E-01  0.40494110389E-01  0.20443057234E-01  0.57807910023E-01  0.51100000000E-03 0.  1.
</event>
<event>
 8    1  0.2928569E+004  0.1043930E+01  0.7957747E-01            NaN
         13   -1    0    0    0    0  0.00000000000E+00  0.00000000000E+00  0.74505805969E-08  0.10566000000E+00  0.10566000000E+00 0. -1.
     999900   -1    0    0    0    0 -0.00000000000E+00 -0.00000000000E+00 -0.74505805969E-08  0.93827000000E+00  0.93827000000E+00 0.  1.
     999902    2    1    2    0    0  0.71531238901E-02 -0.70304280213E-02  0.92254736636E-02  0.10303026942E+01  0.10302125694E+01 0.  0.
     999903    2    3    3    0    0  0.61152138699E-01  0.49461807122E-01  0.10847817943E+00  0.14128167878E+00  0.44798916429E-01 0.  0.
         14    1    1    2    0    0 -0.71531238901E-02  0.70304280213E-02 -0.92254736636E-02  0.13627305818E-01  0.00000000000E+00 0.  1.
     999901    1    3    3    0    0 -0.53999014809E-01 -0.56492235144E-01 -0.99252705769E-01  0.88902101541E+00  0.88000000000E+00 0.  1.
        -11    1    4    4    0    0  0.55446499388E-01  0.24458964156E-01  0.54441259179E-01  0.81465741535E-01  0.51100000000E-03 0. -1.
         11    1    4    4    0    0  0.57056393114E-02  0.25002842967E-01  0.54036920254E-01  0.59815937240E-01  0.51100000000E-03 0.  1.
</event>
<event>
 8    1  0.2928569E+004  0.1043930E+01  0.7957747E-01            NaN
         13   -1    0    0    0    0  0.00000000000E+00  0.00000000000E+00  0.74505805969E-08  0.10566000000E+00  0.10566000000E+00 0. -1.
     999900   -1    0    0    0    0 -0.00000000000E+00 -0.00000000000E+00 -0.74505805969E-08  0.93827000000E+00  0.93827000000E+00 0. -1.
     999902    2    1    2    0    0  0.12385573706E-01 -0.44785839388E-02 -0.48483233568E-02  0.10298955285E+01  0.10297998996E+01 0.  0.
     999903    2    3    3    0    0 -0.12346222857E+00  0.37273073909E-01  0.21304199669E-01  0.13810980271E+00  0.44589738248E-01 0.  0.
         14    1    1    2    0    0 -0.12385573706E-01  0.44785839388E-02  0.48483233568E-02  0.14034471472E-01  0.00000000000E+00 0. -1.
     999901    1    3    3    0    0  0.13584780228E+00 -0.41751657847E-01 -0.26152523025E-01  0.89178572582E+00  0.88000000000E+00 0. -1.
        -11    1    4    4    0    0 -0.98244803778E-01  0.42664319600E-01  0.29409034444E-01  0.11107402065E+00  0.51100000000E-03 0. -1.
         11    1    4    4    0    0 -0.25217424797E-01 -0.53912456913E-02 -0.81048347754E-02  0.27035782053E-01  0.51100000000E-03 0.  1.
</event>
<event>
 8    1  0.2928569E+004  0.1043930E+01  0.7957747E-01            NaN
         13   -1    0    0    0    0  0.00000000000E+00  0.00000000000E+00  0.74505805969E-08  0.10566000000E+00  0.10566000000E+00 0. -1.
     999900   -1    0    0    0    0 -0.00000000000E+00 -0.00000000000E+00 -0.74505805969E-08  0.93827000000E+00  0.93827000000E+00 0.  1.
     999902    2    1    2    0    0 -0.49940169030E-02  0.77624890419E-02  0.10868089337E-01  0.10296712551E+01  0.10295725238E+01 0.  0.
     999903    2    3    3    0    0 -0.11808478521E+00 -0.58550986206E-01  0.12819362076E-01  0.13995736492E+00  0.45293415271E-01 0.  0.
         14    1    1    2    0    0  0.49940169030E-02 -0.77624890419E-02 -0.10868089337E-01  0.14258744924E-01  0.00000000000E+00 0.  1.
     999901    1    3    3    0    0  0.11309076831E+00  0.66313475248E-01 -0.19512727390E-02  0.88971389016E+00  0.88000000000E+00 0. -1.
        -11    1    4    4    0    0 -0.60107961995E-01 -0.51099638527E-01  0.19073791959E-01  0.81167794189E-01  0.51100000000E-03 0. -1.
         11    1    4    4    0    0 -0.57976823215E-01 -0.74513476793E-02 -0.62544298830E-02  0.58789570729E-01  0.51100000000E-03 0.  1.
</event>
<event>
 8    1  0.2928569E+004  0.1043930E+01  0.7957747E-01            NaN
         13   -1    0    0    0    0  0.00000000000E+00  0.00000000000E+00  0.74505805969E-08  0.10566000000E+00  0.10566000000E+00 0. -1.
     999900   -1    0    0    0    0 -0.00000000000E+00 -0.00000000000E+00 -0.74505805969E-08  0.93827000000E+00  0.93827000000E+00 0. -1.
     999902    2    1    2    0    0  0.84014696934E-02 -0.73807666605E-02  0.62306708911E-02  0.10311283724E+01  0.10310489022E+01 0.  0.
     999903    2    3    3    0    0  0.53562075752E-02 -0.10124506466E+00  0.85262702564E-01  0.14260946878E+00  0.52806060823E-01 0.  0.
         14    1    1    2    0    0 -0.84014696934E-02  0.73807666605E-02 -0.62306708911E-02  0.12801627602E-01  0.00000000000E+00 0.  1.
     999901    1    3    3    0    0  0.30452621182E-02  0.93864297996E-01 -0.79032031673E-01  0.88851890362E+00  0.88000000000E+00 0. -1.
        -11    1    4    4    0    0  0.12833831618E-01 -0.27730770504E-01  0.54669332670E-01  0.62631461122E-01  0.51100000000E-03 0. -1.
         11    1    4    4    0    0 -0.74776240432E-02 -0.73514294153E-01  0.30593369895E-01  0.79978007656E-01  0.51100000000E-03 0.  1.
</event>
<event>
 8    1  0.2928569E+004  0.1043930E+01  0.7957747E-01            NaN
         13   -1    0    0    0    0  0.00000000000E+00  0.00000000000E+00  0.74505805969E-08  0.10566000000E+00  0.10566000000E+00 0.  1.
     999900   -1    0    0    0    0 -0.00000000000E+00 -0.00000000000E+00 -0.74505805969E-08  0.93827000000E+00  0.93827000000E+00 0.  1.
     999902    2    1    2    0    0  0.12592268856E-01 -0.13277810269E-01 -0.83260725009E-02  0.10238255487E+01  0.10236281381E+01 0.  0.
     999903    2    3    3    0    0  0.11924178131E+00 -0.41171826100E-02  0.46472351610E-01  0.13564713027E+00  0.44776231236E-01 0.  0.
         14    1    1    2    0    0 -0.12592268856E-01  0.13277810269E-01  0.83260725009E-02  0.20104451342E-01  0.00000000000E+00 0.  1.
     999901    1    3    3    0    0 -0.10664951245E+00 -0.91606276585E-02 -0.54798424111E-01  0.88817841839E+00  0.88000000000E+00 0.  1.
        -11    1    4    4    0    0  0.41385888205E-01 -0.18500569559E-01  0.32731012263E-02  0.45453681140E-01  0.51100000000E-03 0. -1.
         11    1    4    4    0    0  0.77855893104E-01  0.14383386949E-01  0.43199250384E-01  0.90193449130E-01  0.51100000000E-03 0.  1.
</event>
<event>
 8    1  0.2928569E+004  0.1043930E+01  0.7957747E-01            NaN
         13   -1    0    0    0    0  0.00000000000E+00  0.00000000000E+00  0.74505805969E-08  0.10566000000E+00  0.10566000000E+00 0.  1.
     999900   -1    0    0    0    0 -0.00000000000E+00 -0.00000000000E+00 -0.74505805969E-08  0.93827000000E+00  0.93827000000E+00 0. -1.
     999902    2    1    2    0    0  0.11907712035E-01 -0.24343420678E-01 -0.75259007493E-03  0.10168198150E+01  0.10164583485E+01 0.  0.
     999903    2    3    3    0    0 -0.35706760791E-01  0.12407389511E-01  0.11223380094E+00  0.12755962555E+00  0.47393205381E-01 0.  0.
         14    1    1    2    0    0 -0.11907712035E-01  0.24343420678E-01  0.75259007493E-03  0.27110184950E-01  0.00000000000E+00 0.  1.
     999901    1    3    3    0    0  0.47614472826E-01 -0.36750810189E-01 -0.11298639102E+00  0.88926018950E+00  0.88000000000E+00 0. -1.
        -11    1    4    4    0    0 -0.15098737792E-01  0.22732044446E-01  0.23941121277E-01  0.36306420047E-01  0.51100000000E-03 0. -1.
         11    1    4    4    0    0 -0.20608022999E-01 -0.10324654935E-01  0.88292679665E-01  0.91253205504E-01  0.51100000000E-03 0.  1.
</event>
<event>
 7    1  0.2928569E+004  0.1043930E+01  0.7957747E-01            NaN
         13   -1    0    0    0    0  0.00000000000E+00  0.00000000000E+00  0.74505805969E-08  0.10566000000E+00  0.10566000000E+00 0.  1.
     999900   -1    0    0    0    0 -0.00000000000E+00 -0.00000000000E+00 -0.74505805969E-08  0.93827000000E+00  0.93827000000E+00 0.  1.
     999902    2    1    2    0    0  0.14350280285E-02  0.11366747003E-01 -0.77788626316E-02  0.10300817890E+01  0.10299886986E+01 0.  0.
         14    1    1    2    0    0 -0.14350280285E-02 -0.11366747003E-01  0.77788626316E-02  0.13848210957E-01  0.00000000000E+00 0. -1.
     999901    1    3    3    0    0 -0.31073546105E-02 -0.88154633482E-01 -0.75374514880E-01  0.88761602766E+00  0.88000000000E+00 0.  1.
        -11    1    3    3    0    0 -0.10162467918E-01  0.40383090932E-01 -0.10940818328E-01  0.43058476681E-01  0.51100000000E-03 0. -1.
         11    1    3    3    0    0  0.14704850557E-01  0.59138289553E-01  0.78536470576E-01  0.99407284707E-01  0.51100000000E-03 0.  1.
</event>
<event>
 8    1  0.2928569E+004  0.1043930E+01  0.7957747E-01            NaN
         13   -1    0    0    0    0  0.00000000000E+00  0.00000000000E+00  0.74505805969E-08  0.10566000000E+00  0.10566000000E+00 0.  1.
     999900   -1    0    0    0    0 -0.00000000000E+00 -0.00000000000E+00 -0.74505805969E-08  0.93827000000E+00  0.93827000000E+00 0. -1.
     999902    2    1    2    0    0  0.13034170597E-02 -0.16616345225E-02  0.13505433334E-01  0.10302604479E+01  0.10301697597E+01 0.  0.
     999903    2    3    3    0    0  0.15744550669E-01 -0.12377193730E+00 -0.40132927151E-01  0.14009386455E+00  0.49479851498E-01 0.  0.
         14    1    1    2    0    0 -0.13034170597E-02  0.16616345225E-02 -0.13505433334E-01  0.13669552109E-01  0.00000000000E+00 0. -1.
     999901    1    3    3    0    0 -0.14441133610E-01  0.12211030278E+00  0.53638360485E-01  0.89016658334E+00  0.88000000000E+00 0.  1.
        -11    1    4    4    0    0 -0.15822375694E-01 -0.32710378447E-01 -0.20541584255E-01  0.41743672999E-01  0.51100000000E-03 0.  1.
         11    1    4    4    0    0  0.31566926364E-01 -0.91061558850E-01 -0.19591342897E-01  0.98350191549E-01  0.51100000000E-03 0. -1.
</event>
<event>
 8    1  0.2928569E+004  0.1043930E+01  0.7957747E-01            NaN
         13   -1    0    0    0    0  0.00000000000E+00  0.00000000000E+00  0.74505805969E-08  0.10566000000E+00  0.10566000000E+00 0. -1.
     999900   -1    0    0    0    0 -0.00000000000E+00 -0.00000000000E+00 -0.74505805969E-08  0.93827000000E+00  0.93827000000E+00 0. -1.
     999902    2    1    2    0    0 -0.10774613196E-01 -0.35103647625E-02  0.63260676582E-02  0.10309517843E+01  0.10308700924E+01 0.  0.
     999903    2    3    3    0    0 -0.91604344970E-01  0.44135177327E-01  0.88375991130E-01  0.14216849624E+00  0.45412505113E-01 0.  0.
         14    1    1    2    0    0  0.10774613196E-01  0.35103647625E-02 -0.63260676582E-02  0.12978215682E-01  0.00000000000E+00 0.  1.
     999901    1    3    3    0    0  0.80829731774E-01 -0.47645542090E-01 -0.82049923472E-01  0.88878328807E+00  0.88000000000E+00 0.  1.
        -11    1    4    4    0    0 -0.31712957434E-01  0.40049856006E-01  0.35979962051E-01  0.62486169874E-01  0.51100000000E-03 0.  1.
         11    1    4    4    0    0 -0.59891387536E-01  0.40853213207E-02  0.52396029079E-01  0.79682326368E-01  0.51100000000E-03 0. -1.
</event>
<event>
 8    1  0.2928569E+004  0.1043930E+01  0.7957747E-01            NaN
         13   -1    0    0    0    0  0.00000000000E+00  0.00000000000E+00  0.74505805969E-08  0.10566000000E+00  0.10566000000E+00 0. -1.
     999900   -1    0    0    0    0 -0.00000000000E+00 -0.00000000000E+00 -0.74505805969E-08  0.93827000000E+00  0.93827000000E+00 0.  1.
     999902    2    1    2    0    0  0.10231345487E-01  0.85814365179E-03  0.93615012970E-02  0.10300355929E+01  0.10299418761E+01 0.  0.
     999903    2    3    3    0    0 -0.68961142278E-01  0.34594194259E-01 -0.10548303837E+00  0.13840851870E+00  0.45583431687E-01 0.  0.
         14    1    1    2    0    0 -0.10231345487E-01 -0.85814365179E-03 -0.93615012970E-02  0.13894407059E-01  0.00000000000E+00 0. -1.
     999901    1    3    3    0    0  0.79192487764E-01 -0.33736050607E-01  0.11484453967E+00  0.89162707424E+00  0.88000000000E+00 0. -1.
        -11    1    4    4    0    0 -0.24779600594E-01  0.33310019601E-01 -0.71388077660E-01  0.82583925581E-01  0.51100000000E-03 0. -1.
         11    1    4    4    0    0 -0.44181541683E-01  0.12841746584E-02 -0.34094960709E-01  0.55824593118E-01  0.51100000000E-03 0.  1.
</event>
<event>
 8    1  0.2928569E+004  0.1043930E+01  0.7957747E-01            NaN
         13   -1    0    0    0    0  0.00000000000E+00  0.00000000000E+00  0.74505805969E-08  0.10566000000E+00  0.10566000000E+00 0. -1.
     999900   -1    0    0    0    0 -0.00000000000E+00 -0.00000000000E+00 -0.74505805969E-08  0.93827000000E+00  0.93827000000E+00 0. -1.
     999902    2    1    2    0    0  0.12772033961E-01 -0.15603277745E-02 -0.40517983492E-02  0.10304401318E+01  0.10303518276E+01 0.  0.
     999903    2    3    3    0    0 -0.86175393056E-01  0.60991406930E-01  0.78354295394E-01  0.13887180737E+00  0.44719494511E-01 0.  0.
         14    1    1    2    0    0 -0.12772033961E-01  0.15603277745E-02  0.40517983492E-02  0.13489868203E-01  0.00000000000E+00 0. -1.
     999901    1    3    3    0    0  0.98947427017E-01 -0.62551734704E-01 -0.82406093743E-01  0.89156832442E+00  0.88000000000E+00 0. -1.
        -11    1    4    4    0    0 -0.35168575126E-01  0.76341465175E-02  0.79403829936E-02  0.36856745278E-01  0.51100000000E-03 0.  1.
         11    1    4    4    0    0 -0.51006817930E-01  0.53357260412E-01  0.70413912400E-01  0.10201506210E+00  0.51100000000E-03 0. -1.
</event>
<event>
 8    1  0.2928569E+004  0.1043930E+01  0.7957747E-01            NaN
         13   -1    0    0    0    0  0.00000000000E+00  0.00000000000E+00  0.74505805969E-08  0.10566000000E+00  0.10566000000E+00 0.  1.
     999900   -1    0    0    0    0 -0.00000000000E+00 -0.00000000000E+00 -0.74505805969E-08  0.93827000000E+00  0.93827000000E+00 0.  1.
     999902    2    1    2    0    0 -0.76017755001E-02  0.72772795832E-02  0.13731397965E-01  0.10266297954E+01  0.10264840183E+01 0.  0.
     999903    2    3    3    0    0 -0.11463578267E+00 -0.59269772834E-01 -0.12168542411E-01  0.13727295151E+00  0.45183195467E-01 0.  0.
         14    1    1    2    0    0  0.76017755001E-02 -0.72772795832E-02 -0.13731397965E-01  0.17300204593E-01  0.00000000000E+00 0.  1.
     999901    1    3    3    0    0  0.10703400717E+00  0.66547052417E-01  0.25899940376E-01  0.88935684390E+00  0.88000000000E+00 0.  1.
        -11    1    4    4    0    0 -0.10620614162E-01 -0.22046898540E-01 -0.10888147990E-01  0.26789476816E-01  0.51100000000E-03 0.  1.
         11    1    4    4    0    0 -0.10401516850E+00 -0.37222874294E-01 -0.12803944207E-02  0.11048347469E+00  0.51100000000E-03 0. -1.
</event>
<event>
 8    1  0.2928569E+004  0.1043930E+01  0.7957747E-01            NaN
         13   -1    0    0    0    0  0.00000000000E+00  0.00000000000E+00  0.74505805969E-08  0.10566000000E+00  0.10566000000E+00 0.  1.
     999900   -1    0    0    0    0 -0.00000000000E+00 -0.00000000000E+00 -0.74505805969E-08  0.93827000000E+00  0.93827000000E+00 0.  1.
     999902    2    1    2    0    0  0.78079167967E-02  0.42800875314E-02 -0.10698519918E-01  0.10300109109E+01  0.10299168585E+01 0.  0.
     999903    2    3    3    0    0  0.83584641702E-01  0.16115092998E-01  0.10106293001E+00  0.13963301296E+00  0.45139494182E-01 0.  0.
         14    1    1    2    0    0 -0.78079167967E-02 -0.42800875314E-02  0.10698519918E-01  0.13919089137E-01  0.00000000000E+00 0.  1.
     999901    1    3    3    0    0 -0.75776724906E-01 -0.11835005466E-01 -0.11176144992E+00  0.89037789791E+00  0.88000000000E+00 0.  1.
        -11    1    4    4    0    0  0.63723383710E-01  0.31030223870E-01  0.67516887013E-01  0.97889404829E-01  0.51100000000E-03 0. -1.
         11    1    4    4    0    0  0.19861257992E-01 -0.14915130872E-01  0.33546042993E-01  0.41743608127E-01  0.51100000000E-03 0.  1.
</event>
<event>
 8    1  0.2928569E+004  0.1043930E+01  0.7957747E-01            NaN
         13   -1    0    0    0    0  0.00000000000E+00  0.00000000000E+00  0.74505805969E-08  0.10566000000E+00  0.10566000000E+00 0.  1.
     999900   -1    0    0    0    0 -0.00000000000E+00 -0.00000000000E+00 -0.74505805969E-08  0.93827000000E+00  0.93827000000E+00 0.  1.
     999902    2    1    2    0    0 -0.37036241241E-02 -0.12231452265E-01  0.38031205683E-02  0.10305962465E+01  0.10305099875E+01 0.  0.
     999903    2    3    3    0    0 -0.53031289805E-01 -0.20215076785E-01  0.12162729297E+00  0.14133841412E+00  0.44298779685E-01 0.  0.
         14    1    1    2    0    0  0.37036241241E-02  0.12231452265E-01 -0.38031205683E-02  0.13333753493E-01  0.00000000000E+00 0. -1.
     999901    1    3    3    0    0  0.49327665681E-01  0.79836245209E-02 -0.11782417241E+00  0.88925783239E+00  0.88000000000E+00 0.  1.
        -11    1    4    4    0    0 -0.11216999948E-01 -0.19015337362E-01  0.77277554950E-01  0.80370926104E-01  0.51100000000E-03 0. -1.
         11    1    4    4    0    0 -0.41814289858E-01 -0.11997394237E-02  0.44349738023E-01  0.60967488014E-01  0.51100000000E-03 0.  1.
</event>
<event>
 8    1  0.2928569E+004  0.1043930E+01  0.7957747E-01            NaN
         13   -1    0    0    0    0  0.00000000000E+00  0.00000000000E+00  0.74505805969E-08  0.10566000000E+00  0.10566000000E+00 0.  1.
     999900   -1    0    0    0    0 -0.00000000000E+00 -0.00000000000E+00 -0.74505805969E-08  0.93827000000E+00  0.93827000000E+00 0.  1.
     999902    2    1    2    0    0  0.83347037638E-02  0.15812785345E-02 -0.10682118613E-01  0.10302890548E+01  0.10301987483E+01 0.  0.
     999903    2    3    3    0    0 -0.17918558840E-01  0.46066904831E-01  0.12172105614E+00  0.13888633690E+00  0.45057347884E-01 0.  0.
         14    1    1    2    0    0 -0.83347037638E-02 -0.15812785345E-02  0.10682118613E-01  0.13640945227E-01  0.00000000000E+00 0.  1.
     999901    1    3    3    0    0  0.26253262604E-01 -0.44485626297E-01 -0.13240317475E+00  0.89140271787E+00  0.88000000000E+00 0.  1.
        -11    1    4    4    0    0  0.63641103927E-02  0.41508080578E-01  0.71696541116E-01  0.83090780375E-01  0.51100000000E-03 0. -1.
         11    1    4    4    0    0 -0.24282669233E-01  0.45588242532E-02  0.50024515024E-01  0.55795556526E-01  0.51100000000E-03 0.  1.
</event>
<event>
 8    1  0.2928569E+004  0.1043930E+01  0.7957747E-01            NaN
         13   -1    0    0    0    0  0.00000000000E+00  0.00000000000E+00  0.74505805969E-08  0.10566000000E+00  0.10566000000E+00 0.  1.
     999900   -1    0    0    0    0 -0.00000000000E+00 -0.00000000000E+00 -0.74505805969E-08  0.93827000000E+00  0.93827000000E+00 0. -1.
     999902    2    1    2    0    0  0.45168492800E-02 -0.11386737123E-01 -0.68184306964E-02  0.10299103457E+01  0.10298149200E+01 0.  0.
     999903    2    3    3    0    0 -0.11960484190E+00 -0.13207092222E-02 -0.57061871372E-01  0.13972389193E+00  0.44267892783E-01 0.  0.
         14    1    1    2    0    0 -0.45168492800E-02  0.11386737123E-01  0.68184306964E-02  0.14019654307E-01  0.00000000000E+00 0. -1.
     999901    1    3    3    0    0  0.12412169118E+00 -0.10066027900E-01  0.50243440676E-01  0.89018645377E+00  0.88000000000E+00 0.  1.
        -11    1    4    4    0    0 -0.83439905142E-01 -0.19488426657E-01 -0.28955780624E-01  0.90447304527E-01  0.51100000000E-03 0. -1.
         11    1    4    4    0    0 -0.36164936760E-01  0.18167717434E-01 -0.28106090748E-01  0.49276587399E-01  0.51100000000E-03 0.  1.
</event>
<event>
 8    1  0.2928569E+004  0.1043930E+01  0.7957747E-01            NaN
         13   -1    0    0    0    0  0.00000000000E+00  0.00000000000E+00  0.74505805969E-08  0.10566000000E+00  0.10566000000E+00 0.  1.
     999900   -1    0    0    0    0 -0.00000000000E+00 -0.00000000000E+00 -0.74505805969E-08  0.93827000000E+00  0.93827000000E+00 0. -1.
     999902    2    1    2    0    0 -0.90265803860E-02 -0.50356169224E-02  0.84865877424E-02  0.10305561912E+01  0.10304694097E+01 0.  0.
     999903    2    3    3    0    0 -0.62786794303E-01 -0.45998983271E-01 -0.10809992596E+00  0.14029747980E+00  0.44042034984E-01 0.  0.
         14    1    1    2    0    0  0.90265803860E-02  0.50356169224E-02 -0.84865877424E-02  0.13373808835E-01  0.00000000000E+00 0. -1.
     999901    1    3    3    0    0  0.53760213917E-01  0.40963366349E-01  0.11658651370E+00  0.89025871136E+00  0.88000000000E+00 0.  1.
        -11    1    4    4    0    0 -0.23502496129E-01 -0.43669089894E-01 -0.67408710595E-01  0.83687227948E-01  0.51100000000E-03 0.  1.
         11    1    4    4    0    0 -0.39284298173E-01 -0.23298933770E-02 -0.40691215363E-01  0.56610251853E-01  0.51100000000E-03 0. -1.
</event>
<event>
 8    1  0.2928569E+004  0.1043930E+01  0.7957747E-01            NaN
         13   -1    0    0    0    0  0.00000000000E+00  0.00000000000E+00  0.74505805969E-08  0.10566000000E+00  0.10566000000E+00 0.  1.
     999900   -1    0    0    0    0 -0.00000000000E+00 -0.00000000000E+00 -0.74505805969E-08  0.93827000000E+00  0.93827000000E+00 0.  1.
     999902    2    1    2    0    0 -0.11388711675E-01  0.61096369730E-03 -0.79992500162E-02  0.10299993133E+01  0.10299051031E+01 0.  0.
     999903    2    3    3    0    0  0.56085277776E-01 -0.11757785145E+00 -0.24483113622E-01  0.13938545029E+00  0.43113470817E-01 0.  0.
         14    1    1    2    0    0  0.11388711675E-01 -0.61096369730E-03  0.79992500162E-02  0.13930686669E-01  0.00000000000E+00 0.  1.
     999901    1    3    3    0    0 -0.67473989450E-01  0.11818881515E+00  0.16483863606E-01  0.89061386304E+00  0.88000000000E+00 0.  1.
        -11    1    4    4    0    0  0.14595047599E-01 -0.62581523383E-01 -0.28662966648E-01  0.70365398182E-01  0.51100000000E-03 0. -1.
         11    1    4    4    0    0  0.41490230177E-01 -0.54996328066E-01  0.41798530255E-02  0.69020052109E-01  0.51100000000E-03 0.  1.
</event>
<event>
 8    1  0.2928569E+004  0.1043930E+01  0.7957747E-01            NaN
         13   -1    0    0    0    0  0.00000000000E+00  0.00000000000E+00  0.74505805969E-08  0.10566000000E+00  0.10566000000E+00 0. -1.
     999900   -1    0    0    0    0 -0.00000000000E+00 -0.00000000000E+00 -0.74505805969E-08  0.93827000000E+00  0.93827000000E+00 0.  1.
     999902    2    1    2    0    0 -0.37469607281E-02  0.12882929511E-01  0.31836801090E-02  0.10301406778E+01  0.10300483827E+01 0.  0.
     999903    2    3    3    0    0 -0.64997747336E-01 -0.11104326497E+00  0.27090040922E-01  0.13902852178E+00  0.45163543899E-01 0.  0.
         14    1    1    2    0    0  0.37469607281E-02 -0.12882929511E-01 -0.31836801090E-02  0.13789322193E-01  0.00000000000E+00 0. -1.
     999901    1    3    3    0    0  0.61250786608E-01  0.12392619448E+00 -0.23906360813E-01  0.89111215603E+00  0.88000000000E+00 0.  1.
        -11    1    4    4    0    0 -0.22543283859E-01 -0.74402899672E-02 -0.35945612935E-03  0.23747587070E-01  0.51100000000E-03 0.  1.
         11    1    4    4    0    0 -0.42454463477E-01 -0.10360297500E+00  0.27449497052E-01  0.11528093471E+00  0.51100000000E-03 0. -1.
</event>
<event>
 8    1  0.2928569E+004  0.1043930E+01  0.7957747E-01            NaN
         13   -1    0    0    0    0  0.00000000000E+00  0.00000000000E+00  0.74505805969E-08  0.10566000000E+00  0.10566000000E+00 0. -1.
     999900   -1    0    0    0    0 -0.00000000000E+00 -0.00000000000E+00 -0.74505805969E-08  0.93827000000E+00  0.93827000000E+00 0.  1.
     999902    2    1    2    0    0  0.37303548111E-02  0.12656964919E-01  0.37208393146E-02  0.10302201877E+01  0.10301289610E+01 0.  0.
     999903    2    3    3    0    0 -0.10574235388E+00 -0.38711557594E-01 -0.68651600508E-01  0.13900709921E+00  0.43930641747E-01 0.  0.
         14    1    1    2    0    0 -0.37303548111E-02 -0.12656964919E-01 -0.37208393146E-02  0.13709812295E-01  0.00000000000E+00 0. -1.
     999901    1    3    3    0    0  0.10947270869E+00  0.51368522512E-01  0.72372439822E-01  0.89121308849E+00  0.88000000000E+00 0. -1.
        -11    1    4    4    0    0 -0.83325442644E-01 -0.17980755354E-01 -0.31413509340E-01  0.90848812017E-01  0.51100000000E-03 0.  1.
         11    1    4    4    0    0 -0.22416911234E-01 -0.20730802240E-01 -0.37238091168E-01  0.48158287196E-01  0.51100000000E-03 0. -1.
</event>
<event>
 8    1  0.2928569E+004  0.1043930E+01  0.7957747E-01            NaN
         13   -1    0    0    0    0  0.00000000000E+00  0.00000000000E+00  0.74505805969E-08  0.10566000000E+00  0.10566000000E+00 0.  1.
     999900   -1    0    0    0    0 -0.00000000000E+00 -0.00000000000E+00 -0.74505805969E-08  0.93827000000E+00  0.93827000000E+00 0. -1.
     999902    2    1    2    0    0 -0.47056021942E-02  0.12627847811E-01  0.37769984459E-02  0.10299346097E+01  0.10298395163E+01 0.  0.
     999903    2    3    3    0    0 -0.88901002271E-01  0.89967996291E-01  0.45807270306E-01  0.14154454463E+00  0.44033209525E-01 0.  0.
         14    1    1    2    0    0  0.47056021942E-02 -0.12627847811E-01 -0.37769984459E-02  0.13995390298E-01  0.00000000000E+00 0. -1.
     999901    1    3    3    0    0  0.84195400077E-01 -0.77340148480E-01 -0.42030271860E-01  0.88839006507E+00  0.88000000000E+00 0. -1.
        -11    1    4    4    0    0 -0.29765219243E-01  0.50006834094E-01  0.38540925668E-01  0.69801975653E-01  0.51100000000E-03 0.  1.
         11    1    4    4    0    0 -0.59135783028E-01  0.39961162197E-01  0.72663446373E-02  0.71742568980E-01  0.51100000000E-03 0. -1.
</event>
<event>
 8    1  0.2928569E+004  0.1043930E+01  0.7957747E-01            NaN
         13   -1    0    0    0    0  0.00000000000E+00  0.00000000000E+00  0.74505805969E-08  0.10566000000E+00  0.10566000000E+00 0. -1.
     999900   -1    0    0    0    0 -0.00000000000E+00 -0.00000000000E+00 -0.74505805969E-08  0.93827000000E+00  0.93827000000E+00 0. -1.
     999902    2    1    2    0    0  0.74177863942E-02  0.61995592232E-02  0.98929265549E-02  0.10300978604E+01  0.10300049873E+01 0.  0.
     999903    2    3    3    0    0 -0.30300127044E-01  0.12938875218E+00 -0.56463666149E-02  0.14058131314E+00  0.45515681464E-01 0.  0.
         14    1    1    2    0    0 -0.74177863942E-02 -0.61995592232E-02 -0.98929265549E-02  0.13832139580E-01  0.00000000000E+00 0.  1.
     999901    1    3    3    0    0  0.37717913438E-01 -0.12318919295E+00  0.15539293170E-01  0.88951654728E+00  0.88000000000E+00 0.  1.
        -11    1    4    4    0    0 -0.32191319259E-01  0.42898290674E-01 -0.67695680297E-02  0.54061377624E-01  0.51100000000E-03 0. -1.
         11    1    4    4    0    0  0.18911922144E-02  0.86490461503E-01  0.11232014148E-02  0.86519935514E-01  0.51100000000E-03 0.  1.
</event>
<event>
 8    1  0.2928569E+004  0.1043930E+01  0.7957747E-01            NaN
         13   -1    0    0    0    0  0.00000000000E+00  0.00000000000E+00  0.74505805969E-08  0.10566000000E+00  0.10566000000E+00 0.  1.
     999900   -1    0    0    0    0 -0.00000000000E+00 -0.00000000000E+00 -0.74505805969E-08  0.93827000000E+00  0.93827000000E+00 0. -1.
     999902    2    1    2    0    0 -0.13396723581E-01  0.21770885418E-02 -0.47066271166E-02  0.10295646160E+01  0.10294643920E+01 0.  0.
     999903    2    3    3    0    0 -0.87045971542E-01  0.95628269225E-01 -0.34960880708E-01  0.14104187872E+00  0.44145003518E-01 0.  0.
         14    1    1    2    0    0  0.13396723581E-01 -0.21770885418E-02  0.47066271166E-02  0.14365383950E-01  0.00000000000E+00 0.  1.
     999901    1    3    3    0    0  0.73649247961E-01 -0.93451180683E-01  0.30254253591E-01  0.88852273733E+00  0.88000000000E+00 0.  1.
        -11    1    4    4    0    0 -0.38502428765E-01  0.56608469035E-01  0.22293025667E-02  0.68499537942E-01  0.51100000000E-03 0. -1.
         11    1    4    4    0    0 -0.48543542777E-01  0.39019800190E-01 -0.37190183274E-01  0.72542340775E-01  0.51100000000E-03 0.  1.
</event>
<event>
 8    1  0.2928569E+004  0.1043930E+01  0.7957747E-01            NaN
         13   -1    0    0    0    0  0.00000000000E+00  0.00000000000E+00  0.74505805969E-08  0.10566000000E+00  0.10566000000E+00 0.  1.
     999900   -1    0    0    0    0 -0.00000000000E+00 -0.00000000000E+00 -0.74505805969E-08  0.93827000000E+00  0.93827000000E+00 0.  1.
     999902    2    1    2    0    0  0.56237690537E-02  0.93236550773E-02  0.10554160618E-01  0.10287659758E+01  0.10286542108E+01 0.  0.
     999903    2    3    3    0    0  0.20627116867E-01  0.95501509001E-01  0.90918542763E-01  0.14078503186E+00  0.44813252574E-01 0.  0.
         14    1    1    2    0    0 -0.56237690537E-02 -0.93236550773E-02 -0.10554160618E-01  0.15164024160E-01  0.00000000000E+00 0. -1.
     999901    1    3    3    0    0 -0.15003347814E-01 -0.86177853924E-01 -0.80364382145E-01  0.88798094398E+00  0.88000000000E+00 0.  1.
        -11    1    4    4    0    0  0.17923977276E-01  0.18263183674E-01  0.42413807508E-01  0.49537915051E-01  0.51100000000E-03 0.  1.
         11    1    4    4    0    0  0.27031395911E-02  0.77238325327E-01  0.48504735255E-01  0.91247116810E-01  0.51100000000E-03 0. -1.
</event>
<event>
 8    1  0.2928569E+004  0.1043930E+01  0.7957747E-01            NaN
         13   -1    0    0    0    0  0.00000000000E+00  0.00000000000E+00  0.74505805969E-08  0.10566000000E+00  0.10566000000E+00 0. -1.
     999900   -1    0    0    0    0 -0.00000000000E+00 -0.00000000000E+00 -0.74505805969E-08  0.93827000000E+00  0.93827000000E+00 0. -1.
     999902    2    1    2    0    0  0.81890376263E-02 -0.79457177357E-02 -0.76834697620E-02  0.10301738932E+01  0.10300820451E+01 0.  0.
     999903    2    3    3    0    0  0.98126636204E-01  0.54419481172E-01 -0.72991059130E-01  0.14099265692E+00  0.44282252968E-01 0.  0.
         14    1    1    2    0    0 -0.81890376263E-02  0.79457177357E-02  0.76834697620E-02  0.13756106832E-01  0.00000000000E+00 0. -1.
     999901    1    3    3    0    0 -0.89937598577E-01 -0.62365198908E-01  0.65307589368E-01  0.88918123625E+00  0.88000000000E+00 0.  1.
        -11    1    4    4    0    0  0.93626765980E-01  0.34592434993E-01 -0.65155430494E-01  0.11919773115E+00  0.51100000000E-03 0.  1.
         11    1    4    4    0    0  0.44998702235E-02  0.19827046179E-01 -0.78356286360E-02  0.21794925770E-01  0.51100000000E-03 0. -1.
</event>
<event>
 8    1  0.2928569E+004  0.1043930E+01  0.7957747E-01            NaN
         13   -1    0    0    0    0  0.00000000000E+00  0.00000000000E+00  0.74505805969E-08  0.10566000000E+00  0.10566000000E+00 0. -1.
     999900   -1    0    0    0    0 -0.00000000000E+00 -0.00000000000E+00 -0.74505805969E-08  0.93827000000E+00  0.93827000000E+00 0.  1.
     999902    2    1    2    0    0 -0.77352226988E-02 -0.11741928941E-01 -0.31455618089E-02  0.10295216301E+01  0.10294208010E+01 0.  0.
     999903    2    3    3    0    0  0.67746502703E-01 -0.52981816372E-01 -0.10167801136E+00  0.13985491560E+00  0.42712034960E-01 0.  0.
         14    1    1    2    0    0  0.77352226988E-02  0.11741928941E-01  0.31455618089E-02  0.14408369948E-01  0.00000000000E+00 0. -1.
     999901    1    3    3    0    0 -0.75481725401E-01  0.41239887430E-01  0.98532449548E-01  0.88966671445E+00  0.88000000000E+00 0.  1.
        -11    1    4    4    0    0  0.18964437281E-01 -0.28184811621E-01 -0.66847156725E-01  0.74985578419E-01  0.51100000000E-03 0.  1.
         11    1    4    4    0    0  0.48782065422E-01 -0.24797004751E-01 -0.34830854631E-01  0.64869337184E-01  0.51100000000E-03 0. -1.
</event>
<event>
 8    1  0.2928569E+004  0.1043930E+01  0.7957747E-01            NaN
         13   -1    0    0    0    0  0.00000000000E+00  0.00000000000E+00  0.74505805969E-08  0.10566000000E+00  0.10566000000E+00 0.  1.
     999900   -1    0    0    0    0 -0.00000000000E+00 -0.00000000000E+00 -0.74505805969E-08  0.93827000000E+00  0.93827000000E+00 0.  1.
     999902    2    1    2    0    0 -0.22630311200E-03  0.13364389858E-01 -0.17837527364E-02  0.10304451973E+01  0.10303569599E+01 0.  0.
     999903    2    3    3    0    0 -0.10405991717E+00 -0.26826995917E-01 -0.78688235966E-01  0.14010196775E+00  0.43457666953E-01 0.  0.
         14    1    1    2    0    0  0.22630311200E-03 -0.13364389858E-01  0.17837527364E-02  0.13484802675E-01  0.00000000000E+00 0.  1.
     999901    1    3    3    0    0  0.10383361406E+00  0.40191385775E-01  0.76904483230E-01  0.89034322957E+00  0.88000000000E+00 0. -1.
        -11    1    4    4    0    0 -0.62962004887E-01 -0.12583087494E-01 -0.20400554405E-01  0.67372040872E-01  0.51100000000E-03 0.  1.
         11    1    4    4    0    0 -0.41097912288E-01 -0.14243908422E-01 -0.58287681561E-01  0.72729926883E-01  0.51100000000E-03 0. -1.
</event>
<event>
 8    1  0.2928569E+004  0.1043930E+01  0.7957747E-01            NaN
         13   -1    0    0    0    0  0.00000000000E+00  0.00000000000E+00  0.74505805969E-08  0.10566000000E+00  0.10566000000E+00 0. -1.
     999900   -1    0    0    0    0 -0.00000000000E+00 -0.00000000000E+00 -0.74505805969E-08  0.93827000000E+00  0.93827000000E+00 0. -1.
     999902    2    1    2    0    0  0.63392404690E-02 -0.17544210814E-01 -0.66736660556E-02  0.10241178037E+01  0.10239261462E+01 0.  0.
     999903    2    3    3    0    0 -0.62072395914E-01 -0.10375594127E+00  0.42803149604E-01  0.13588327965E+00  0.44876256403E-01 0.  0.
         14    1    1    2    0    0 -0.63392404690E-02  0.17544210814E-01  0.66736660556E-02  0.19812196280E-01  0.00000000000E+00 0.  1.
     999901    1    3    3    0    0  0.68411636383E-01  0.86211730458E-01 -0.49476815659E-01  0.88823452407E+00  0.88000000000E+00 0. -1.
        -11    1    4    4    0    0 -0.20169341986E-01 -0.51730077412E-01 -0.18047822396E-02  0.55554672397E-01  0.51100000000E-03 0.  1.
         11    1    4    4    0    0 -0.41903053928E-01 -0.52025863860E-01  0.44607931843E-01  0.80328607253E-01  0.51100000000E-03 0. -1.
</event>
<event>
 8    1  0.2928569E+004  0.1043930E+01  0.7957747E-01            NaN
         13   -1    0    0    0    0  0.00000000000E+00  0.00000000000E+00  0.74505805969E-08  0.10566000000E+00  0.10566000000E+00 0. -1.
     999900   -1    0    0    0    0 -0.00000000000E+00 -0.00000000000E+00 -0.74505805969E-08  0.93827000000E+00  0.93827000000E+00 0. -1.
     999902    2    1    2    0    0 -0.85196901761E-03 -0.43462384617E-02 -0.11817066197E-01  0.10313102261E+01  0.10312330114E+01 0.  0.
     999903    2    3    3    0    0  0.14188496795E-01 -0.13276063961E+00  0.13992850902E-01  0.14148854404E+00  0.44682293423E-01 0.  0.
         14    1    1    2    0    0  0.85196901761E-03  0.43462384617E-02  0.11817066197E-01  0.12619773907E-01  0.00000000000E+00 0. -1.
     999901    1    3    3    0    0 -0.15040465812E-01  0.12841440115E+00 -0.25809917099E-01  0.88982168206E+00  0.88000000000E+00 0. -1.
        -11    1    4    4    0    0  0.19287751636E-01 -0.31531489286E-01  0.15584635820E-01  0.40117255320E-01  0.51100000000E-03 0. -1.
         11    1    4    4    0    0 -0.50992548410E-02 -0.10122915033E+00 -0.15917849178E-02  0.10137128872E+00  0.51100000000E-03 0.  1.
</event>
<event>
 8    1  0.2928569E+004  0.1043930E+01  0.7957747E-01            NaN
         13   -1    0    0    0    0  0.00000000000E+00  0.00000000000E+00  0.74505805969E-08  0.10566000000E+00  0.10566000000E+00 0. -1.
     999900   -1    0    0    0    0 -0.00000000000E+00 -0.00000000000E+00 -0.74505805969E-08  0.93827000000E+00  0.93827000000E+00 0.  1.
     999902    2    1    2    0    0 -0.12833277467E-02 -0.12072302894E-01 -0.64350649652E-02  0.10301896402E+01  0.10300980037E+01 0.  0.
     999903    2    3    3    0    0 -0.26730466957E-01 -0.98962903327E-01 -0.87055630668E-01  0.14187820325E+00  0.45194774346E-01 0.  0.
         14    1    1    2    0    0  0.12833277467E-02  0.12072302894E-01  0.64350649652E-02  0.13740359835E-01  0.00000000000E+00 0. -1.
     999901    1    3    3    0    0  0.25447139211E-01  0.86890600433E-01  0.80620565703E-01  0.88831143691E+00  0.88000000000E+00 0. -1.
        -11    1    4    4    0    0 -0.13954487593E-01 -0.55286702625E-02 -0.25164890814E-02  0.15227861214E-01  0.51100000000E-03 0.  1.
         11    1    4    4    0    0 -0.12775979365E-01 -0.93434233065E-01 -0.84539141587E-01  0.12665034204E+00  0.51100000000E-03 0. -1.
</event>
<event>
 8    1  0.2928569E+004  0.1043930E+01  0.7957747E-01            NaN
         13   -1    0    0    0    0  0.00000000000E+00  0.00000000000E+00  0.74505805969E-08  0.10566000000E+00  0.10566000000E+00 0. -1.
     999900   -1    0    0    0    0 -0.00000000000E+00 -0.00000000000E+00 -0.74505805969E-08  0.93827000000E+00  0.93827000000E+00 0.  1.
     999902    2    1    2    0    0  0.14956787230E-01  0.27278571609E-02  0.80618945473E-02  0.10267212571E+01  0.10265770302E+01 0.  0.
     999903    2    3    3    0    0 -0.17152088516E-01  0.11208223378E+00  0.64466544729E-01  0.13758074842E+00  0.43771059803E-01 0.  0.
         14    1    1    2    0    0 -0.14956787230E-01 -0.27278571609E-02 -0.80618945473E-02  0.17208742913E-01  0.00000000000E+00 0.  1.
     999901    1    3    3    0    0  0.32108875746E-01 -0.10935437662E+00 -0.56404650182E-01  0.88914050867E+00  0.88000000000E+00 0.  1.
        -11    1    4    4    0    0 -0.92388426727E-02  0.27686818689E-01 -0.28567625990E-02  0.29331524962E-01  0.51100000000E-03 0. -1.
         11    1    4    4    0    0 -0.79132458435E-02  0.84395415095E-01  0.67323307328E-01  0.10824922346E+00  0.51100000000E-03 0.  1.
</event>
<event>
 8    1  0.2928569E+004  0.1043930E+01  0.7957747E-01            NaN
         13   -1    0    0    0    0  0.00000000000E+00  0.00000000000E+00  0.74505805969E-08  0.10566000000E+00  0.10566000000E+00 0.  1.
     999900   -1    0    0    0    0 -0.00000000000E+00 -0.00000000000E+00 -0.74505805969E-08  0.93827000000E+00  0.93827000000E+00 0. -1.
     999902    2    1    2    0    0 -0.79949034087E-02 -0.77571074830E-02  0.93693594116E-02  0.10293740358E+01  0.10292711157E+01 0.  0.
     999903    2    3    3    0    0  0.57101036232E-01 -0.15699175380E-01  0.11904474057E+00  0.14014445522E+00  0.44292500775E-01 0.  0.
         14    1    1    2    0    0  0.79949034087E-02  0.77571074830E-02 -0.93693594116E-02  0.14555964166E-01  0.00000000000E+00 0. -1.
     999901    1    3    3    0    0 -0.65095939640E-01  0.79420678973E-02 -0.10967538116E+00  0.88922958061E+00  0.88000000000E+00 0. -1.
        -11    1    4    4    0    0  0.92189657401E-02 -0.18210809103E-01  0.14245127927E-01  0.24895937182E-01  0.51100000000E-03 0. -1.
         11    1    4    4    0    0  0.47882070492E-01  0.25116337229E-02  0.10479961265E+00  0.11524851804E+00  0.51100000000E-03 0.  1.
</event>
<event>
 8    1  0.2928569E+004  0.1043930E+01  0.7957747E-01            NaN
         13   -1    0    0    0    0  0.00000000000E+00  0.00000000000E+00  0.74505805969E-08  0.10566000000E+00  0.10566000000E+00 0.  1.
     999900   -1    0    0    0    0 -0.00000000000E+00 -0.00000000000E+00 -0.74505805969E-08  0.93827000000E+00  0.93827000000E+00 0. -1.
     999902    2    1    2    0    0  0.21213423600E-02  0.28858334394E-02 -0.14989135835E-01  0.10285188897E+01  0.10284034248E+01 0.  0.
     999903    2    3    3    0    0 -0.77626475493E-02  0.98405809174E-01  0.84916653252E-01  0.13767494953E+00  0.44716794965E-01 0.  0.
         14    1    1    2    0    0 -0.21213423600E-02 -0.28858334394E-02  0.14989135835E-01  0.15411110315E-01  0.00000000000E+00 0.  1.
     999901    1    3    3    0    0  0.98839899092E-02 -0.95519975735E-01 -0.99905789087E-01  0.89084394016E+00  0.88000000000E+00 0. -1.
        -11    1    4    4    0    0 -0.13508692494E-02  0.48206559081E-01  0.69827759471E-01  0.84863857442E-01  0.51100000000E-03 0.  1.
         11    1    4    4    0    0 -0.64117782998E-02  0.50199250093E-01  0.15088893781E-01  0.52811092087E-01  0.51100000000E-03 0. -1.
</event>
<event>
 8    1  0.2928569E+004  0.1043930E+01  0.7957747E-01            NaN
         13   -1    0    0    0    0  0.00000000000E+00  0.00000000000E+00  0.74505805969E-08  0.10566000000E+00  0.10566000000E+00 0.  1.
     999900   -1    0    0    0    0 -0.00000000000E+00 -0.00000000000E+00 -0.74505805969E-08  0.93827000000E+00  0.93827000000E+00 0.  1.
     999902    2    1    2    0    0 -0.44902414955E-02  0.10916763222E-01 -0.57906597510E-02  0.10307820067E+01  0.10306981496E+01 0.  0.
     999903    2    3    3    0    0  0.20018510051E-01 -0.12128040015E+00  0.47169376484E-01  0.13899641903E+00  0.44557583194E-01 0.  0.
         14    1    1    2    0    0  0.44902414955E-02 -0.10916763222E-01  0.57906597510E-02  0.13147993318E-01  0.00000000000E+00 0.  1.
     999901    1    3    3    0    0 -0.24508751546E-01  0.13219716337E+00 -0.52960036235E-01  0.89178558765E+00  0.88000000000E+00 0.  1.
        -11    1    4    4    0    0  0.28341756941E-01 -0.44957248440E-01  0.11691457940E-01  0.54418385528E-01  0.51100000000E-03 0.  1.
         11    1    4    4    0    0 -0.83232468898E-02 -0.76323151710E-01  0.35477918544E-01  0.84578033501E-01  0.51100000000E-03 0. -1.
</event>
<event>
 8    1  0.2928569E+004  0.1043930E+01  0.7957747E-01            NaN
         13   -1    0    0    0    0  0.00000000000E+00  0.00000000000E+00  0.74505805969E-08  0.10566000000E+00  0.10566000000E+00 0. -1.
     999900   -1    0    0    0    0 -0.00000000000E+00 -0.00000000000E+00 -0.74505805969E-08  0.93827000000E+00  0.93827000000E+00 0.  1.
     999902    2    1    2    0    0 -0.52980783190E-02 -0.73900295132E-02  0.10726342432E-01  0.10298681156E+01  0.10297721102E+01 0.  0.
     999903    2    3    3    0    0 -0.10901028096E-01 -0.10416845142E+00 -0.80941665352E-01  0.13981166818E+00  0.45009451068E-01 0.  0.
         14    1    1    2    0    0  0.52980783190E-02  0.73900295132E-02 -0.10726342432E-01  0.14061884371E-01  0.00000000000E+00 0.  1.
     999901    1    3    3    0    0  0.56029497772E-02  0.96778421904E-01  0.91668007784E-01  0.89005644745E+00  0.88000000000E+00 0. -1.
        -11    1    4    4    0    0 -0.18741899258E-01 -0.99050221357E-01 -0.61137060288E-01  0.11789913655E+00  0.51100000000E-03 0. -1.
         11    1    4    4    0    0  0.78408711622E-02 -0.51182300600E-02 -0.19804605064E-01  0.21912531627E-01  0.51100000000E-03 0.  1.
</event>
<event>
 8    1  0.2928569E+004  0.1043930E+01  0.7957747E-01            NaN
         13   -1    0    0    0    0  0.00000000000E+00  0.00000000000E+00  0.74505805969E-08  0.10566000000E+00  0.10566000000E+00 0.  1.
     999900   -1    0    0    0    0 -0.00000000000E+00 -0.00000000000E+00 -0.74505805969E-08  0.93827000000E+00  0.93827000000E+00 0. -1.
     999902    2    1    2    0    0  0.14159527612E-01 -0.87198207537E-03  0.42682135593E-02  0.10291154726E+01  0.10290088366E+01 0.  0.
     999903    2    3    3    0    0  0.93088069093E-01  0.79217214761E-01  0.53019298341E-01  0.14062199352E+00  0.44974919044E-01 0.  0.
         14    1    1    2    0    0 -0.14159527612E-01  0.87198207537E-03 -0.42682135593E-02  0.14814527395E-01  0.00000000000E+00 0. -1.
     999901    1    3    3    0    0 -0.78928541481E-01 -0.80089196837E-01 -0.48751084782E-01  0.88849347909E+00  0.88000000000E+00 0. -1.
        -11    1    4    4    0    0  0.76304552758E-01  0.62249387528E-01  0.60535690430E-01  0.11559499105E+00  0.51100000000E-03 0.  1.
         11    1    4    4    0    0  0.16783516335E-01  0.16967827233E-01 -0.75163920886E-02  0.25027002469E-01  0.51100000000E-03 0. -1.
</event>
<event>
 8    1  0.2928569E+004  0.1043930E+01  0.7957747E-01            NaN
         13   -1    0    0    0    0  0.00000000000E+00  0.00000000000E+00  0.74505805969E-08  0.10566000000E+00  0.10566000000E+00 0. -1.
     999900   -1    0    0    0    0 -0.00000000000E+00 -0.00000000000E+00 -0.74505805969E-08  0.93827000000E+00  0.93827000000E+00 0. -1.
     999902    2    1    2    0    0 -0.96261895117E-02 -0.10193966592E-01  0.10141704252E-02  0.10298726524E+01  0.10297767094E+01 0.  0.
     999903    2    3    3    0    0  0.76766876112E-01  0.89782849194E-01 -0.50508837319E-01  0.13851764693E+00  0.51786895892E-01 0.  0.
         14    1    1    2    0    0  0.96261895117E-02  0.10193966592E-01 -0.10141704252E-02  0.14057347582E-01  0.00000000000E+00 0.  1.
     999901    1    3    3    0    0 -0.86393065624E-01 -0.99976815785E-01  0.51523007745E-01  0.89135500549E+00  0.88000000000E+00 0.  1.
        -11    1    4    4    0    0  0.40045118138E-02  0.39541066470E-01 -0.86079380519E-02  0.40668043609E-01  0.51100000000E-03 0. -1.
         11    1    4    4    0    0  0.72762364299E-01  0.50241782724E-01 -0.41900899268E-01  0.97849603321E-01  0.51100000000E-03 0.  1.
</event>
<event>
 8    1  0.2928569E+004  0.1043930E+01  0.7957747E-01            NaN
         13   -1    0    0    0    0  0.00000000000E+00  0.00000000000E+00  0.74505805969E-08  0.10566000000E+00  0.10566000000E+00 0. -1.
     999900   -1    0    0    0    0 -0.00000000000E+00 -0.00000000000E+00 -0.74505805969E-08  0.93827000000E+00  0.93827000000E+00 0. -1.
     999902    2    1    2    0    0 -0.12824174103E-01  0.23396932540E-02 -0.48101661282E-02  0.10300349900E+01  0.10299412649E+01 0.  0.
     999903    2    3    3    0    0 -0.79954752318E-01  0.10576732574E+00 -0.19569089645E-01  0.14131590300E+00  0.44807873847E-01 0.  0.
         14    1    1    2    0    0  0.12824174103E-01 -0.23396932540E-02  0.48101661282E-02  0.13895010044E-01  0.00000000000E+00 0. -1.
     999901    1    3    3    0    0  0.67130578215E-01 -0.10342763249E+00  0.14758923517E-01  0.88871908695E+00  0.88000000000E+00 0.  1.
        -11    1    4    4    0    0 -0.27297755004E-01  0.70130499171E-01 -0.19453031489E-01  0.77731177126E-01  0.51100000000E-03 0. -1.
         11    1    4    4    0    0 -0.52656997314E-01  0.35636826571E-01 -0.11605815659E-03  0.63584725876E-01  0.51100000000E-03 0.  1.
</event>
<event>
 8    1  0.2928569E+004  0.1043930E+01  0.7957747E-01            NaN
         13   -1    0    0    0    0  0.00000000000E+00  0.00000000000E+00  0.74505805969E-08  0.10566000000E+00  0.10566000000E+00 0. -1.
     999900   -1    0    0    0    0 -0.00000000000E+00 -0.00000000000E+00 -0.74505805969E-08  0.93827000000E+00  0.93827000000E+00 0.  1.
     999902    2    1    2    0    0  0.80500459194E-02 -0.10410180761E-01 -0.21948723442E-02  0.10305886145E+01  0.10305022561E+01 0.  0.
     999903    2    3    3    0    0  0.11705276751E+00 -0.18848531857E-01 -0.63234869646E-01  0.14172491270E+00  0.45063118036E-01 0.  0.
         14    1    1    2    0    0 -0.80500459194E-02  0.10410180761E-01  0.21948723442E-02  0.13341385512E-01  0.00000000000E+00 0. -1.
     999901    1    3    3    0    0 -0.10900272159E+00  0.84383510962E-02  0.61039997302E-01  0.88886370179E+00  0.88000000000E+00 0. -1.
        -11    1    4    4    0    0  0.42263317096E-01 -0.28732798836E-01 -0.30235166430E-01  0.59381715291E-01  0.51100000000E-03 0. -1.
         11    1    4    4    0    0  0.74789450411E-01  0.98842669794E-02 -0.32999703217E-01  0.82343197411E-01  0.51100000000E-03 0.  1.
</event>
<event>
 8    1  0.2928569E+004  0.1043930E+01  0.7957747E-01            NaN
         13   -1    0    0    0    0  0.00000000000E+00  0.00000000000E+00  0.74505805969E-08  0.10566000000E+00  0.10566000000E+00 0.  1.
     999900   -1    0    0    0    0 -0.00000000000E+00 -0.00000000000E+00 -0.74505805969E-08  0.93827000000E+00  0.93827000000E+00 0.  1.
     999902    2    1    2    0    0 -0.75146634104E-02 -0.10711009838E-01  0.52990845543E-02  0.10298134779E+01  0.10297167199E+01 0.  0.
     999903    2    3    3    0    0  0.11386706262E+00 -0.20657517929E-01 -0.62397548316E-01  0.13885035270E+00  0.44648912777E-01 0.  0.
         14    1    1    2    0    0  0.75146634104E-02  0.10711009838E-01 -0.52990845543E-02  0.14116522058E-01  0.00000000000E+00 0. -1.
     999901    1    3    3    0    0 -0.12138172603E+00  0.99465080918E-02  0.67696632870E-01  0.89096312524E+00  0.88000000000E+00 0.  1.
        -11    1    4    4    0    0  0.51826771492E-01 -0.34526714808E-02 -0.52241187666E-01  0.73670468937E-01  0.51100000000E-03 0. -1.
         11    1    4    4    0    0  0.62040291129E-01 -0.17204846449E-01 -0.10156360649E-01  0.65179883763E-01  0.51100000000E-03 0.  1.
</event>
<event>
 8    1  0.2928569E+004  0.1043930E+01  0.7957747E-01            NaN
         13   -1    0    0    0    0  0.00000000000E+00  0.00000000000E+00  0.74505805969E-08  0.10566000000E+00  0.10566000000E+00 0. -1.
     999900   -1    0    0    0    0 -0.00000000000E+00 -0.00000000000E+00 -0.74505805969E-08  0.93827000000E+00  0.93827000000E+00 0. -1.
     999902    2    1    2    0    0  0.22779671925E-02  0.13663291490E-01 -0.28187481855E-03  0.10300752491E+01  0.10299820701E+01 0.  0.
     999903    2    3    3    0    0  0.11235415575E-01 -0.94250172331E-01 -0.90757406771E-01  0.13883377036E+00  0.45039753126E-01 0.  0.
         14    1    1    2    0    0 -0.22779671925E-02 -0.13663291490E-01  0.28187481855E-03  0.13854750892E-01  0.00000000000E+00 0.  1.
     999901    1    3    3    0    0 -0.89574483821E-02  0.10791346382E+00  0.90475531952E-01  0.89124147875E+00  0.88000000000E+00 0.  1.
        -11    1    4    4    0    0  0.76704995828E-02 -0.70799485119E-02 -0.31960685948E-01  0.33626013770E-01  0.51100000000E-03 0. -1.
         11    1    4    4    0    0  0.35649159918E-02 -0.87170223819E-01 -0.58796720823E-01  0.10520775659E+00  0.51100000000E-03 0.  1.
</event>
<event>
 8    1  0.2928569E+004  0.1043930E+01  0.7957747E-01            NaN
         13   -1    0    0    0    0  0.00000000000E+00  0.00000000000E+00  0.74505805969E-08  0.10566000000E+00  0.10566000000E+00 0.  1.
     999900   -1    0    0    0    0 -0.00000000000E+00 -0.00000000000E+00 -0.74505805969E-08  0.93827000000E+00  0.93827000000E+00 0.  1.
     999902    2    1    2    0    0  0.34672394211E-03  0.53142591931E-02 -0.12181773596E-01  0.10306349943E+01  0.10305492392E+01 0.  0.
     999903    2    3    3    0    0  0.34547079433E-01  0.91721408262E-01  0.89088328757E-01  0.13996586756E+00  0.45248163823E-01 0.  0.
         14    1    1    2    0    0 -0.34672394211E-03 -0.53142591931E-02  0.12181773596E-01  0.13295005687E-01  0.00000000000E+00 0.  1.
     999901    1    3    3    0    0 -0.34200355491E-01 -0.86407149069E-01 -0.10127010235E+00  0.89066912676E+00  0.88000000000E+00 0. -1.
        -11    1    4    4    0    0  0.17059333904E-01  0.57493805236E-01  0.24459519498E-01  0.64769496901E-01  0.51100000000E-03 0.  1.
         11    1    4    4    0    0  0.17487745529E-01  0.34227603026E-01  0.64628809259E-01  0.75196370656E-01  0.51100000000E-03 0. -1.
</event>
<event>
 8    1  0.2928569E+004  0.1043930E+01  0.7957747E-01            NaN
         13   -1    0    0    0    0  0.00000000000E+00  0.00000000000E+00  0.74505805969E-08  0.10566000000E+00  0.10566000000E+00 0.  1.
     999900   -1    0    0    0    0 -0.00000000000E+00 -0.00000000000E+00 -0.74505805969E-08  0.93827000000E+00  0.93827000000E+00 0. -1.
     999902    2    1    2    0    0 -0.90054379344E-02 -0.70069487886E-02 -0.11964668641E-01  0.10273967444E+01  0.10272637061E+01 0.  0.
     999903    2    3    3    0    0 -0.51442983457E-01  0.66907621663E-01  0.97545276349E-01  0.13652260235E+00  0.44725044781E-01 0.  0.
         14    1    1    2    0    0  0.90054379344E-02  0.70069487886E-02  0.11964668641E-01  0.16533255560E-01  0.00000000000E+00 0.  1.
     999901    1    3    3    0    0  0.42437545523E-01 -0.73914570452E-01 -0.10950994499E+00  0.89087414209E+00  0.88000000000E+00 0. -1.
        -11    1    4    4    0    0  0.20784074371E-03  0.28116934580E-01  0.45847852627E-01  0.53785610710E-01  0.51100000000E-03 0.  1.
         11    1    4    4    0    0 -0.51650824201E-01  0.38790687083E-01  0.51697423722E-01  0.82736991639E-01  0.51100000000E-03 0. -1.
</event>
<event>
 8    1  0.2928569E+004  0.1043930E+01  0.7957747E-01            NaN
         13   -1    0    0    0    0  0.00000000000E+00  0.00000000000E+00  0.74505805969E-08  0.10566000000E+00  0.10566000000E+00 0.  1.
     999900   -1    0    0    0    0 -0.00000000000E+00 -0.00000000000E+00 -0.74505805969E-08  0.93827000000E+00  0.93827000000E+00 0. -1.
     999902    2    1    2    0    0  0.71556843042E-02  0.21267984798E-02 -0.11292302989E-01  0.10303932649E+01  0.10303043420E+01 0.  0.
     999903    2    3    3    0    0  0.53330455153E-01  0.99042292201E-01  0.70609935434E-01  0.14009404610E+00  0.44576514888E-01 0.  0.
         14    1    1    2    0    0 -0.71556843042E-02 -0.21267984798E-02  0.11292302989E-01  0.13536735073E-01  0.00000000000E+00 0.  1.
     999901    1    3    3    0    0 -0.46174770848E-01 -0.96915493721E-01 -0.81902238423E-01  0.89029921883E+00  0.88000000000E+00 0. -1.
        -11    1    4    4    0    0  0.28381340271E-01  0.43819370220E-01  0.77530446265E-02  0.52782653439E-01  0.51100000000E-03 0.  1.
         11    1    4    4    0    0  0.24949114882E-01  0.55222921980E-01  0.62856890807E-01  0.87311392661E-01  0.51100000000E-03 0. -1.
</event>
<event>
 8    1  0.2928569E+004  0.1043930E+01  0.7957747E-01            NaN
         13   -1    0    0    0    0  0.00000000000E+00  0.00000000000E+00  0.74505805969E-08  0.10566000000E+00  0.10566000000E+00 0. -1.
     999900   -1    0    0    0    0 -0.00000000000E+00 -0.00000000000E+00 -0.74505805969E-08  0.93827000000E+00  0.93827000000E+00 0.  1.
     999902    2    1    2    0    0  0.82088542852E-02 -0.92786725407E-02 -0.83226773686E-02  0.10290053221E+01  0.10288970827E+01 0.  0.
     999903    2    3    3    0    0  0.69547011035E-01  0.10740083739E+00 -0.31034030955E-01  0.13889730441E+00  0.44245039032E-01 0.  0.
         14    1    1    2    0    0 -0.82088542852E-02  0.92786725407E-02  0.83226773686E-02  0.14924677932E-01  0.00000000000E+00 0.  1.
     999901    1    3    3    0    0 -0.61338156749E-01 -0.11667950994E+00  0.22711353586E-01  0.89010801766E+00  0.88000000000E+00 0.  1.
        -11    1    4    4    0    0  0.44843565255E-01  0.51742047731E-01 -0.36788385795E-01  0.77729217792E-01  0.51100000000E-03 0.  1.
         11    1    4    4    0    0  0.24703445780E-01  0.55658789664E-01  0.57543548403E-02  0.61168086621E-01  0.51100000000E-03 0. -1.
</event>
<event>
 8    1  0.2928569E+004  0.1043930E+01  0.7957747E-01            NaN
         13   -1    0    0    0    0  0.00000000000E+00  0.00000000000E+00  0.74505805969E-08  0.10566000000E+00  0.10566000000E+00 0. -1.
     999900   -1    0    0    0    0 -0.00000000000E+00 -0.00000000000E+00 -0.74505805969E-08  0.93827000000E+00  0.93827000000E+00 0. -1.
     999902    2    1    2    0    0 -0.31406616060E-02  0.13393687025E-01  0.30054195452E-02  0.10298485528E+01  0.10297522783E+01 0.  0.
     999903    2    3    3    0    0  0.11954558498E+00  0.31206890087E-01  0.47634129272E-01  0.14003905242E+00  0.45573117672E-01 0.  0.
         14    1    1    2    0    0  0.31406616060E-02 -0.13393687025E-01 -0.30054195452E-02  0.14081447159E-01  0.00000000000E+00 0.  1.
     999901    1    3    3    0    0 -0.12268624659E+00 -0.17813203062E-01 -0.44628709727E-01  0.88980950042E+00  0.88000000000E+00 0.  1.
        -11    1    4    4    0    0  0.24403604741E-01 -0.11669165206E-01  0.13531942084E-01  0.30250287908E-01  0.51100000000E-03 0.  1.
         11    1    4    4    0    0  0.95141980239E-01  0.42876055293E-01  0.34102187188E-01  0.10978876451E+00  0.51100000000E-03 0. -1.
</event>
<event>
 7    1  0.2928569E+004  0.1043930E+01  0.7957747E-01            NaN
         13   -1    0    0    0    0  0.00000000000E+00  0.00000000000E+00  0.74505805969E-08  0.10566000000E+00  0.10566000000E+00 0.  1.
     999900   -1    0    0    0    0 -0.00000000000E+00 -0.00000000000E+00 -0.74505805969E-08  0.93827000000E+00  0.93827000000E+00 0. -1.
     999903    2    1    2    0    0 -0.29075550148E-02  0.51957211558E-01 -0.10765048469E+00  0.12752136220E+00  0.44329056529E-01 0.  0.
         14    1    1    2    0    0 -0.29584175765E-02 -0.28447319819E-01 -0.45267226741E-02  0.28956751503E-01  0.00000000000E+00 0. -1.
     999901    1    1    2    0    0  0.58659725913E-02 -0.23509891739E-01  0.11217720737E+00  0.88745188630E+00  0.88000000000E+00 0.  1.
        -11    1    3    3    0    0 -0.22252487390E-01  0.25829525433E-01 -0.69367602461E-01  0.77294650341E-01  0.51100000000E-03 0. -1.
         11    1    3    3    0    0  0.19344932375E-01  0.26127686125E-01 -0.38282882233E-01  0.50226711856E-01  0.51100000000E-03 0.  1.
</event>
<event>
 8    1  0.2928569E+004  0.1043930E+01  0.7957747E-01            NaN
         13   -1    0    0    0    0  0.00000000000E+00  0.00000000000E+00  0.74505805969E-08  0.10566000000E+00  0.10566000000E+00 0.  1.
     999900   -1    0    0    0    0 -0.00000000000E+00 -0.00000000000E+00 -0.74505805969E-08  0.93827000000E+00  0.93827000000E+00 0. -1.
     999902    2    1    2    0    0 -0.27905674989E-03 -0.78821634800E-02  0.11511244209E-01  0.10299759641E+01  0.10298814357E+01 0.  0.
     999903    2    3    3    0    0 -0.26125948854E-01 -0.13050889915E+00 -0.10608799068E-01  0.14082205482E+00  0.44756748601E-01 0.  0.
         14    1    1    2    0    0  0.27905674989E-03  0.78821634800E-02 -0.11511244209E-01  0.13954035869E-01  0.00000000000E+00 0. -1.
     999901    1    3    3    0    0  0.25846892104E-01  0.12262673567E+00  0.22120043276E-01  0.88915390931E+00  0.88000000000E+00 0. -1.
        -11    1    4    4    0    0 -0.20280995304E-01 -0.59398069027E-01 -0.25812986949E-01  0.67867671176E-01  0.51100000000E-03 0.  1.
         11    1    4    4    0    0 -0.58449535501E-02 -0.71110830120E-01  0.15204187882E-01  0.72954383642E-01  0.51100000000E-03 0. -1.
</event>
<event>
 8    1  0.2928569E+004  0.1043930E+01  0.7957747E-01            NaN
         13   -1    0    0    0    0  0.00000000000E+00  0.00000000000E+00  0.74505805969E-08  0.10566000000E+00  0.10566000000E+00 0. -1.
     999900   -1    0    0    0    0 -0.00000000000E+00 -0.00000000000E+00 -0.74505805969E-08  0.93827000000E+00  0.93827000000E+00 0. -1.
     999902    2    1    2    0    0  0.25873389028E-02  0.87589718241E-02  0.82747987002E-02  0.10316057879E+01  0.10315321689E+01 0.  0.
     999903    2    3    3    0    0  0.85197353915E-01 -0.54657419601E-02 -0.10239139034E+00  0.14072209042E+00  0.45058256367E-01 0.  0.
         14    1    1    2    0    0 -0.25873389028E-02 -0.87589718241E-02 -0.82747987002E-02  0.12324212086E-01  0.00000000000E+00 0.  1.
     999901    1    3    3    0    0 -0.82610015013E-01  0.14224713784E-01  0.11066618904E+00  0.89088369749E+00  0.88000000000E+00 0.  1.
        -11    1    4    4    0    0  0.65934656770E-01  0.10492439599E-01 -0.52595882137E-01  0.84994459766E-01  0.51100000000E-03 0. -1.
         11    1    4    4    0    0  0.19262697145E-01 -0.15958181559E-01 -0.49795508205E-01  0.55727630654E-01  0.51100000000E-03 0.  1.
</event>
<event>
 8    1  0.2928569E+004  0.1043930E+01  0.7957747E-01            NaN
         13   -1    0    0    0    0  0.00000000000E+00  0.00000000000E+00  0.74505805969E-08  0.10566000000E+00  0.10566000000E+00 0.  1.
     999900   -1    0    0    0    0 -0.00000000000E+00 -0.00000000000E+00 -0.74505805969E-08  0.93827000000E+00  0.93827000000E+00 0. -1.
     999902    2    1    2    0    0  0.92464100304E-02  0.89886502247E-02 -0.56495704013E-02  0.10298513077E+01  0.10297550711E+01 0.  0.
     999903    2    3    3    0    0  0.54566658429E-01 -0.11247990568E+00 -0.43089056361E-01  0.13956469649E+00  0.44636177398E-01 0.  0.
         14    1    1    2    0    0 -0.92464100304E-02 -0.89886502247E-02  0.56495704013E-02  0.14078692305E-01  0.00000000000E+00 0.  1.
     999901    1    3    3    0    0 -0.45320248399E-01  0.12146855591E+00  0.37439485959E-01  0.89028661121E+00  0.88000000000E+00 0.  1.
        -11    1    4    4    0    0  0.62300594368E-01 -0.96448193427E-01 -0.39286996197E-01  0.12135628235E+00  0.51100000000E-03 0.  1.
         11    1    4    4    0    0 -0.77339359391E-02 -0.16031712255E-01 -0.38020601637E-02  0.18208414139E-01  0.51100000000E-03 0. -1.
</event>
<event>
 8    1  0.2928569E+004  0.1043930E+01  0.7957747E-01            NaN
         13   -1    0    0    0    0  0.00000000000E+00  0.00000000000E+00  0.74505805969E-08  0.10566000000E+00  0.10566000000E+00 0.  1.
     999900   -1    0    0    0    0 -0.00000000000E+00 -0.00000000000E+00 -0.74505805969E-08  0.93827000000E+00  0.93827000000E+00 0.  1.
     999902    2    1    2    0    0 -0.79313895920E-02  0.67977991549E-03 -0.11395373745E-01  0.10300295114E+01  0.10299357119E+01 0.  0.
     999903    2    3    3    0    0  0.91518257654E-01  0.92150281713E-02 -0.96737883454E-01  0.14028436428E+00  0.43139037273E-01 0.  0.
         14    1    1    2    0    0  0.79313895920E-02 -0.67977991549E-03  0.11395373745E-01  0.13900488639E-01  0.00000000000E+00 0.  1.
     999901    1    3    3    0    0 -0.99449647246E-01 -0.85352482558E-02  0.85342509708E-01  0.88974514709E+00  0.88000000000E+00 0. -1.
        -11    1    4    4    0    0  0.49500376637E-01 -0.16405835492E-01 -0.54459774973E-01  0.75402698469E-01  0.51100000000E-03 0.  1.
         11    1    4    4    0    0  0.42017881017E-01  0.25620863663E-01 -0.42278108481E-01  0.64881665806E-01  0.51100000000E-03 0. -1.
</event>
<event>
 8    1  0.2928569E+004  0.1043930E+01  0.7957747E-01            NaN
         13   -1    0    0    0    0  0.00000000000E+00  0.00000000000E+00  0.74505805969E-08  0.10566000000E+00  0.10566000000E+00 0.  1.
     999900   -1    0    0    0    0 -0.00000000000E+00 -0.00000000000E+00 -0.74505805969E-08  0.93827000000E+00  0.93827000000E+00 0. -1.
     999902    2    1    2    0    0 -0.12875822790E-01  0.66457252584E-02  0.29368792673E-03  0.10294372870E+01  0.10293352657E+01 0.  0.
     999903    2    3    3    0    0  0.58086964799E-01  0.11872166148E+00 -0.28952778957E-03  0.13949511315E+00  0.44608008059E-01 0.  0.
         14    1    1    2    0    0  0.12875822790E-01 -0.66457252584E-02 -0.29368792673E-03  0.14492712973E-01  0.00000000000E+00 0.  1.
     999901    1    3    3    0    0 -0.70962787589E-01 -0.11207593622E+00  0.58321571630E-03  0.88994217388E+00  0.88000000000E+00 0. -1.
        -11    1    4    4    0    0  0.14126268833E-01  0.62623989286E-01  0.16470574789E-01  0.66278627476E-01  0.51100000000E-03 0.  1.
         11    1    4    4    0    0  0.43960695965E-01  0.56097672192E-01 -0.16760102578E-01  0.73216485675E-01  0.51100000000E-03 0. -1.
</event>
<event>
 8    1  0.2928569E+004  0.1043930E+01  0.7957747E-01            NaN
         13   -1    0    0    0    0  0.00000000000E+00  0.00000000000E+00  0.74505805969E-08  0.10566000000E+00  0.10566000000E+00 0. -1.
     999900   -1    0    0    0    0 -0.00000000000E+00 -0.00000000000E+00 -0.74505805969E-08  0.93827000000E+00  0.93827000000E+00 0. -1.
     999902    2    1    2    0    0 -0.31337346385E-02  0.85085751650E-02  0.16301583024E-01  0.10252763743E+01  0.10251066705E+01 0.  0.
     999903    2    3    3    0    0 -0.45028817813E-01  0.62269687599E-01  0.10527786387E+00  0.13816745549E+00  0.45844396704E-01 0.  0.
         14    1    1    2    0    0  0.31337346385E-02 -0.85085751650E-02 -0.16301583024E-01  0.18653625739E-01  0.00000000000E+00 0.  1.
     999901    1    3    3    0    0  0.41895083175E-01 -0.53761112434E-01 -0.88976280846E-01  0.88710891877E+00  0.88000000000E+00 0. -1.
        -11    1    4    4    0    0 -0.35070331092E-01  0.23344348831E-01  0.80776806810E-01  0.91104557431E-01  0.51100000000E-03 0.  1.
         11    1    4    4    0    0 -0.99584867213E-02  0.38925338768E-01  0.24501057060E-01  0.47062898062E-01  0.51100000000E-03 0. -1.
</event>
<event>
 8    1  0.2928569E+004  0.1043930E+01  0.7957747E-01            NaN
         13   -1    0    0    0    0  0.00000000000E+00  0.00000000000E+00  0.74505805969E-08  0.10566000000E+00  0.10566000000E+00 0. -1.
     999900   -1    0    0    0    0 -0.00000000000E+00 -0.00000000000E+00 -0.74505805969E-08  0.93827000000E+00  0.93827000000E+00 0. -1.
     999902    2    1    2    0    0 -0.23779479297E-02 -0.95078356738E-02  0.71505458297E-02  0.10317980636E+01  0.10317267371E+01 0.  0.
     999903    2    3    3    0    0  0.34132287084E-01  0.10905332155E+00  0.69546094880E-01  0.14090920980E+00  0.44284377940E-01 0.  0.
         14    1    1    2    0    0  0.23779479297E-02  0.95078356738E-02 -0.71505458297E-02  0.12131936417E-01  0.00000000000E+00 0.  1.
     999901    1    3    3    0    0 -0.36510235014E-01 -0.11856115722E+00 -0.62395549050E-01  0.89088885379E+00  0.88000000000E+00 0. -1.
        -11    1    4    4    0    0  0.23167214945E-01  0.83351010698E-01  0.72407399999E-01  0.11281490827E+00  0.51100000000E-03 0.  1.
         11    1    4    4    0    0  0.10965072139E-01  0.25702310851E-01 -0.28613051195E-02  0.28094301524E-01  0.51100000000E-03 0. -1.
</event>
<event>
 8    1  0.2928569E+004  0.1043930E+01  0.7957747E-01            NaN
         13   -1    0    0    0    0  0.00000000000E+00  0.00000000000E+00  0.74505805969E-08  0.10566000000E+00  0.10566000000E+00 0. -1.
     999900   -1    0    0    0    0 -0.00000000000E+00 -0.00000000000E+00 -0.74505805969E-08  0.93827000000E+00  0.93827000000E+00 0.  1.
     999902    2    1    2    0    0 -0.11536958600E-01 -0.20328632946E-02 -0.80914667451E-02  0.10296925220E+01  0.10295940870E+01 0.  0.
     999903    2    3    3    0    0 -0.99311986856E-01  0.70606755280E-01 -0.54757795515E-01  0.14112135654E+00  0.45482265527E-01 0.  0.
         14    1    1    2    0    0  0.11536958600E-01  0.20328632946E-02  0.80914667451E-02  0.14237478042E-01  0.00000000000E+00 0.  1.
     999901    1    3    3    0    0  0.87775028256E-01 -0.72639618575E-01  0.46666328770E-01  0.88857116542E+00  0.88000000000E+00 0.  1.
        -11    1    4    4    0    0 -0.49390439851E-01  0.34715791178E-01 -0.24945628425E-02  0.60424214273E-01  0.51100000000E-03 0. -1.
         11    1    4    4    0    0 -0.49921547005E-01  0.35890964102E-01 -0.52263232673E-01  0.80697142266E-01  0.51100000000E-03 0.  1.
</event>
<event>
 8    1  0.2928569E+004  0.1043930E+01  0.7957747E-01            NaN
         13   -1    0    0    0    0  0.00000000000E+00  0.00000000000E+00  0.74505805969E-08  0.10566000000E+00  0.10566000000E+00 0.  1.
     999900   -1    0    0    0    0 -0.00000000000E+00 -0.00000000000E+00 -0.74505805969E-08  0.93827000000E+00  0.93827000000E+00 0.  1.
     999902    2    1    2    0    0  0.68825567729E-02 -0.64761858827E-02 -0.10540770544E-01  0.10297730789E+01  0.10296757624E+01 0.  0.
     999903    2    3    3    0    0 -0.97466791140E-01 -0.72049183431E-01  0.51814829112E-01  0.13899991741E+00  0.44106012258E-01 0.  0.
         14    1    1    2    0    0 -0.68825567729E-02  0.64761858827E-02  0.10540770544E-01  0.14156921098E-01  0.00000000000E+00 0.  1.
     999901    1    3    3    0    0  0.10434934791E+00  0.65572997548E-01 -0.62355599656E-01  0.89077316149E+00  0.88000000000E+00 0.  1.
        -11    1    4    4    0    0 -0.78407688511E-01 -0.36858489458E-01  0.47330941020E-01  0.98725847485E-01  0.51100000000E-03 0.  1.
         11    1    4    4    0    0 -0.19059102629E-01 -0.35190693973E-01  0.44838880922E-02  0.40274069930E-01  0.51100000000E-03 0. -1.
</event>
<event>
 8    1  0.2928569E+004  0.1043930E+01  0.7957747E-01            NaN
         13   -1    0    0    0    0  0.00000000000E+00  0.00000000000E+00  0.74505805969E-08  0.10566000000E+00  0.10566000000E+00 0.  1.
     999900   -1    0    0    0    0 -0.00000000000E+00 -0.00000000000E+00 -0.74505805969E-08  0.93827000000E+00  0.93827000000E+00 0. -1.
     999902    2    1    2    0    0  0.10550605851E-01  0.41670809711E-02  0.17948048697E-02  0.10324451764E+01  0.10323812964E+01 0.  0.
     999903    2    3    3    0    0 -0.13268173954E+00 -0.26339515846E-02  0.13417249632E-01  0.14076314789E+00  0.44976210466E-01 0.  0.
         14    1    1    2    0    0 -0.10550605851E-01 -0.41670809711E-02 -0.17948048697E-02  0.11484823558E-01  0.00000000000E+00 0.  1.
     999901    1    3    3    0    0  0.14323234540E+00  0.68010325557E-02 -0.11622444763E-01  0.89168202855E+00  0.88000000000E+00 0.  1.
        -11    1    4    4    0    0 -0.75769443168E-01 -0.23599495612E-01  0.48695458105E-02  0.79510491815E-01  0.51100000000E-03 0.  1.
         11    1    4    4    0    0 -0.56912296376E-01  0.20965544028E-01  0.85477038220E-02  0.61252656080E-01  0.51100000000E-03 0. -1.
</event>
<event>
 8    1  0.2928569E+004  0.1043930E+01  0.7957747E-01            NaN
         13   -1    0    0    0    0  0.00000000000E+00  0.00000000000E+00  0.74505805969E-08  0.10566000000E+00  0.10566000000E+00 0.  1.
     999900   -1    0    0    0    0 -0.00000000000E+00 -0.00000000000E+00 -0.74505805969E-08  0.93827000000E+00  0.93827000000E+00 0.  1.
     999902    2    1    2    0    0 -0.14818905853E-02 -0.23207955528E-02  0.16812842178E-01  0.10268931648E+01  0.10267518289E+01 0.  0.
     999903    2    3    3    0    0  0.79291883576E-01  0.20315584393E-01  0.10270529789E+00  0.13874096937E+00  0.44729773060E-01 0.  0.
         14    1    1    2    0    0  0.14818905853E-02  0.23207955528E-02 -0.16812842178E-01  0.17036835205E-01  0.00000000000E+00 0. -1.
     999901    1    3    3    0    0 -0.80773774161E-01 -0.22636379946E-01 -0.85892455708E-01  0.88815219542E+00  0.88000000000E+00 0.  1.
        -11    1    4    4    0    0  0.60243455476E-01  0.33760261795E-01  0.67929721312E-01  0.96869692695E-01  0.51100000000E-03 0. -1.
         11    1    4    4    0    0  0.19048428099E-01 -0.13444677402E-01  0.34775576573E-01  0.41871276676E-01  0.51100000000E-03 0.  1.
</event>
<event>
 8    1  0.2928569E+004  0.1043930E+01  0.7957747E-01            NaN
         13   -1    0    0    0    0  0.00000000000E+00  0.00000000000E+00  0.74505805969E-08  0.10566000000E+00  0.10566000000E+00 0.  1.
     999900   -1    0    0    0    0 -0.00000000000E+00 -0.00000000000E+00 -0.74505805969E-08  0.93827000000E+00  0.93827000000E+00 0.  1.
     999902    2    1    2    0    0  0.18761726739E-02 -0.13834163882E-02  0.13101815060E-01  0.10306224299E+01  0.10305365115E+01 0.  0.
     999903    2    3    3    0    0  0.60016904578E-01  0.10573501304E+00  0.55693759123E-01  0.14120195770E+00  0.45324124203E-01 0.  0.
         14    1    1    2    0    0 -0.18761726739E-02  0.13834163882E-02 -0.13101815060E-01  0.13307570127E-01  0.00000000000E+00 0. -1.
     999901    1    3    3    0    0 -0.58140731904E-01 -0.10711842943E+00 -0.42591944063E-01  0.88942047218E+00  0.88000000000E+00 0.  1.
        -11    1    4    4    0    0  0.64315292454E-01  0.88812676762E-01  0.57185285127E-01  0.12367120260E+00  0.51100000000E-03 0. -1.
         11    1    4    4    0    0 -0.42983878761E-02  0.16922336275E-01 -0.14915260032E-02  0.17530755094E-01  0.51100000000E-03 0.  1.
</event>
<event>
 8    1  0.2928569E+004  0.1043930E+01  0.7957747E-01            NaN
         13   -1    0    0    0    0  0.00000000000E+00  0.00000000000E+00  0.74505805969E-08  0.10566000000E+00  0.10566000000E+00 0.  1.
     999900   -1    0    0    0    0 -0.00000000000E+00 -0.00000000000E+00 -0.74505805969E-08  0.93827000000E+00  0.93827000000E+00 0.  1.
     999902    2    1    2    0    0 -0.14157852304E-01 -0.10076911933E-02  0.23949844802E-02  0.10295356895E+01  0.10294350586E+01 0.  0.
     999903    2    3    3    0    0  0.50236544171E-01  0.12098537545E+00 -0.18616531418E-02  0.13877923259E+00  0.45771587276E-01 0.  0.
         14    1    1    2    0    0  0.14157852304E-01  0.10076911933E-02 -0.23949844802E-02  0.14394310475E-01  0.00000000000E+00 0.  1.
     999901    1    3    3    0    0 -0.64394396475E-01 -0.12199306665E+00  0.42566376220E-02  0.89075645693E+00  0.88000000000E+00 0.  1.
        -11    1    4    4    0    0  0.42836198477E-01  0.44297719302E-01  0.17556506407E-02  0.61648773431E-01  0.51100000000E-03 0.  1.
         11    1    4    4    0    0  0.74003456944E-02  0.76687656152E-01 -0.36173037824E-02  0.77130459159E-01  0.51100000000E-03 0. -1.
</event>
<event>
 8    1  0.2928569E+004  0.1043930E+01  0.7957747E-01            NaN
         13   -1    0    0    0    0  0.00000000000E+00  0.00000000000E+00  0.74505805969E-08  0.10566000000E+00  0.10566000000E+00 0.  1.
     999900   -1    0    0    0    0 -0.00000000000E+00 -0.00000000000E+00 -0.74505805969E-08  0.93827000000E+00  0.93827000000E+00 0. -1.
     999902    2    1    2    0    0 -0.89745554838E-02  0.35432785813E-02 -0.99852558736E-02  0.10300446551E+01  0.10299510613E+01 0.  0.
     999903    2    3    3    0    0  0.40859777736E-01 -0.46988924133E-01  0.11539524505E+00  0.13832876180E+00  0.44060223945E-01 0.  0.
         14    1    1    2    0    0  0.89745554838E-02 -0.35432785813E-02  0.99852558736E-02  0.13885344940E-01  0.00000000000E+00 0.  1.
     999901    1    3    3    0    0 -0.49834333220E-01  0.50532202714E-01 -0.12538050092E+00  0.89171589326E+00  0.88000000000E+00 0. -1.
        -11    1    4    4    0    0  0.30368532713E-01 -0.51037903472E-01  0.71183251456E-01  0.92706158257E-01  0.51100000000E-03 0. -1.
         11    1    4    4    0    0  0.10491245023E-01  0.40489793389E-02  0.44211993592E-01  0.45622603544E-01  0.51100000000E-03 0.  1.
</event>
<event>
 8    1  0.2928569E+004  0.1043930E+01  0.7957747E-01            NaN
         13   -1    0    0    0    0  0.00000000000E+00  0.00000000000E+00  0.74505805969E-08  0.10566000000E+00  0.10566000000E+00 0.  1.
     999900   -1    0    0    0    0 -0.00000000000E+00 -0.00000000000E+00 -0.74505805969E-08  0.93827000000E+00  0.93827000000E+00 0.  1.
     999902    2    1    2    0    0  0.69094893159E-02  0.95919587348E-02 -0.70216556548E-02  0.10301804413E+01  0.10300886813E+01 0.  0.
     999903    2    3    3    0    0  0.47521310994E-01  0.11823125755E+00 -0.44164069598E-01  0.14179348950E+00  0.43795243589E-01 0.  0.
         14    1    1    2    0    0 -0.69094893159E-02 -0.95919587348E-02  0.70216556548E-02  0.13749558652E-01  0.00000000000E+00 0.  1.
     999901    1    3    3    0    0 -0.40611821678E-01 -0.10863929881E+00  0.37142413943E-01  0.88838695185E+00  0.88000000000E+00 0. -1.
        -11    1    4    4    0    0  0.42251657073E-01  0.10347676682E+00 -0.20850319237E-01  0.11369978334E+00  0.51100000000E-03 0.  1.
         11    1    4    4    0    0  0.52696539216E-02  0.14754490721E-01 -0.23313750361E-01  0.28093706160E-01  0.51100000000E-03 0. -1.
</event>
<event>
 8    1  0.2928569E+004  0.1043930E+01  0.7957747E-01            NaN
         13   -1    0    0    0    0  0.00000000000E+00  0.00000000000E+00  0.74505805969E-08  0.10566000000E+00  0.10566000000E+00 0. -1.
     999900   -1    0    0    0    0 -0.00000000000E+00 -0.00000000000E+00 -0.74505805969E-08  0.93827000000E+00  0.93827000000E+00 0. -1.
     999902    2    1    2    0    0 -0.91570552744E-02  0.20342939796E-01 -0.60750179071E-02  0.10208087391E+01  0.10205468579E+01 0.  0.
     999903    2    3    3    0    0 -0.61345633145E-01  0.99193335968E-01  0.48740976018E-01  0.13404731361E+00  0.44613842421E-01 0.  0.
         14    1    1    2    0    0  0.91570552744E-02 -0.20342939796E-01  0.60750179071E-02  0.23121260852E-01  0.00000000000E+00 0.  1.
     999901    1    3    3    0    0  0.52188577871E-01 -0.78850396172E-01 -0.54815993925E-01  0.88676142554E+00  0.88000000000E+00 0.  1.
        -11    1    4    4    0    0 -0.36164656907E-01  0.21010931986E-01  0.89385924199E-02  0.42772669166E-01  0.51100000000E-03 0.  1.
         11    1    4    4    0    0 -0.25180976238E-01  0.78182403982E-01  0.39802383598E-01  0.91274644441E-01  0.51100000000E-03 0. -1.
</event>
<event>
 8    1  0.2928569E+004  0.1043930E+01  0.7957747E-01            NaN
         13   -1    0    0    0    0  0.00000000000E+00  0.00000000000E+00  0.74505805969E-08  0.10566000000E+00  0.10566000000E+00 0.  1.
     999900   -1    0    0    0    0 -0.00000000000E+00 -0.00000000000E+00 -0.74505805969E-08  0.93827000000E+00  0.93827000000E+00 0. -1.
     999902    2    1    2    0    0 -0.99427761532E-02  0.88057713268E-02 -0.54090472444E-02  0.10295892121E+01  0.10294893333E+01 0.  0.
     999903    2    3    3    0    0  0.40709215962E-01 -0.12560781139E+00 -0.41054405040E-03  0.13792917565E+00  0.39871373225E-01 0.  0.
         14    1    1    2    0    0  0.99427761532E-02 -0.88057713268E-02  0.54090472444E-02  0.14340787928E-01  0.00000000000E+00 0. -1.
     999901    1    3    3    0    0 -0.50651992115E-01  0.13441358271E+00 -0.49985031940E-02  0.89166003642E+00  0.88000000000E+00 0.  1.
        -11    1    4    4    0    0  0.21932284647E-02 -0.70988954853E-01  0.19617538743E-02  0.71051752698E-01  0.51100000000E-03 0. -1.
         11    1    4    4    0    0  0.38515987497E-01 -0.54618856533E-01 -0.23722979247E-02  0.66877422949E-01  0.51100000000E-03 0.  1.
</event>
<event>
 8    1  0.2928569E+004  0.1043930E+01  0.7957747E-01            NaN
         13   -1    0    0    0    0  0.00000000000E+00  0.00000000000E+00  0.74505805969E-08  0.10566000000E+00  0.10566000000E+00 0. -1.
     999900   -1    0    0    0    0 -0.00000000000E+00 -0.00000000000E+00 -0.74505805969E-08  0.93827000000E+00  0.93827000000E+00 0.  1.
     999902    2    1    2    0    0 -0.13028238221E-01 -0.20223382641E-02  0.15019165693E-03  0.10307448796E+01  0.10306605452E+01 0.  0.
     999903    2    3    3    0    0 -0.51186537233E-01 -0.11139370420E+00 -0.57030777123E-01  0.14131370480E+00  0.41090566971E-01 0.  0.
         14    1    1    2    0    0  0.13028238221E-01  0.20223382641E-02 -0.15019165693E-03  0.13185120429E-01  0.00000000000E+00 0. -1.
     999901    1    3    3    0    0  0.38158299012E-01  0.10937136594E+00  0.57180968780E-01  0.88943117477E+00  0.88000000000E+00 0. -1.
        -11    1    4    4    0    0 -0.40599555794E-01 -0.87670119087E-01 -0.24489491699E-01  0.99671309994E-01  0.51100000000E-03 0. -1.
         11    1    4    4    0    0 -0.10586981439E-01 -0.23723585116E-01 -0.32541285424E-01  0.41642394802E-01  0.51100000000E-03 0.  1.
</event>
<event>
 8    1  0.2928569E+004  0.1043930E+01  0.7957747E-01            NaN
         13   -1    0    0    0    0  0.00000000000E+00  0.00000000000E+00  0.74505805969E-08  0.10566000000E+00  0.10566000000E+00 0.  1.
     999900   -1    0    0    0    0 -0.00000000000E+00 -0.00000000000E+00 -0.74505805969E-08  0.93827000000E+00  0.93827000000E+00 0. -1.
     999902    2    1    2    0    0 -0.83579452997E-02  0.12779726604E-01  0.92796971462E-02  0.10260613279E+01  0.10259057263E+01 0.  0.
     999903    2    3    3    0    0  0.33974378611E-01  0.10650114240E+00 -0.65105886185E-01  0.13695562870E+00  0.44959048952E-01 0.  0.
         14    1    1    2    0    0  0.83579452997E-02 -0.12779726604E-01 -0.92796971462E-02  0.17868672050E-01  0.00000000000E+00 0. -1.
     999901    1    3    3    0    0 -0.42332323911E-01 -0.93721415796E-01  0.74385583331E-01  0.88910569925E+00  0.88000000000E+00 0. -1.
        -11    1    4    4    0    0  0.20540876230E-01  0.83694189906E-01 -0.68735712290E-01  0.11023386179E+00  0.51100000000E-03 0. -1.
         11    1    4    4    0    0  0.13433502381E-01  0.22806952494E-01  0.36298261052E-02  0.26721766911E-01  0.51100000000E-03 0.  1.
</event>
<event>
 8    1  0.2928569E+004  0.1043930E+01  0.7957747E-01            NaN
         13   -1    0    0    0    0  0.00000000000E+00  0.00000000000E+00  0.74505805969E-08  0.10566000000E+00  0.10566000000E+00 0. -1.
     999900   -1    0    0    0    0 -0.00000000000E+00 -0.00000000000E+00 -0.74505805969E-08  0.93827000000E+00  0.93827000000E+00 0. -1.
     999902    2    1    2    0    0  0.10271075428E-01  0.84165530925E-02  0.18013804668E-01  0.10215507571E+01  0.10213055952E+01 0.  0.
     999903    2    3    3    0    0 -0.10802966594E+00 -0.57582253876E-01 -0.26115525942E-01  0.13009222983E+00  0.35437873553E-01 0.  0.
         14    1    1    2    0    0 -0.10271075428E-01 -0.84165530925E-02 -0.18013804668E-01  0.22379242950E-01  0.00000000000E+00 0.  1.
     999901    1    3    3    0    0  0.11830074137E+00  0.65998806969E-01  0.44129330610E-01  0.89145852722E+00  0.88000000000E+00 0.  1.
        -11    1    4    4    0    0 -0.50063013798E-01 -0.46646774263E-01 -0.12767601839E-01  0.69609623454E-01  0.51100000000E-03 0.  1.
         11    1    4    4    0    0 -0.57966652146E-01 -0.10935479613E-01 -0.13347924103E-01  0.60482606378E-01  0.51100000000E-03 0. -1.
</event>
<event>
 8    1  0.2928569E+004  0.1043930E+01  0.7957747E-01            NaN
         13   -1    0    0    0    0  0.00000000000E+00  0.00000000000E+00  0.74505805969E-08  0.10566000000E+00  0.10566000000E+00 0.  1.
     999900   -1    0    0    0    0 -0.00000000000E+00 -0.00000000000E+00 -0.74505805969E-08  0.93827000000E+00  0.93827000000E+00 0.  1.
     999902    2    1    2    0    0  0.69926199686E-02  0.11004653331E-01  0.49608696557E-02  0.10299797542E+01  0.10298852775E+01 0.  0.
     999903    2    3    3    0    0  0.10802896007E-01  0.63543718521E-01  0.11750581630E+00  0.14124962839E+00  0.44601949851E-01 0.  0.
         14    1    1    2    0    0 -0.69926199686E-02 -0.11004653331E-01 -0.49608696557E-02  0.13950245758E-01  0.00000000000E+00 0.  1.
     999901    1    3    3    0    0 -0.38102760389E-02 -0.52539065190E-01 -0.11254494665E+00  0.88873012585E+00  0.88000000000E+00 0.  1.
        -11    1    4    4    0    0 -0.14868750908E-01  0.89196249273E-02  0.34541882208E-01  0.38652842196E-01  0.51100000000E-03 0. -1.
         11    1    4    4    0    0  0.25671646916E-01  0.54624093594E-01  0.82963934096E-01  0.10259678620E+00  0.51100000000E-03 0.  1.
</event>
<event>
 8    1  0.2928569E+004  0.1043930E+01  0.7957747E-01            NaN
         13   -1    0    0    0    0  0.00000000000E+00  0.00000000000E+00  0.74505805969E-08  0.10566000000E+00  0.10566000000E+00 0. -1.
     999900   -1    0    0    0    0 -0.00000000000E+00 -0.00000000000E+00 -0.74505805969E-08  0.93827000000E+00  0.93827000000E+00 0. -1.
     999902    2    1    2    0    0  0.90280498337E-02 -0.54611839608E-02  0.89837631370E-02  0.10300722147E+01  0.10299789946E+01 0.  0.
     999903    2    3    3    0    0 -0.18218165607E-01  0.54072739191E-01  0.12024897616E+00  0.14065297051E+00  0.45471740265E-01 0.  0.
         14    1    1    2    0    0 -0.90280498337E-02  0.54611839608E-02 -0.89837631370E-02  0.13857785326E-01  0.00000000000E+00 0. -1.
     999901    1    3    3    0    0  0.27246215441E-01 -0.59533923152E-01 -0.11126521303E+00  0.88941924417E+00  0.88000000000E+00 0. -1.
        -11    1    4    4    0    0 -0.24872737924E-01  0.38448468253E-01  0.47635381664E-01  0.66078199961E-01  0.51100000000E-03 0. -1.
         11    1    4    4    0    0  0.66545723162E-02  0.15624270939E-01  0.72613594499E-01  0.74574770547E-01  0.51100000000E-03 0.  1.
</event>
<event>
 8    1  0.2928569E+004  0.1043930E+01  0.7957747E-01            NaN
         13   -1    0    0    0    0  0.00000000000E+00  0.00000000000E+00  0.74505805969E-08  0.10566000000E+00  0.10566000000E+00 0. -1.
     999900   -1    0    0    0    0 -0.00000000000E+00 -0.00000000000E+00 -0.74505805969E-08  0.93827000000E+00  0.93827000000E+00 0.  1.
     999902    2    1    2    0    0  0.26748957394E-02  0.12836860896E-01 -0.51929994133E-02  0.10298265498E+01  0.10297299721E+01 0.  0.
     999903    2    3    3    0    0 -0.10712599077E+00  0.68550517977E-01  0.38595487977E-01  0.14017623765E+00  0.44549012282E-01 0.  0.
         14    1    1    2    0    0 -0.26748957394E-02 -0.12836860896E-01  0.51929994133E-02  0.14103450209E-01  0.00000000000E+00 0.  1.
     999901    1    3    3    0    0  0.10980088651E+00 -0.55713657081E-01 -0.43788487390E-01  0.88965031214E+00  0.88000000000E+00 0.  1.
        -11    1    4    4    0    0 -0.63423449085E-01  0.59238575615E-01  0.10569568814E-01  0.87428368627E-01  0.51100000000E-03 0. -1.
         11    1    4    4    0    0 -0.43702541689E-01  0.93119423618E-02  0.28025919163E-01  0.52747869024E-01  0.51100000000E-03 0.  1.
</event>
<event>
 8    1  0.2928569E+004  0.1043930E+01  0.7957747E-01            NaN
         13   -1    0    0    0    0  0.00000000000E+00  0.00000000000E+00  0.74505805969E-08  0.10566000000E+00  0.10566000000E+00 0. -1.
     999900   -1    0    0    0    0 -0.00000000000E+00 -0.00000000000E+00 -0.74505805969E-08  0.93827000000E+00  0.93827000000E+00 0.  1.
     999902    2    1    2    0    0  0.12121812329E-01 -0.82505322238E-02  0.12180475229E-02  0.10292162902E+01  0.10291111110E+01 0.  0.
     999903    2    3    3    0    0  0.94797322383E-01  0.27597125291E-01  0.89057112799E-01  0.14026410032E+00  0.44662230619E-01 0.  0.
         14    1    1    2    0    0 -0.12121812329E-01  0.82505322238E-02 -0.12180475229E-02  0.14713709793E-01  0.00000000000E+00 0.  1.
     999901    1    3    3    0    0 -0.82675510054E-01 -0.35847657515E-01 -0.87839065276E-01  0.88895218988E+00  0.88000000000E+00 0.  1.
        -11    1    4    4    0    0  0.13394698278E-01 -0.11708357395E-01  0.17657002358E-01  0.25070588907E-01  0.51100000000E-03 0. -1.
         11    1    4    4    0    0  0.81402624105E-01  0.39305482686E-01  0.71400110440E-01  0.11519351142E+00  0.51100000000E-03 0.  1.
</event>
<event>
 8    1  0.2928569E+004  0.1043930E+01  0.7957747E-01            NaN
         13   -1    0    0    0    0  0.00000000000E+00  0.00000000000E+00  0.74505805969E-08  0.10566000000E+00  0.10566000000E+00 0. -1.
     999900   -1    0    0    0    0 -0.00000000000E+00 -0.00000000000E+00 -0.74505805969E-08  0.93827000000E+00  0.93827000000E+00 0.  1.
     999902    2    1    2    0    0  0.12761685745E-01 -0.36259074866E-02  0.13394191688E-02  0.10305957632E+01  0.10305094979E+01 0.  0.
     999903    2    3    3    0    0  0.19801416348E-01 -0.11992938603E+00 -0.55707788161E-01  0.14108441372E+00  0.45014446705E-01 0.  0.
         14    1    1    2    0    0 -0.12761685745E-01  0.36259074866E-02 -0.13394191688E-02  0.13334236831E-01  0.00000000000E+00 0.  1.
     999901    1    3    3    0    0 -0.70397306036E-02  0.11630347854E+00  0.57047207329E-01  0.88951134945E+00  0.88000000000E+00 0. -1.
        -11    1    4    4    0    0  0.32042843275E-01 -0.56014219735E-01 -0.26961045380E-01  0.69939228667E-01  0.51100000000E-03 0.  1.
         11    1    4    4    0    0 -0.12241426926E-01 -0.63915166292E-01 -0.28746742781E-01  0.71145185057E-01  0.51100000000E-03 0. -1.
</event>
<event>
 8    1  0.2928569E+004  0.1043930E+01  0.7957747E-01            NaN
         13   -1    0    0    0    0  0.00000000000E+00  0.00000000000E+00  0.74505805969E-08  0.10566000000E+00  0.10566000000E+00 0. -1.
     999900   -1    0    0    0    0 -0.00000000000E+00 -0.00000000000E+00 -0.74505805969E-08  0.93827000000E+00  0.93827000000E+00 0.  1.
     999902    2    1    2    0    0 -0.11176386963E-01 -0.11676932738E-02 -0.81359403017E-02  0.10300566926E+01  0.10299632621E+01 0.  0.
     999903    2    3    3    0    0  0.95654562859E-01  0.81154757707E-01 -0.40646389919E-01  0.13918814614E+00  0.44556940169E-01 0.  0.
         14    1    1    2    0    0  0.11176386963E-01  0.11676932738E-02  0.81359403017E-02  0.13873307383E-01  0.00000000000E+00 0. -1.
     999901    1    3    3    0    0 -0.10683094982E+00 -0.82322450981E-01  0.32510449617E-01  0.89086854648E+00  0.88000000000E+00 0. -1.
        -11    1    4    4    0    0  0.69636559153E-01  0.70965813677E-01 -0.13699229201E-01  0.10036596576E+00  0.51100000000E-03 0.  1.
         11    1    4    4    0    0  0.26018003706E-01  0.10188944030E-01 -0.26947160718E-01  0.38822180375E-01  0.51100000000E-03 0. -1.
</event>
<event>
 8    1  0.2928569E+004  0.1043930E+01  0.7957747E-01            NaN
         13   -1    0    0    0    0  0.00000000000E+00  0.00000000000E+00  0.74505805969E-08  0.10566000000E+00  0.10566000000E+00 0.  1.
     999900   -1    0    0    0    0 -0.00000000000E+00 -0.00000000000E+00 -0.74505805969E-08  0.93827000000E+00  0.93827000000E+00 0. -1.
     999902    2    1    2    0    0 -0.61761617542E-02 -0.74930770599E-03 -0.12522771818E-01  0.10299469299E+01  0.10298520050E+01 0.  0.
     999903    2    3    3    0    0 -0.34102063709E-01 -0.12832033837E+00  0.17029314688E-01  0.13981910216E+00  0.40377268106E-01 0.  0.
         14    1    1    2    0    0  0.61761617542E-02  0.74930770599E-03  0.12522771818E-01  0.13983070122E-01  0.00000000000E+00 0.  1.
     999901    1    3    3    0    0  0.27925901955E-01  0.12757103067E+00 -0.29552086506E-01  0.89012782772E+00  0.88000000000E+00 0.  1.
        -11    1    4    4    0    0 -0.29253062838E-01 -0.11053347018E+00  0.28836551860E-01  0.11792030173E+00  0.51100000000E-03 0.  1.
         11    1    4    4    0    0 -0.48490008712E-02 -0.17786868191E-01 -0.11807237172E-01  0.21898800427E-01  0.51100000000E-03 0. -1.
</event>
<event>
 8    1  0.2928569E+004  0.1043930E+01  0.7957747E-01            NaN
         13   -1    0    0    0    0  0.00000000000E+00  0.00000000000E+00  0.74505805969E-08  0.10566000000E+00  0.10566000000E+00 0.  1.
     999900   -1    0    0    0    0 -0.00000000000E+00 -0.00000000000E+00 -0.74505805969E-08  0.93827000000E+00  0.93827000000E+00 0. -1.
     999902    2    1    2    0    0 -0.12465373696E-01  0.14199054347E-02  0.68437176652E-02  0.10296388089E+01  0.10295396246E+01 0.  0.
     999903    2    3    3    0    0  0.60303456706E-01 -0.10632303686E+00 -0.47057824287E-01  0.13845464129E+00  0.44879324975E-01 0.  0.
         14    1    1    2    0    0  0.12465373696E-01 -0.14199054347E-02 -0.68437176652E-02  0.14291191144E-01  0.00000000000E+00 0. -1.
     999901    1    3    3    0    0 -0.72768830403E-01  0.10774294230E+00  0.53901541953E-01  0.89118416756E+00  0.88000000000E+00 0.  1.
        -11    1    4    4    0    0  0.39257049616E-01 -0.65923279222E-01 -0.57238871701E-02  0.76941657724E-01  0.51100000000E-03 0. -1.
         11    1    4    4    0    0  0.21046407091E-01 -0.40399757640E-01 -0.41333937117E-01  0.61512983568E-01  0.51100000000E-03 0.  1.
</event>
<event>
 8    1  0.2928569E+004  0.1043930E+01  0.7957747E-01            NaN
         13   -1    0    0    0    0  0.00000000000E+00  0.00000000000E+00  0.74505805969E-08  0.10566000000E+00  0.10566000000E+00 0. -1.
     999900   -1    0    0    0    0 -0.00000000000E+00 -0.00000000000E+00 -0.74505805969E-08  0.93827000000E+00  0.93827000000E+00 0.  1.
     999902    2    1    2    0    0 -0.54373110715E-02 -0.98892970166E-02 -0.76297763877E-02  0.10303073705E+01  0.10302173080E+01 0.  0.
     999903    2    3    3    0    0 -0.10608313462E+00 -0.81608750930E-01  0.13728726096E-01  0.14141511183E+00  0.43544646679E-01 0.  0.
         14    1    1    2    0    0  0.54373110715E-02  0.98892970166E-02  0.76297763877E-02  0.13622629515E-01  0.00000000000E+00 0. -1.
     999901    1    3    3    0    0  0.10064582355E+00  0.71719453914E-01 -0.21358502484E-01  0.88889225865E+00  0.88000000000E+00 0.  1.
        -11    1    4    4    0    0 -0.49266339362E-01 -0.51693160886E-01 -0.11674355503E-01  0.72359565877E-01  0.51100000000E-03 0. -1.
         11    1    4    4    0    0 -0.56816795259E-01 -0.29915590044E-01  0.25403081599E-01  0.69055545953E-01  0.51100000000E-03 0.  1.
</event>
<event>
 8    1  0.2928569E+004  0.1043930E+01  0.7957747E-01            NaN
         13   -1    0    0    0    0  0.00000000000E+00  0.00000000000E+00  0.74505805969E-08  0.10566000000E+00  0.10566000000E+00 0.  1.
     999900   -1    0    0    0    0 -0.00000000000E+00 -0.00000000000E+00 -0.74505805969E-08  0.93827000000E+00  0.93827000000E+00 0.  1.
     999902    2    1    2    0    0  0.39457532136E-02  0.13138912243E-01  0.17893607659E-02  0.10300951962E+01  0.10300022871E+01 0.  0.
     999903    2    3    3    0    0  0.24411469333E-01 -0.11352927086E+00 -0.60922598580E-01  0.13858161586E+00  0.44816136142E-01 0.  0.
         14    1    1    2    0    0 -0.39457532136E-02 -0.13138912243E-01 -0.17893607659E-02  0.13834803768E-01  0.00000000000E+00 0.  1.
     999901    1    3    3    0    0 -0.20465716119E-01  0.12666818310E+00  0.62711959346E-01  0.89151358037E+00  0.88000000000E+00 0. -1.
        -11    1    4    4    0    0  0.19751890497E-01 -0.26893027265E-01 -0.14698894214E-02  0.33403499661E-01  0.51100000000E-03 0. -1.
         11    1    4    4    0    0  0.46595788355E-02 -0.86636243596E-01 -0.59452709159E-01  0.10517811620E+00  0.51100000000E-03 0.  1.
</event>
<event>
 8    1  0.2928569E+004  0.1043930E+01  0.7957747E-01            NaN
         13   -1    0    0    0    0  0.00000000000E+00  0.00000000000E+00  0.74505805969E-08  0.10566000000E+00  0.10566000000E+00 0.  1.
     999900   -1    0    0    0    0 -0.00000000000E+00 -0.00000000000E+00 -0.74505805969E-08  0.93827000000E+00  0.93827000000E+00 0.  1.
     999902    2    1    2    0    0 -0.52157159325E-02 -0.14419337435E-02 -0.13741154706E-01  0.10291617165E+01  0.10290557499E+01 0.  0.
     999903    2    3    3    0    0  0.65223985897E-01 -0.20742301522E-04  0.11226406548E+00  0.13739880690E+00  0.44956011531E-01 0.  0.
         14    1    1    2    0    0  0.52157159325E-02  0.14419337435E-02  0.13741154706E-01  0.14768283525E-01  0.00000000000E+00 0.  1.
     999901    1    3    3    0    0 -0.70439701830E-01 -0.14211914420E-02 -0.12600522019E+00  0.89176290957E+00  0.88000000000E+00 0.  1.
        -11    1    4    4    0    0  0.27223086895E-01  0.10930922366E-01  0.83470854022E-01  0.88477263271E-01  0.51100000000E-03 0. -1.
         11    1    4    4    0    0  0.38000899002E-01 -0.10951664667E-01  0.28793211459E-01  0.48921543629E-01  0.51100000000E-03 0.  1.
</event>
<event>
 8    1  0.2928569E+004  0.1043930E+01  0.7957747E-01            NaN
         13   -1    0    0    0    0  0.00000000000E+00  0.00000000000E+00  0.74505805969E-08  0.10566000000E+00  0.10566000000E+00 0. -1.
     999900   -1    0    0    0    0 -0.00000000000E+00 -0.00000000000E+00 -0.74505805969E-08  0.93827000000E+00  0.93827000000E+00 0. -1.
     999902    2    1    2    0    0  0.54252888348E-02 -0.67829819615E-02  0.10431037060E-01  0.10303561598E+01  0.10302667455E+01 0.  0.
     999903    2    3    3    0    0  0.86835305203E-02  0.12586245898E+00  0.32597409523E-01  0.14013327918E+00  0.51555625706E-01 0.  0.
         14    1    1    2    0    0 -0.54252888348E-02  0.67829819615E-02 -0.10431037060E-01  0.13573840186E-01  0.00000000000E+00 0.  1.
     999901    1    3    3    0    0 -0.32582416855E-02 -0.13264544094E+00 -0.22166372462E-01  0.89022288064E+00  0.88000000000E+00 0. -1.
        -11    1    4    4    0    0 -0.16275312061E-01  0.68821672527E-01  0.32588215353E-01  0.77868872427E-01  0.51100000000E-03 0.  1.
         11    1    4    4    0    0  0.24958842581E-01  0.57040786455E-01  0.91941692642E-05  0.62264406750E-01  0.51100000000E-03 0. -1.
</event>
<event>
 8    1  0.2928569E+004  0.1043930E+01  0.7957747E-01            NaN
         13   -1    0    0    0    0  0.00000000000E+00  0.00000000000E+00  0.74505805969E-08  0.10566000000E+00  0.10566000000E+00 0. -1.
     999900   -1    0    0    0    0 -0.00000000000E+00 -0.00000000000E+00 -0.74505805969E-08  0.93827000000E+00  0.93827000000E+00 0. -1.
     999902    2    1    2    0    0  0.69501233694E-02  0.60142384027E-02  0.61100939498E-02  0.10328933100E+01  0.10328343436E+01 0.  0.
     999903    2    3    3    0    0  0.54403199857E-02  0.13090127153E+00 -0.35963963199E-01  0.14307912891E+00  0.44871934581E-01 0.  0.
         14    1    1    2    0    0 -0.69501233694E-02 -0.60142384027E-02 -0.61100939498E-02  0.11036690015E-01  0.00000000000E+00 0.  1.
     999901    1    3    3    0    0  0.15098033836E-02 -0.12488703312E+00  0.42074057149E-01  0.88981418107E+00  0.88000000000E+00 0.  1.
        -11    1    4    4    0    0 -0.39008243587E-02  0.10824984952E+00 -0.12309791671E-01  0.10901852339E+00  0.51100000000E-03 0.  1.
         11    1    4    4    0    0  0.93411443445E-02  0.22651422012E-01 -0.23654171528E-01  0.34060605522E-01  0.51100000000E-03 0. -1.
</event>
<event>
 8    1  0.2928569E+004  0.1043930E+01  0.7957747E-01            NaN
         13   -1    0    0    0    0  0.00000000000E+00  0.00000000000E+00  0.74505805969E-08  0.10566000000E+00  0.10566000000E+00 0. -1.
     999900   -1    0    0    0    0 -0.00000000000E+00 -0.00000000000E+00 -0.74505805969E-08  0.93827000000E+00  0.93827000000E+00 0.  1.
     999902    2    1    2    0    0 -0.47691129826E-02 -0.12012121622E-03 -0.12742447359E-01  0.10303237943E+01  0.10302339503E+01 0.  0.
     999903    2    3    3    0    0 -0.78282482868E-01  0.96622553971E-01 -0.49710248477E-01  0.14120626607E+00  0.44766457472E-01 0.  0.
         14    1    1    2    0    0  0.47691129826E-02  0.12012121622E-03  0.12742447359E-01  0.13606205659E-01  0.00000000000E+00 0. -1.
     999901    1    3    3    0    0  0.73513369886E-01 -0.96742675187E-01  0.36967801119E-01  0.88911752827E+00  0.88000000000E+00 0. -1.
        -11    1    4    4    0    0 -0.50581236149E-02  0.15282784704E-01 -0.23797289273E-01  0.28735347928E-01  0.51100000000E-03 0.  1.
         11    1    4    4    0    0 -0.73224359254E-01  0.81339769267E-01 -0.25912959204E-01  0.11247091814E+00  0.51100000000E-03 0. -1.
</event>
<event>
 8    1  0.2928569E+004  0.1043930E+01  0.7957747E-01            NaN
         13   -1    0    0    0    0  0.00000000000E+00  0.00000000000E+00  0.74505805969E-08  0.10566000000E+00  0.10566000000E+00 0. -1.
     999900   -1    0    0    0    0 -0.00000000000E+00 -0.00000000000E+00 -0.74505805969E-08  0.93827000000E+00  0.93827000000E+00 0. -1.
     999902    2    1    2    0    0  0.27709742889E-02 -0.74650584216E-02 -0.13125815831E-01  0.10285777221E+01  0.10284631437E+01 0.  0.
     999903    2    3    3    0    0 -0.36496937885E-02  0.67533034954E-01  0.11001871664E+00  0.13682074014E+00  0.45185903166E-01 0.  0.
         14    1    1    2    0    0 -0.27709742889E-02  0.74650584216E-02  0.13125815831E-01  0.15352277908E-01  0.00000000000E+00 0. -1.
     999901    1    3    3    0    0  0.64206680774E-02 -0.74998093375E-01 -0.12314453247E+00  0.89175698196E+00  0.88000000000E+00 0. -1.
        -11    1    4    4    0    0 -0.18196256177E-01  0.18028238620E-01  0.17964020142E-01  0.31290386180E-01  0.51100000000E-03 0. -1.
         11    1    4    4    0    0  0.14546562389E-01  0.49504796334E-01  0.92054696501E-01  0.10553035396E+00  0.51100000000E-03 0.  1.
</event>
<event>
 8    1  0.2928569E+004  0.1043930E+01  0.7957747E-01            NaN
         13   -1    0    0    0    0  0.00000000000E+00  0.00000000000E+00  0.74505805969E-08  0.10566000000E+00  0.10566000000E+00 0.  1.
     999900   -1    0    0    0    0 -0.00000000000E+00 -0.00000000000E+00 -0.74505805969E-08  0.93827000000E+00  0.93827000000E+00 0. -1.
     999902    2    1    2    0    0  0.94859738749E-02 -0.11357926519E-01 -0.14162235591E-02  0.10290642042E+01  0.10289568234E+01 0.  0.
     999903    2    3    3    0    0  0.58441479518E-01  0.78178917837E-01  0.87500662257E-01  0.13871612587E+00  0.45370121866E-01 0.  0.
         14    1    1    2    0    0 -0.94859738749E-02  0.11357926519E-01  0.14162235591E-02  0.14865795786E-01  0.00000000000E+00 0. -1.
     999901    1    3    3    0    0 -0.48955505643E-01 -0.89536844357E-01 -0.88916885816E-01  0.89034807835E+00  0.88000000000E+00 0.  1.
        -11    1    4    4    0    0  0.23220204275E-01  0.16630288326E-01  0.52188765426E-01  0.59495148828E-01  0.51100000000E-03 0. -1.
         11    1    4    4    0    0  0.35221275243E-01  0.61548629512E-01  0.35311896831E-01  0.79220977041E-01  0.51100000000E-03 0.  1.
</event>
<event>
 8    1  0.2928569E+004  0.1043930E+01  0.7957747E-01            NaN
         13   -1    0    0    0    0  0.00000000000E+00  0.00000000000E+00  0.74505805969E-08  0.10566000000E+00  0.10566000000E+00 0. -1.
     999900   -1    0    0    0    0 -0.00000000000E+00 -0.00000000000E+00 -0.74505805969E-08  0.93827000000E+00  0.93827000000E+00 0.  1.
     999902    2    1    2    0    0  0.13145786686E-01 -0.44121558004E-03 -0.19486553865E-02  0.10306332471E+01  0.10305474693E+01 0.  0.
     999903    2    3    3    0    0 -0.37231131585E-01  0.10898914447E+00  0.64620031810E-01  0.13993451709E+00  0.46272343694E-01 0.  0.
         14    1    1    2    0    0 -0.13145786686E-01  0.44121558004E-03  0.19486553865E-02  0.13296752859E-01  0.00000000000E+00 0. -1.
     999901    1    3    3    0    0  0.50376918271E-01 -0.10943036005E+00 -0.66568687196E-01  0.89069873005E+00  0.88000000000E+00 0.  1.
        -11    1    4    4    0    0 -0.16712099266E-01  0.58418828564E-01  0.79927221549E-02  0.61287833385E-01  0.51100000000E-03 0. -1.
         11    1    4    4    0    0 -0.20519032319E-01  0.50570315909E-01  0.56627309655E-01  0.78646683707E-01  0.51100000000E-03 0.  1.
</event>
<event>
 8    1  0.2928569E+004  0.1043930E+01  0.7957747E-01            NaN
         13   -1    0    0    0    0  0.00000000000E+00  0.00000000000E+00  0.74505805969E-08  0.10566000000E+00  0.10566000000E+00 0. -1.
     999900   -1    0    0    0    0 -0.00000000000E+00 -0.00000000000E+00 -0.74505805969E-08  0.93827000000E+00  0.93827000000E+00 0. -1.
     999902    2    1    2    0    0  0.68963041843E-02 -0.11047102694E-01  0.49970527157E-02  0.10299812357E+01  0.10298867792E+01 0.  0.
     999903    2    3    3    0    0  0.16986453522E-01  0.12602338515E+00  0.32835557432E-01  0.13887792403E+00  0.45149426808E-01 0.  0.
         14    1    1    2    0    0 -0.68963041843E-02  0.11047102694E-01 -0.49970527157E-02  0.13948764289E-01  0.00000000000E+00 0.  1.
     999901    1    3    3    0    0 -0.10090149337E-01 -0.13707048785E+00 -0.27838504717E-01  0.89110331169E+00  0.88000000000E+00 0. -1.
        -11    1    4    4    0    0 -0.12509917903E-01  0.51598428449E-01  0.21473142299E-02  0.53139137589E-01  0.51100000000E-03 0. -1.
         11    1    4    4    0    0  0.29496371425E-01  0.74424956704E-01  0.30688243203E-01  0.85738786436E-01  0.51100000000E-03 0.  1.
</event>
<event>
 8    1  0.2928569E+004  0.1043930E+01  0.7957747E-01            NaN
         13   -1    0    0    0    0  0.00000000000E+00  0.00000000000E+00  0.74505805969E-08  0.10566000000E+00  0.10566000000E+00 0. -1.
     999900   -1    0    0    0    0 -0.00000000000E+00 -0.00000000000E+00 -0.74505805969E-08  0.93827000000E+00  0.93827000000E+00 0. -1.
     999902    2    1    2    0    0 -0.13790206637E-01  0.44691600087E-02  0.53143264937E-03  0.10294239457E+01  0.10293217351E+01 0.  0.
     999903    2    3    3    0    0 -0.11968656760E+00 -0.58121022155E-01 -0.11525278512E-01  0.14078626114E+00  0.44553469008E-01 0.  0.
         14    1    1    2    0    0  0.13790206637E-01 -0.44691600087E-02 -0.53143264937E-03  0.14506054286E-01  0.00000000000E+00 0.  1.
     999901    1    3    3    0    0  0.10589636096E+00  0.62590182164E-01  0.12056711162E-01  0.88863768458E+00  0.88000000000E+00 0. -1.
        -11    1    4    4    0    0 -0.86039390740E-01 -0.20451041111E-01  0.21221666767E-02  0.88463475818E-01  0.51100000000E-03 0.  1.
         11    1    4    4    0    0 -0.33647176856E-01 -0.37669981044E-01 -0.13647445189E-01  0.52322785318E-01  0.51100000000E-03 0. -1.
</event>
<event>
 8    1  0.2928569E+004  0.1043930E+01  0.7957747E-01            NaN
         13   -1    0    0    0    0  0.00000000000E+00  0.00000000000E+00  0.74505805969E-08  0.10566000000E+00  0.10566000000E+00 0.  1.
     999900   -1    0    0    0    0 -0.00000000000E+00 -0.00000000000E+00 -0.74505805969E-08  0.93827000000E+00  0.93827000000E+00 0.  1.
     999902    2    1    2    0    0  0.41783026646E-02 -0.13893238243E-01 -0.19005389188E-02  0.10292981057E+01  0.10291941013E+01 0.  0.
     999903    2    3    3    0    0  0.11127119185E+00  0.68500786002E-01 -0.13837125996E-01  0.13890485313E+00  0.45049487766E-01 0.  0.
         14    1    1    2    0    0 -0.41783026646E-02  0.13893238243E-01  0.19005389188E-02  0.14631894280E-01  0.00000000000E+00 0. -1.
     999901    1    3    3    0    0 -0.10709288919E+00 -0.82394024244E-01  0.11936587077E-01  0.89039325259E+00  0.88000000000E+00 0.  1.
        -11    1    4    4    0    0  0.52100575298E-01  0.35572270343E-01 -0.29119018763E-01  0.69484061039E-01  0.51100000000E-03 0. -1.
         11    1    4    4    0    0  0.59170616556E-01  0.32928515659E-01  0.15281892768E-01  0.69420792092E-01  0.51100000000E-03 0.  1.
</event>
<event>
 8    1  0.2928569E+004  0.1043930E+01  0.7957747E-01            NaN
         13   -1    0    0    0    0  0.00000000000E+00  0.00000000000E+00  0.74505805969E-08  0.10566000000E+00  0.10566000000E+00 0. -1.
     999900   -1    0    0    0    0 -0.00000000000E+00 -0.00000000000E+00 -0.74505805969E-08  0.93827000000E+00  0.93827000000E+00 0. -1.
     999902    2    1    2    0    0  0.11238399854E-01  0.81440355715E-02  0.18231974575E-02  0.10299317503E+01  0.10298366177E+01 0.  0.
     999903    2    3    3    0    0 -0.10610914840E-01  0.38920500619E-01 -0.12621551078E+00  0.13986518300E+00  0.44771836826E-01 0.  0.
         14    1    1    2    0    0 -0.11238399854E-01 -0.81440355715E-02 -0.18231974575E-02  0.13998249735E-01  0.00000000000E+00 0.  1.
     999901    1    3    3    0    0  0.21849314694E-01 -0.30776465047E-01  0.12803870824E+00  0.89006656726E+00  0.88000000000E+00 0.  1.
        -11    1    4    4    0    0 -0.21518793172E-01  0.11651490379E-01 -0.89817697271E-01  0.93092940397E-01  0.51100000000E-03 0. -1.
         11    1    4    4    0    0  0.10907878332E-01  0.27269010239E-01 -0.36397813508E-01  0.46772242605E-01  0.51100000000E-03 0.  1.
</event>
<event>
 8    1  0.2928569E+004  0.1043930E+01  0.7957747E-01            NaN
         13   -1    0    0    0    0  0.00000000000E+00  0.00000000000E+00  0.74505805969E-08  0.10566000000E+00  0.10566000000E+00 0. -1.
     999900   -1    0    0    0    0 -0.00000000000E+00 -0.00000000000E+00 -0.74505805969E-08  0.93827000000E+00  0.93827000000E+00 0.  1.
     999902    2    1    2    0    0 -0.14348839681E-01  0.61519267370E-02 -0.37405553107E-02  0.10278761171E+01  0.10277507406E+01 0.  0.
     999903    2    3    3    0    0 -0.55928170153E-01  0.79392455780E-01  0.88730385134E-01  0.13903198528E+00  0.45007659706E-01 0.  0.
         14    1    1    2    0    0  0.14348839681E-01 -0.61519267370E-02  0.37405553107E-02  0.16053882920E-01  0.00000000000E+00 0.  1.
     999901    1    3    3    0    0  0.41579330471E-01 -0.73240529043E-01 -0.92470940445E-01  0.88884413180E+00  0.88000000000E+00 0.  1.
        -11    1    4    4    0    0 -0.52151776695E-01  0.51278600654E-01  0.81988099310E-01  0.10987088899E+00  0.51100000000E-03 0.  1.
         11    1    4    4    0    0 -0.37763934576E-02  0.28113855125E-01  0.67422858244E-02  0.29161096288E-01  0.51100000000E-03 0. -1.
</event>
<event>
 8    1  0.2928569E+004  0.1043930E+01  0.7957747E-01            NaN
         13   -1    0    0    0    0  0.00000000000E+00  0.00000000000E+00  0.74505805969E-08  0.10566000000E+00  0.10566000000E+00 0.  1.
     999900   -1    0    0    0    0 -0.00000000000E+00 -0.00000000000E+00 -0.74505805969E-08  0.93827000000E+00  0.93827000000E+00 0.  1.
     999902    2    1    2    0    0  0.59327497375E-02 -0.11141131078E-01 -0.78965078050E-02  0.10290411734E+01  0.10289334573E+01 0.  0.
     999903    2    3    3    0    0 -0.31675509810E-01 -0.51544292055E-02 -0.12863722512E+00  0.13998069033E+00  0.44912714424E-01 0.  0.
         14    1    1    2    0    0 -0.59327497375E-02  0.11141131078E-01  0.78965078050E-02  0.14888826571E-01  0.00000000000E+00 0. -1.
     999901    1    3    3    0    0  0.37608259547E-01 -0.59867018727E-02  0.12074071732E+00  0.88906048310E+00  0.88000000000E+00 0. -1.
        -11    1    4    4    0    0 -0.13921991561E-01 -0.20549414896E-01 -0.31864109997E-01  0.40394095218E-01  0.51100000000E-03 0.  1.
         11    1    4    4    0    0 -0.17753518249E-01  0.15394985691E-01 -0.96773115124E-01  0.99586595114E-01  0.51100000000E-03 0. -1.
</event>
<event>
 8    1  0.2928569E+004  0.1043930E+01  0.7957747E-01            NaN
         13   -1    0    0    0    0  0.00000000000E+00  0.00000000000E+00  0.74505805969E-08  0.10566000000E+00  0.10566000000E+00 0. -1.
     999900   -1    0    0    0    0 -0.00000000000E+00 -0.00000000000E+00 -0.74505805969E-08  0.93827000000E+00  0.93827000000E+00 0. -1.
     999902    2    1    2    0    0 -0.75521493741E-02  0.26535783101E-02  0.10144026791E-01  0.10310080142E+01  0.10309270331E+01 0.  0.
     999903    2    3    3    0    0  0.28352301415E-01  0.13045836378E+00  0.42866049457E-02  0.14103188969E+00  0.45259046056E-01 0.  0.
         14    1    1    2    0    0  0.75521493741E-02 -0.26535783101E-02 -0.10144026791E-01  0.12921985820E-01  0.00000000000E+00 0.  1.
     999901    1    3    3    0    0 -0.35904450789E-01 -0.12780478547E+00  0.58574218449E-02  0.88997612449E+00  0.88000000000E+00 0.  1.
        -11    1    4    4    0    0 -0.78279019287E-02  0.67353742792E-01 -0.33368462045E-02  0.67891077325E-01  0.51100000000E-03 0.  1.
         11    1    4    4    0    0  0.36180203344E-01  0.63104620992E-01  0.76234511501E-02  0.73140812362E-01  0.51100000000E-03 0. -1.
</event>
<event>
 8    1  0.2928569E+004  0.1043930E+01  0.7957747E-01            NaN
         13   -1    0    0    0    0  0.00000000000E+00  0.00000000000E+00  0.74505805969E-08  0.10566000000E+00  0.10566000000E+00 0. -1.
     999900   -1    0    0    0    0 -0.00000000000E+00 -0.00000000000E+00 -0.74505805969E-08  0.93827000000E+00  0.93827000000E+00 0. -1.
     999902    2    1    2    0    0 -0.12172329915E-01 -0.16499612601E-02 -0.20613521428E-02  0.10314745931E+01  0.10313993887E+01 0.  0.
     999903    2    3    3    0    0 -0.57525745707E-01 -0.12150832417E+00  0.98469393336E-02  0.14211259321E+00  0.45006029300E-01 0.  0.
         14    1    1    2    0    0  0.12172329915E-01  0.16499612601E-02  0.20613521428E-02  0.12455406873E-01  0.00000000000E+00 0. -1.
     999901    1    3    3    0    0  0.45353415791E-01  0.11985836291E+00 -0.11908291476E-01  0.88936199991E+00  0.88000000000E+00 0.  1.
        -11    1    4    4    0    0 -0.51379514882E-02 -0.10939054658E-01  0.15460933970E-01  0.19630666381E-01  0.51100000000E-03 0. -1.
         11    1    4    4    0    0 -0.52387794218E-01 -0.11056926951E+00 -0.56139946365E-02  0.12248192683E+00  0.51100000000E-03 0.  1.
</event>
<event>
 8    1  0.2928569E+004  0.1043930E+01  0.7957747E-01            NaN
         13   -1    0    0    0    0  0.00000000000E+00  0.00000000000E+00  0.74505805969E-08  0.10566000000E+00  0.10566000000E+00 0. -1.
     999900   -1    0    0    0    0 -0.00000000000E+00 -0.00000000000E+00 -0.74505805969E-08  0.93827000000E+00  0.93827000000E+00 0. -1.
     999902    2    1    2    0    0 -0.21647816945E-02  0.46712752668E-02 -0.12818441424E-01  0.10301162557E+01  0.10300236311E+01 0.  0.
     999903    2    3    3    0    0 -0.49493347031E-01  0.11418177302E+00  0.45535967291E-01  0.14015121183E+00  0.45626408678E-01 0.  0.
         14    1    1    2    0    0  0.21647816945E-02 -0.46712752668E-02  0.12818441424E-01  0.13813744349E-01  0.00000000000E+00 0. -1.
     999901    1    3    3    0    0  0.47328565336E-01 -0.10951049775E+00 -0.58354408715E-01  0.88996504383E+00  0.88000000000E+00 0. -1.
        -11    1    4    4    0    0 -0.31075939284E-01  0.10612107883E+00  0.29544540638E-01  0.11445758331E+00  0.51100000000E-03 0. -1.
         11    1    4    4    0    0 -0.18417407746E-01  0.80606941884E-02  0.15991426653E-01  0.25693628515E-01  0.51100000000E-03 0.  1.
</event>
<event>
 7    1  0.2928569E+004  0.1043930E+01  0.7957747E-01            NaN
         13   -1    0    0    0    0  0.00000000000E+00  0.00000000000E+00  0.74505805969E-08  0.10566000000E+00  0.10566000000E+00 0. -1.
     999900   -1    0    0    0    0 -0.00000000000E+00 -0.00000000000E+00 -0.74505805969E-08  0.93827000000E+00  0.93827000000E+00 0. -1.
     999903    2    1    2    0    0  0.67584143188E-01  0.51994405843E-01 -0.87275283731E-01  0.13000297623E+00  0.44863838760E-01 0.  0.
         14    1    1    2    0    0 -0.17684711631E-01 -0.18486672736E-01  0.13156692902E-01  0.28768118855E-01  0.00000000000E+00 0. -1.
     999901    1    1    2    0    0 -0.49899431557E-01 -0.33507733107E-01  0.74118590829E-01  0.88515890492E+00  0.88000000000E+00 0.  1.
        -11    1    3    3    0    0  0.29628140435E-01 -0.21406806719E-02 -0.33513607501E-01  0.44786518374E-01  0.51100000000E-03 0. -1.
         11    1    3    3    0    0  0.37956002753E-01  0.54135086515E-01 -0.53761676230E-01  0.85216457854E-01  0.51100000000E-03 0.  1.
</event>
<event>
 8    1  0.2928569E+004  0.1043930E+01  0.7957747E-01            NaN
         13   -1    0    0    0    0  0.00000000000E+00  0.00000000000E+00  0.74505805969E-08  0.10566000000E+00  0.10566000000E+00 0.  1.
     999900   -1    0    0    0    0 -0.00000000000E+00 -0.00000000000E+00 -0.74505805969E-08  0.93827000000E+00  0.93827000000E+00 0.  1.
     999902    2    1    2    0    0 -0.67247196818E-02  0.22554074006E-01  0.70575398138E-02  0.10193593472E+01  0.10190631785E+01 0.  0.
     999903    2    3    3    0    0 -0.20396023435E-01  0.12351727553E+00 -0.93868100641E-02  0.13332837190E+00  0.44897966830E-01 0.  0.
         14    1    1    2    0    0  0.67247196818E-02 -0.22554074006E-01 -0.70575398138E-02  0.24570652765E-01  0.00000000000E+00 0. -1.
     999901    1    3    3    0    0  0.13671303753E-01 -0.10096320152E+00  0.16444349878E-01  0.88603097533E+00  0.88000000000E+00 0.  1.
        -11    1    4    4    0    0  0.11739306560E-01  0.53820719856E-01 -0.12600518584E-01  0.56511197067E-01  0.51100000000E-03 0.  1.
         11    1    4    4    0    0 -0.32135329995E-01  0.69696555670E-01  0.32137085197E-02  0.76817174835E-01  0.51100000000E-03 0. -1.
</event>
<event>
 8    1  0.2928569E+004  0.1043930E+01  0.7957747E-01            NaN
         13   -1    0    0    0    0  0.00000000000E+00  0.00000000000E+00  0.74505805969E-08  0.10566000000E+00  0.10566000000E+00 0. -1.
     999900   -1    0    0    0    0 -0.00000000000E+00 -0.00000000000E+00 -0.74505805969E-08  0.93827000000E+00  0.93827000000E+00 0.  1.
     999902    2    1    2    0    0 -0.20754109109E-02  0.13701876557E-01  0.35524578349E-02  0.10296237528E+01  0.10295243580E+01 0.  0.
     999903    2    3    3    0    0 -0.29928107124E-01 -0.69697693457E-01 -0.10649083187E+00  0.13842187526E+00  0.45462712287E-01 0.  0.
         14    1    1    2    0    0  0.20754109109E-02 -0.13701876557E-01 -0.35524578349E-02  0.14306247178E-01  0.00000000000E+00 0.  1.
     999901    1    3    3    0    0  0.27852696213E-01  0.83399570014E-01  0.11004328970E+00  0.89120187756E+00  0.88000000000E+00 0. -1.
        -11    1    4    4    0    0 -0.12390936980E-01 -0.54381547476E-01 -0.99565383700E-01  0.11412455817E+00  0.51100000000E-03 0.  1.
         11    1    4    4    0    0 -0.17537170144E-01 -0.15316145981E-01 -0.69254481702E-02  0.24297317089E-01  0.51100000000E-03 0. -1.
</event>
<event>
 8    1  0.2928569E+004  0.1043930E+01  0.7957747E-01            NaN
         13   -1    0    0    0    0  0.00000000000E+00  0.00000000000E+00  0.74505805969E-08  0.10566000000E+00  0.10566000000E+00 0. -1.
     999900   -1    0    0    0    0 -0.00000000000E+00 -0.00000000000E+00 -0.74505805969E-08  0.93827000000E+00  0.93827000000E+00 0. -1.
     999902    2    1    2    0    0  0.58810122033E-02 -0.15829136855E-02  0.12346775385E-01  0.10301628368E+01  0.10300708401E+01 0.  0.
     999903    2    3    3    0    0 -0.10949441646E+00 -0.73142759477E-01 -0.56913112733E-02  0.13956883634E+00  0.45914905574E-01 0.  0.
         14    1    1    2    0    0 -0.58810122033E-02  0.15829136855E-02 -0.12346775385E-01  0.13767163204E-01  0.00000000000E+00 0.  1.
     999901    1    3    3    0    0  0.11537542867E+00  0.71559845791E-01  0.18038086658E-01  0.89059400045E+00  0.88000000000E+00 0. -1.
        -11    1    4    4    0    0 -0.93316314229E-01 -0.51300521494E-01 -0.20748422494E-01  0.10849164099E+00  0.51100000000E-03 0.  1.
         11    1    4    4    0    0 -0.16178102235E-01 -0.21842237983E-01  0.15057111221E-01  0.31077195359E-01  0.51100000000E-03 0. -1.
</event>
<event>
 8    1  0.2928569E+004  0.1043930E+01  0.7957747E-01            NaN
         13   -1    0    0    0    0  0.00000000000E+00  0.00000000000E+00  0.74505805969E-08  0.10566000000E+00  0.10566000000E+00 0.  1.
     999900   -1    0    0    0    0 -0.00000000000E+00 -0.00000000000E+00 -0.74505805969E-08  0.93827000000E+00  0.93827000000E+00 0.  1.
     999902    2    1    2    0    0  0.64784787727E-02  0.11111926459E-01  0.47751058146E-02  0.10302096781E+01  0.10301183105E+01 0.  0.
     999903    2    3    3    0    0 -0.11145421213E+00  0.70638816942E-01  0.12742785818E-01  0.14031358633E+00  0.45974341294E-01 0.  0.
         14    1    1    2    0    0 -0.64784787727E-02 -0.11111926459E-01 -0.47751058146E-02  0.13720321876E-01  0.00000000000E+00 0. -1.
     999901    1    3    3    0    0  0.11793269090E+00 -0.59526890483E-01 -0.79676800030E-02  0.88989609180E+00  0.88000000000E+00 0.  1.
        -11    1    4    4    0    0 -0.14234477823E-01  0.24500545650E-01 -0.10492765699E-01  0.30220131519E-01  0.51100000000E-03 0. -1.
         11    1    4    4    0    0 -0.97219734304E-01  0.46138271292E-01  0.23235551516E-01  0.11009345481E+00  0.51100000000E-03 0.  1.
</event>
<event>
 8    1  0.2928569E+004  0.1043930E+01  0.7957747E-01            NaN
         13   -1    0    0    0    0  0.00000000000E+00  0.00000000000E+00  0.74505805969E-08  0.10566000000E+00  0.10566000000E+00 0. -1.
     999900   -1    0    0    0    0 -0.00000000000E+00 -0.00000000000E+00 -0.74505805969E-08  0.93827000000E+00  0.93827000000E+00 0.  1.
     999902    2    1    2    0    0  0.12048687438E-02  0.11310030354E-01  0.82350292518E-02  0.10298877708E+01  0.10297920354E+01 0.  0.
     999903    2    3    3    0    0  0.11126032664E+00 -0.23589791109E-01  0.68270555660E-01  0.14031795012E+00  0.45748440715E-01 0.  0.
         14    1    1    2    0    0 -0.12048687438E-02 -0.11310030354E-01 -0.82350292518E-02  0.14042229242E-01  0.00000000000E+00 0.  1.
     999901    1    3    3    0    0 -0.11005545790E+00  0.34899821464E-01 -0.60035526408E-01  0.88956982063E+00  0.88000000000E+00 0. -1.
        -11    1    4    4    0    0  0.60335180967E-01 -0.28224317743E-01  0.57635761872E-01  0.88085687498E-01  0.51100000000E-03 0. -1.
         11    1    4    4    0    0  0.50925145675E-01  0.46345266342E-02  0.10634793788E-01  0.52232262626E-01  0.51100000000E-03 0.  1.
</event>
<event>
 8    1  0.2928569E+004  0.1043930E+01  0.7957747E-01            NaN
         13   -1    0    0    0    0  0.00000000000E+00  0.00000000000E+00  0.74505805969E-08  0.10566000000E+00  0.10566000000E+00 0. -1.
     999900   -1    0    0    0    0 -0.00000000000E+00 -0.00000000000E+00 -0.74505805969E-08  0.93827000000E+00  0.93827000000E+00 0.  1.
     999902    2    1    2    0    0  0.77719909632E-02  0.94257780901E-02 -0.37348312523E-02  0.10311550988E+01  0.10310759621E+01 0.  0.
     999903    2    3    3    0    0  0.48736082641E-01  0.11369622625E+00 -0.57873587296E-01  0.14240238400E+00  0.40336698516E-01 0.  0.
         14    1    1    2    0    0 -0.77719909632E-02 -0.94257780901E-02  0.37348312523E-02  0.12774901198E-01  0.00000000000E+00 0.  1.
     999901    1    3    3    0    0 -0.40964091678E-01 -0.10427044816E+00  0.54138756044E-01  0.88875271480E+00  0.88000000000E+00 0. -1.
        -11    1    4    4    0    0  0.70489355181E-02  0.66892515325E-01 -0.33569301691E-01  0.75176161351E-01  0.51100000000E-03 0. -1.
         11    1    4    4    0    0  0.41687147123E-01  0.46803710924E-01 -0.24304285605E-01  0.67226222646E-01  0.51100000000E-03 0.  1.
</event>
<event>
 8    1  0.2928569E+004  0.1043930E+01  0.7957747E-01            NaN
         13   -1    0    0    0    0  0.00000000000E+00  0.00000000000E+00  0.74505805969E-08  0.10566000000E+00  0.10566000000E+00 0. -1.
     999900   -1    0    0    0    0 -0.00000000000E+00 -0.00000000000E+00 -0.74505805969E-08  0.93827000000E+00  0.93827000000E+00 0.  1.
     999902    2    1    2    0    0 -0.80088874506E-02  0.11116896255E-01 -0.13807470276E-02  0.10301592294E+01  0.10300671841E+01 0.  0.
     999903    2    3    3    0    0  0.88347773474E-01  0.93773037403E-01  0.33463255899E-01  0.14036669835E+00  0.44545582145E-01 0.  0.
         14    1    1    2    0    0  0.80088874506E-02 -0.11116896255E-01  0.13807470276E-02  0.13770770599E-01  0.00000000000E+00 0. -1.
     999901    1    3    3    0    0 -0.96356660925E-01 -0.82656141148E-01 -0.34844002927E-01  0.88979253105E+00  0.88000000000E+00 0. -1.
        -11    1    4    4    0    0  0.43037111602E-01  0.27880160712E-01 -0.51938327768E-02  0.51543509351E-01  0.51100000000E-03 0. -1.
         11    1    4    4    0    0  0.45310661873E-01  0.65892876691E-01  0.38657088676E-01  0.88823188999E-01  0.51100000000E-03 0.  1.
</event>
<event>
 8    1  0.2928569E+004  0.1043930E+01  0.7957747E-01            NaN
         13   -1    0    0    0    0  0.00000000000E+00  0.00000000000E+00  0.74505805969E-08  0.10566000000E+00  0.10566000000E+00 0.  1.
     999900   -1    0    0    0    0 -0.00000000000E+00 -0.00000000000E+00 -0.74505805969E-08  0.93827000000E+00  0.93827000000E+00 0.  1.
     999902    2    1    2    0    0 -0.87455725771E-02  0.32405373912E-02 -0.13775815665E-01  0.10272939181E+01  0.10271592063E+01 0.  0.
     999903    2    3    3    0    0  0.70559153159E-01 -0.21652655733E-01 -0.10822297477E+00  0.13834556393E+00  0.44495518840E-01 0.  0.
         14    1    1    2    0    0  0.87455725771E-02 -0.32405373912E-02  0.13775815665E-01  0.16636081856E-01  0.00000000000E+00 0.  1.
     999901    1    3    3    0    0 -0.79304725736E-01  0.24893193124E-01  0.94447159107E-01  0.88894835421E+00  0.88000000000E+00 0. -1.
        -11    1    4    4    0    0  0.38924304413E-01 -0.21517794312E-01 -0.29155960699E-01  0.53183156275E-01  0.51100000000E-03 0.  1.
         11    1    4    4    0    0  0.31634848746E-01 -0.13486142074E-03 -0.79067014074E-01  0.85162407659E-01  0.51100000000E-03 0. -1.
</event>
<event>
 8    1  0.2928569E+004  0.1043930E+01  0.7957747E-01            NaN
         13   -1    0    0    0    0  0.00000000000E+00  0.00000000000E+00  0.74505805969E-08  0.10566000000E+00  0.10566000000E+00 0.  1.
     999900   -1    0    0    0    0 -0.00000000000E+00 -0.00000000000E+00 -0.74505805969E-08  0.93827000000E+00  0.93827000000E+00 0. -1.
     999902    2    1    2    0    0 -0.47596875972E-02  0.47380004345E-02 -0.14173994294E-01  0.10282454411E+01  0.10281258103E+01 0.  0.
     999903    2    3    3    0    0  0.44621033234E-01 -0.48155490314E-03 -0.12354951739E+00  0.14008514902E+00  0.48663099237E-01 0.  0.
         14    1    1    2    0    0  0.47596875972E-02 -0.47380004345E-02  0.14173994294E-01  0.15684558916E-01  0.00000000000E+00 0.  1.
     999901    1    3    3    0    0 -0.49380720831E-01  0.52195553377E-02  0.10937552309E+00  0.88816029206E+00  0.88000000000E+00 0.  1.
        -11    1    4    4    0    0  0.98773273175E-02 -0.11990073797E-01 -0.54942668337E-02  0.16485495250E-01  0.51100000000E-03 0.  1.
         11    1    4    4    0    0  0.34743705916E-01  0.11508518894E-01 -0.11805525055E+00  0.12359965377E+00  0.51100000000E-03 0. -1.
</event>
<event>
 8    1  0.2928569E+004  0.1043930E+01  0.7957747E-01            NaN
         13   -1    0    0    0    0  0.00000000000E+00  0.00000000000E+00  0.74505805969E-08  0.10566000000E+00  0.10566000000E+00 0.  1.
     999900   -1    0    0    0    0 -0.00000000000E+00 -0.00000000000E+00 -0.74505805969E-08  0.93827000000E+00  0.93827000000E+00 0.  1.
     999902    2    1    2    0    0 -0.57531029042E-02  0.21084948438E-02 -0.12377193454E-01  0.10301191759E+01  0.10300265908E+01 0.  0.
     999903    2    3    3    0    0 -0.13192113257E+00  0.10960193371E-02  0.16082766305E-01  0.14066464302E+00  0.46081449053E-01 0.  0.
         14    1    1    2    0    0  0.57531029042E-02 -0.21084948438E-02  0.12377193454E-01  0.13810824064E-01  0.00000000000E+00 0.  1.
     999901    1    3    3    0    0  0.12616802967E+00  0.10124755067E-02 -0.28459959759E-01  0.88945453292E+00  0.88000000000E+00 0. -1.
        -11    1    4    4    0    0 -0.11974709702E+00 -0.13533300783E-01  0.16410950307E-01  0.12162276879E+00  0.51100000000E-03 0.  1.
         11    1    4    4    0    0 -0.12174035545E-01  0.14629320120E-01 -0.32818400212E-03  0.19041874235E-01  0.51100000000E-03 0. -1.
</event>
<event>
 8    1  0.2928569E+004  0.1043930E+01  0.7957747E-01            NaN
         13   -1    0    0    0    0  0.00000000000E+00  0.00000000000E+00  0.74505805969E-08  0.10566000000E+00  0.10566000000E+00 0.  1.
     999900   -1    0    0    0    0 -0.00000000000E+00 -0.00000000000E+00 -0.74505805969E-08  0.93827000000E+00  0.93827000000E+00 0.  1.
     999902    2    1    2    0    0  0.12405525685E-01  0.14602040432E-02 -0.52450319684E-02  0.10303823204E+01  0.10302932527E+01 0.  0.
     999903    2    3    3    0    0 -0.98633926633E-01  0.79742913302E-02  0.82659958411E-01  0.13903531686E+00  0.52018360272E-01 0.  0.
         14    1    1    2    0    0 -0.12405525685E-01 -0.14602040432E-02  0.52450319684E-02  0.13547679643E-01  0.00000000000E+00 0.  1.
     999901    1    3    3    0    0  0.11103945232E+00 -0.65140872869E-02 -0.87904990379E-01  0.89134700349E+00  0.88000000000E+00 0. -1.
        -11    1    4    4    0    0 -0.70632945505E-01 -0.18193428368E-01  0.47657616476E-01  0.87129348418E-01  0.51100000000E-03 0. -1.
         11    1    4    4    0    0 -0.28000981127E-01  0.26167719698E-01  0.35002341935E-01  0.51905968445E-01  0.51100000000E-03 0.  1.
</event>
<event>
 8    1  0.2928569E+004  0.1043930E+01  0.7957747E-01            NaN
         13   -1    0    0    0    0  0.00000000000E+00  0.00000000000E+00  0.74505805969E-08  0.10566000000E+00  0.10566000000E+00 0.  1.
     999900   -1    0    0    0    0 -0.00000000000E+00 -0.00000000000E+00 -0.74505805969E-08  0.93827000000E+00  0.93827000000E+00 0.  1.
     999902    2    1    2    0    0  0.25852563035E-02 -0.68231549055E-02  0.10302506126E-01  0.10313053960E+01  0.10312281218E+01 0.  0.
     999903    2    3    3    0    0  0.13139329791E+00  0.14805111655E-01 -0.11102449281E-01  0.14140794934E+00  0.48883061384E-01 0.  0.
         14    1    1    2    0    0 -0.25852563035E-02  0.68231549055E-02 -0.10302506126E-01  0.12624603974E-01  0.00000000000E+00 0. -1.
     999901    1    3    3    0    0 -0.12880804161E+00 -0.21628266561E-01  0.21404955407E-01  0.88989744668E+00  0.88000000000E+00 0. -1.
        -11    1    4    4    0    0  0.33529565525E-01  0.14678836503E-01  0.15864446162E-01  0.39895385427E-01  0.51100000000E-03 0. -1.
         11    1    4    4    0    0  0.97863732387E-01  0.12627515264E-03 -0.26966895443E-01  0.10151256392E+00  0.51100000000E-03 0.  1.
</event>
<event>
 7    1  0.2928569E+004  0.1043930E+01  0.7957747E-01            NaN
         13   -1    0    0    0    0  0.00000000000E+00  0.00000000000E+00  0.74505805969E-08  0.10566000000E+00  0.10566000000E+00 0.  1.
     999900   -1    0    0    0    0 -0.00000000000E+00 -0.00000000000E+00 -0.74505805969E-08  0.93827000000E+00  0.93827000000E+00 0. -1.
     999902    2    1    2    0    0 -0.71992527346E-02 -0.11862504446E-01 -0.45864368360E-03  0.10300462467E+01  0.10299526745E+01 0.  0.
         14    1    1    2    0    0  0.71992527346E-02  0.11862504446E-01  0.45864368360E-03  0.13883753300E-01  0.00000000000E+00 0. -1.
     999901    1    3    3    0    0  0.40797360568E-01  0.11986979710E+00 -0.12336987249E-01  0.88914869068E+00  0.88000000000E+00 0. -1.
        -11    1    3    3    0    0 -0.29500588913E-01 -0.90474131031E-01  0.70867464316E-02  0.95427125221E-01  0.51100000000E-03 0.  1.
         11    1    3    3    0    0 -0.18496024390E-01 -0.41258170518E-01  0.47915971337E-02  0.45470430797E-01  0.51100000000E-03 0. -1.
</event>
<event>
 8    1  0.2928569E+004  0.1043930E+01  0.7957747E-01            NaN
         13   -1    0    0    0    0  0.00000000000E+00  0.00000000000E+00  0.74505805969E-08  0.10566000000E+00  0.10566000000E+00 0.  1.
     999900   -1    0    0    0    0 -0.00000000000E+00 -0.00000000000E+00 -0.74505805969E-08  0.93827000000E+00  0.93827000000E+00 0. -1.
     999902    2    1    2    0    0  0.23134425660E-02 -0.59761295528E-02 -0.12510075595E-01  0.10298741068E+01  0.10297781838E+01 0.  0.
     999903    2    3    3    0    0 -0.57756665772E-02 -0.53022287830E-02 -0.13389523822E+00  0.14150467607E+00  0.45101735863E-01 0.  0.
         14    1    1    2    0    0 -0.23134425660E-02  0.59761295528E-02  0.12510075595E-01  0.14055893153E-01  0.00000000000E+00 0.  1.
     999901    1    3    3    0    0  0.80891091432E-02 -0.67390076981E-03  0.12138516263E+00  0.88836943077E+00  0.88000000000E+00 0.  1.
        -11    1    4    4    0    0 -0.77464945050E-02  0.18782816796E-01 -0.44903514022E-01  0.49288833182E-01  0.51100000000E-03 0. -1.
         11    1    4    4    0    0  0.19708279278E-02 -0.24085045579E-01 -0.88991724198E-01  0.92215842891E-01  0.51100000000E-03 0.  1.
</event>
<event>
 8    1  0.2928569E+004  0.1043930E+01  0.7957747E-01            NaN
         13   -1    0    0    0    0  0.00000000000E+00  0.00000000000E+00  0.74505805969E-08  0.10566000000E+00  0.10566000000E+00 0. -1.
     999900   -1    0    0    0    0 -0.00000000000E+00 -0.00000000000E+00 -0.74505805969E-08  0.93827000000E+00  0.93827000000E+00 0.  1.
     999902    2    1    2    0    0 -0.96403891103E-02  0.78347124345E-02 -0.43017997455E-02  0.10307836963E+01  0.10306998609E+01 0.  0.
     999903    2    3    3    0    0  0.12781836394E+00  0.33398190011E-01  0.63057436180E-02  0.13968273668E+00  0.44928067720E-01 0.  0.
         14    1    1    2    0    0  0.96403891103E-02 -0.78347124345E-02  0.43017997455E-02  0.13146303746E-01  0.00000000000E+00 0. -1.
     999901    1    3    3    0    0 -0.13745875305E+00 -0.25563477576E-01 -0.10607543363E-01  0.89110095957E+00  0.88000000000E+00 0.  1.
        -11    1    4    4    0    0  0.62259405356E-01 -0.43515636668E-02 -0.72239383465E-02  0.62830057041E-01  0.51100000000E-03 0.  1.
         11    1    4    4    0    0  0.65558958580E-01  0.37749753677E-01  0.13529681964E-01  0.76852679640E-01  0.51100000000E-03 0. -1.
</event>
<event>
 8    1  0.2928569E+004  0.1043930E+01  0.7957747E-01            NaN
         13   -1    0    0    0    0  0.00000000000E+00  0.00000000000E+00  0.74505805969E-08  0.10566000000E+00  0.10566000000E+00 0. -1.
     999900   -1    0    0    0    0 -0.00000000000E+00 -0.00000000000E+00 -0.74505805969E-08  0.93827000000E+00  0.93827000000E+00 0. -1.
     999902    2    1    2    0    0  0.37756526771E-02  0.96748633943E-02  0.64151954352E-02  0.10317229009E+01  0.10316506827E+01 0.  0.
     999903    2    3    3    0    0  0.21381774507E-01 -0.13258719989E+00  0.73093403039E-02  0.14012362455E+00  0.39302135365E-01 0.  0.
         14    1    1    2    0    0 -0.37756526771E-02 -0.96748633943E-02 -0.64151954352E-02  0.12207099054E-01  0.00000000000E+00 0.  1.
     999901    1    3    3    0    0 -0.17606121830E-01  0.14226206329E+00 -0.89414486873E-03  0.89159927640E+00  0.88000000000E+00 0. -1.
        -11    1    4    4    0    0  0.25610890375E-01 -0.81297466236E-01 -0.10005156447E-01  0.85822840775E-01  0.51100000000E-03 0. -1.
         11    1    4    4    0    0 -0.42291158677E-02 -0.51289733658E-01  0.17314496751E-01  0.54300783774E-01  0.51100000000E-03 0.  1.
</event>
<event>
 8    1  0.2928569E+004  0.1043930E+01  0.7957747E-01            NaN
         13   -1    0    0    0    0  0.00000000000E+00  0.00000000000E+00  0.74505805969E-08  0.10566000000E+00  0.10566000000E+00 0.  1.
     999900   -1    0    0    0    0 -0.00000000000E+00 -0.00000000000E+00 -0.74505805969E-08  0.93827000000E+00  0.93827000000E+00 0.  1.
     999902    2    1    2    0    0  0.10441210750E-01 -0.12437047185E-01 -0.36584493979E-02  0.10272841814E+01  0.10271493105E+01 0.  0.
     999903    2    3    3    0    0  0.66452350925E-01 -0.10421834308E+00  0.45281126935E-01  0.13938996686E+00  0.45845440621E-01 0.  0.
         14    1    1    2    0    0 -0.10441210750E-01  0.12437047185E-01  0.36584493979E-02  0.16645818593E-01  0.00000000000E+00 0. -1.
     999901    1    3    3    0    0 -0.56011140174E-01  0.91781295897E-01 -0.48939576332E-01  0.88789421455E+00  0.88000000000E+00 0.  1.
        -11    1    4    4    0    0  0.35820490340E-01 -0.43100211684E-01 -0.23061526263E-02  0.56092024713E-01  0.51100000000E-03 0. -1.
         11    1    4    4    0    0  0.30631860584E-01 -0.61118131398E-01  0.47587279561E-01  0.83297942144E-01  0.51100000000E-03 0.  1.
</event>
<event>
 8    1  0.2928569E+004  0.1043930E+01  0.7957747E-01            NaN
         13   -1    0    0    0    0  0.00000000000E+00  0.00000000000E+00  0.74505805969E-08  0.10566000000E+00  0.10566000000E+00 0. -1.
     999900   -1    0    0    0    0 -0.00000000000E+00 -0.00000000000E+00 -0.74505805969E-08  0.93827000000E+00  0.93827000000E+00 0. -1.
     999902    2    1    2    0    0 -0.15995555109E-01 -0.38023776783E-02  0.12321444784E-01  0.10233841036E+01  0.10231778387E+01 0.  0.
     999903    2    3    3    0    0 -0.57374925619E-02 -0.12650925149E+00  0.66950613005E-02  0.13479316228E+00  0.45682198045E-01 0.  0.
         14    1    1    2    0    0  0.15995555109E-01  0.38023776783E-02 -0.12321444784E-01  0.20545896447E-01  0.00000000000E+00 0. -1.
     999901    1    3    3    0    0 -0.10258062547E-01  0.12270687381E+00  0.56263834837E-02  0.88859094128E+00  0.88000000000E+00 0. -1.
        -11    1    4    4    0    0 -0.16809425227E-02 -0.51710567969E-01  0.25317946477E-01  0.57602673048E-01  0.51100000000E-03 0.  1.
         11    1    4    4    0    0 -0.40565500392E-02 -0.74798683517E-01 -0.18622885176E-01  0.77190489228E-01  0.51100000000E-03 0. -1.
</event>
<event>
 8    1  0.2928569E+004  0.1043930E+01  0.7957747E-01            NaN
         13   -1    0    0    0    0  0.00000000000E+00  0.00000000000E+00  0.74505805969E-08  0.10566000000E+00  0.10566000000E+00 0. -1.
     999900   -1    0    0    0    0 -0.00000000000E+00 -0.00000000000E+00 -0.74505805969E-08  0.93827000000E+00  0.93827000000E+00 0.  1.
     999902    2    1    2    0    0 -0.84539537402E-02  0.47774304696E-02  0.85877905755E-02  0.10309668475E+01  0.10308853464E+01 0.  0.
     999903    2    3    3    0    0 -0.13307162034E+00 -0.17415789236E-01  0.94456200394E-02  0.14190957280E+00  0.45141347571E-01 0.  0.
         14    1    1    2    0    0  0.84539537402E-02 -0.47774304696E-02 -0.85877905755E-02  0.12963152499E-01  0.00000000000E+00 0.  1.
     999901    1    3    3    0    0  0.12461766660E+00  0.22193219706E-01 -0.85782946397E-03  0.88905727470E+00  0.88000000000E+00 0. -1.
        -11    1    4    4    0    0 -0.11536143552E+00 -0.87560028634E-02 -0.74598222810E-02  0.11593463012E+00  0.51100000000E-03 0.  1.
         11    1    4    4    0    0 -0.17710184819E-01 -0.86597863729E-02  0.16905442320E-01  0.25974942683E-01  0.51100000000E-03 0. -1.
</event>
<event>
 8    1  0.2928569E+004  0.1043930E+01  0.7957747E-01            NaN
         13   -1    0    0    0    0  0.00000000000E+00  0.00000000000E+00  0.74505805969E-08  0.10566000000E+00  0.10566000000E+00 0.  1.
     999900   -1    0    0    0    0 -0.00000000000E+00 -0.00000000000E+00 -0.74505805969E-08  0.93827000000E+00  0.93827000000E+00 0. -1.
     999902    2    1    2    0    0 -0.35362275546E-02 -0.88216631434E-02 -0.92443702167E-02  0.10306716054E+01  0.10305863250E+01 0.  0.
     999903    2    3    3    0    0 -0.64312747696E-01 -0.11208319147E+00 -0.39115546954E-01  0.14204962965E+00  0.44150877051E-01 0.  0.
         14    1    1    2    0    0  0.35362275546E-02  0.88216631434E-02  0.92443702167E-02  0.13258394572E-01  0.00000000000E+00 0.  1.
     999901    1    3    3    0    0  0.60776520141E-01  0.10326152833E+00  0.29871176737E-01  0.88862197578E+00  0.88000000000E+00 0. -1.
        -11    1    4    4    0    0 -0.49472000298E-01 -0.52394507700E-01 -0.63043203792E-02  0.72337188410E-01  0.51100000000E-03 0.  1.
         11    1    4    4    0    0 -0.14840747398E-01 -0.59688683770E-01 -0.32811226575E-01  0.69712441241E-01  0.51100000000E-03 0. -1.
</event>
<event>
 8    1  0.2928569E+004  0.1043930E+01  0.7957747E-01            NaN
         13   -1    0    0    0    0  0.00000000000E+00  0.00000000000E+00  0.74505805969E-08  0.10566000000E+00  0.10566000000E+00 0. -1.
     999900   -1    0    0    0    0 -0.00000000000E+00 -0.00000000000E+00 -0.74505805969E-08  0.93827000000E+00  0.93827000000E+00 0. -1.
     999902    2    1    2    0    0  0.36385859523E-02 -0.67315394268E-02 -0.12968205339E-01  0.10288725341E+01  0.10287623458E+01 0.  0.
     999903    2    3    3    0    0 -0.17088092793E-01  0.11270350900E-01  0.12808484046E+00  0.13721698117E+00  0.44763264420E-01 0.  0.
         14    1    1    2    0    0 -0.36385859523E-02  0.67315394268E-02  0.12968205339E-01  0.15057465939E-01  0.00000000000E+00 0. -1.
     999901    1    3    3    0    0  0.20726678745E-01 -0.18001890327E-01 -0.14105304580E+00  0.89165555289E+00  0.88000000000E+00 0. -1.
        -11    1    4    4    0    0 -0.22650403602E-01 -0.47905444218E-02  0.31219442891E-01  0.38870359332E-01  0.51100000000E-03 0.  1.
         11    1    4    4    0    0  0.55623108092E-02  0.16060895322E-01  0.96865397570E-01  0.98346621840E-01  0.51100000000E-03 0. -1.
</event>
<event>
 8    1  0.2928569E+004  0.1043930E+01  0.7957747E-01            NaN
         13   -1    0    0    0    0  0.00000000000E+00  0.00000000000E+00  0.74505805969E-08  0.10566000000E+00  0.10566000000E+00 0.  1.
     999900   -1    0    0    0    0 -0.00000000000E+00 -0.00000000000E+00 -0.74505805969E-08  0.93827000000E+00  0.93827000000E+00 0.  1.
     999902    2    1    2    0    0 -0.39011317756E-02  0.11481866919E-01  0.71649175505E-02  0.10298449675E+01  0.10297486436E+01 0.  0.
     999903    2    3    3    0    0  0.12670580379E+00 -0.31958196163E-01  0.16120355863E-01  0.13910066604E+00  0.44871398525E-01 0.  0.
         14    1    1    2    0    0  0.39011317756E-02 -0.11481866919E-01 -0.71649175505E-02  0.14085032502E-01  0.00000000000E+00 0. -1.
     999901    1    3    3    0    0 -0.13060693556E+00  0.43440063082E-01 -0.89554383127E-02  0.89074430145E+00  0.88000000000E+00 0. -1.
        -11    1    4    4    0    0  0.59591624290E-01 -0.33671735684E-02 -0.12059642774E-01  0.60894955852E-01  0.51100000000E-03 0. -1.
         11    1    4    4    0    0  0.67114179496E-01 -0.28591022595E-01  0.28179998637E-01  0.78205710192E-01  0.51100000000E-03 0.  1.
</event>
<event>
 8    1  0.2928569E+004  0.1043930E+01  0.7957747E-01            NaN
         13   -1    0    0    0    0  0.00000000000E+00  0.00000000000E+00  0.74505805969E-08  0.10566000000E+00  0.10566000000E+00 0. -1.
     999900   -1    0    0    0    0 -0.00000000000E+00 -0.00000000000E+00 -0.74505805969E-08  0.93827000000E+00  0.93827000000E+00 0. -1.
     999902    2    1    2    0    0 -0.45855233220E-02  0.10632678458E-01  0.58773370339E-02  0.10309444709E+01  0.10308626864E+01 0.  0.
     999903    2    3    3    0    0  0.80667911826E-01 -0.85285663106E-01 -0.59801727412E-01  0.13921457011E+00  0.44983259119E-01 0.  0.
         14    1    1    2    0    0  0.45855233220E-02 -0.10632678458E-01 -0.58773370339E-02  0.12985529097E-01  0.00000000000E+00 0.  1.
     999901    1    3    3    0    0 -0.85253435148E-01  0.95918341564E-01  0.65679064446E-01  0.89172990079E+00  0.88000000000E+00 0. -1.
        -11    1    4    4    0    0  0.44947207866E-01 -0.18119254404E-01 -0.32658317015E-01  0.58441301032E-01  0.51100000000E-03 0.  1.
         11    1    4    4    0    0  0.35720703960E-01 -0.67166408701E-01 -0.27143410397E-01  0.80773269082E-01  0.51100000000E-03 0. -1.
</event>
<event>
 8    1  0.2928569E+004  0.1043930E+01  0.7957747E-01            NaN
         13   -1    0    0    0    0  0.00000000000E+00  0.00000000000E+00  0.74505805969E-08  0.10566000000E+00  0.10566000000E+00 0.  1.
     999900   -1    0    0    0    0 -0.00000000000E+00 -0.00000000000E+00 -0.74505805969E-08  0.93827000000E+00  0.93827000000E+00 0.  1.
     999902    2    1    2    0    0 -0.54771459170E-02  0.11997196962E-01  0.36931020916E-02  0.10302343487E+01  0.10301433115E+01 0.  0.
     999903    2    3    3    0    0  0.73442045010E-01  0.10522927031E+00  0.36582684359E-01  0.14118869021E+00  0.46141306273E-01 0.  0.
         14    1    1    2    0    0  0.54771459170E-02 -0.11997196962E-01 -0.36931020916E-02  0.13695651332E-01  0.00000000000E+00 0. -1.
     999901    1    3    3    0    0 -0.78919190927E-01 -0.93232073345E-01 -0.32889582268E-01  0.88904565846E+00  0.88000000000E+00 0. -1.
        -11    1    4    4    0    0  0.11247227719E-01  0.51226969079E-02 -0.84966731526E-02  0.15006556255E-01  0.51100000000E-03 0. -1.
         11    1    4    4    0    0  0.62194817291E-01  0.10010657340E+00  0.45079357512E-01  0.12618213396E+00  0.51100000000E-03 0.  1.
</event>
<event>
 8    1  0.2928569E+004  0.1043930E+01  0.7957747E-01            NaN
         13   -1    0    0    0    0  0.00000000000E+00  0.00000000000E+00  0.74505805969E-08  0.10566000000E+00  0.10566000000E+00 0. -1.
     999900   -1    0    0    0    0 -0.00000000000E+00 -0.00000000000E+00 -0.74505805969E-08  0.93827000000E+00  0.93827000000E+00 0.  1.
     999902    2    1    2    0    0 -0.18232275211E-02 -0.74655182251E-03 -0.12646726583E-01  0.10311307347E+01  0.10310512940E+01 0.  0.
     999903    2    3    3    0    0  0.17840602768E-01  0.10311011365E+00 -0.84570382269E-01  0.14189179865E+00  0.45068285132E-01 0.  0.
         14    1    1    2    0    0  0.18232275211E-02  0.74655182251E-03  0.12646726583E-01  0.12799265272E-01  0.00000000000E+00 0. -1.
     999901    1    3    3    0    0 -0.19663830289E-01 -0.10385666547E+00  0.71923655686E-01  0.88923893607E+00  0.88000000000E+00 0. -1.
        -11    1    4    4    0    0 -0.11276813259E-01  0.56177058110E-01 -0.54131354659E-01  0.78825713149E-01  0.51100000000E-03 0. -1.
         11    1    4    4    0    0  0.29117416027E-01  0.46933055537E-01 -0.30439027610E-01  0.63066085505E-01  0.51100000000E-03 0.  1.
</event>
<event>
 8    1  0.2928569E+004  0.1043930E+01  0.7957747E-01            NaN
         13   -1    0    0    0    0  0.00000000000E+00  0.00000000000E+00  0.74505805969E-08  0.10566000000E+00  0.10566000000E+00 0. -1.
     999900   -1    0    0    0    0 -0.00000000000E+00 -0.00000000000E+00 -0.74505805969E-08  0.93827000000E+00  0.93827000000E+00 0.  1.
     999902    2    1    2    0    0  0.12946805050E-01  0.37240055464E-02  0.18589710065E-02  0.10303305974E+01  0.10302408438E+01 0.  0.
     999903    2    3    3    0    0  0.47146969324E-01  0.52706992403E-01  0.11417500437E+00  0.14118276064E+00  0.43540515789E-01 0.  0.
         14    1    1    2    0    0 -0.12946805050E-01 -0.37240055464E-02 -0.18589710065E-02  0.13599402616E-01  0.00000000000E+00 0.  1.
     999901    1    3    3    0    0 -0.34200164274E-01 -0.48982986856E-01 -0.11231603336E+00  0.88914783674E+00  0.88000000000E+00 0.  1.
        -11    1    4    4    0    0  0.32455840543E-01  0.31036619113E-01  0.10364948757E+00  0.11296074852E+00  0.51100000000E-03 0.  1.
         11    1    4    4    0    0  0.14691128782E-01  0.21670373289E-01  0.10525516797E-01  0.28222012122E-01  0.51100000000E-03 0. -1.
</event>
<event>
 8    1  0.2928569E+004  0.1043930E+01  0.7957747E-01            NaN
         13   -1    0    0    0    0  0.00000000000E+00  0.00000000000E+00  0.74505805969E-08  0.10566000000E+00  0.10566000000E+00 0.  1.
     999900   -1    0    0    0    0 -0.00000000000E+00 -0.00000000000E+00 -0.74505805969E-08  0.93827000000E+00  0.93827000000E+00 0.  1.
     999902    2    1    2    0    0 -0.40034462738E-02  0.71406063649E-02  0.11018663659E-01  0.10302031362E+01  0.10301116808E+01 0.  0.
     999903    2    3    3    0    0  0.49024285182E-01  0.82037691795E-01 -0.89676790468E-01  0.13971951018E+00  0.48436054368E-01 0.  0.
         14    1    1    2    0    0  0.40034462738E-02 -0.71406063649E-02 -0.11018663659E-01  0.13726863814E-01  0.00000000000E+00 0. -1.
     999901    1    3    3    0    0 -0.53027731456E-01 -0.74897085430E-01  0.10069545413E+00  0.89048362601E+00  0.88000000000E+00 0. -1.
        -11    1    4    4    0    0  0.37744691044E-02  0.42639140089E-01 -0.57347519471E-01  0.71563552141E-01  0.51100000000E-03 0. -1.
         11    1    4    4    0    0  0.45249816078E-01  0.39398551705E-01 -0.32329270997E-01  0.68155958035E-01  0.51100000000E-03 0.  1.
</event>
<event>
 8    1  0.2928569E+004  0.1043930E+01  0.7957747E-01            NaN
         13   -1    0    0    0    0  0.00000000000E+00  0.00000000000E+00  0.74505805969E-08  0.10566000000E+00  0.10566000000E+00 0. -1.
     999900   -1    0    0    0    0 -0.00000000000E+00 -0.00000000000E+00 -0.74505805969E-08  0.93827000000E+00  0.93827000000E+00 0. -1.
     999902    2    1    2    0    0 -0.50250686977E-02  0.13676758874E-01 -0.80952922788E-02  0.10272615026E+01  0.10271262609E+01 0.  0.
     999903    2    3    3    0    0 -0.55146908523E-01  0.20474386636E-01  0.11554606769E+00  0.13717971283E+00  0.44799529317E-01 0.  0.
         14    1    1    2    0    0  0.50250686977E-02 -0.13676758874E-01  0.80952922788E-02  0.16668497407E-01  0.00000000000E+00 0. -1.
     999901    1    3    3    0    0  0.50121839826E-01 -0.67976277621E-02 -0.12364135997E+00  0.89008178976E+00  0.88000000000E+00 0. -1.
        -11    1    4    4    0    0 -0.74696868454E-02  0.24453376873E-01  0.32735442554E-01  0.41540753270E-01  0.51100000000E-03 0.  1.
         11    1    4    4    0    0 -0.47677221678E-01 -0.39789902365E-02  0.82810625132E-01  0.95638959562E-01  0.51100000000E-03 0. -1.
</event>
<event>
 8    1  0.2928569E+004  0.1043930E+01  0.7957747E-01            NaN
         13   -1    0    0    0    0  0.00000000000E+00  0.00000000000E+00  0.74505805969E-08  0.10566000000E+00  0.10566000000E+00 0.  1.
     999900   -1    0    0    0    0 -0.00000000000E+00 -0.00000000000E+00 -0.74505805969E-08  0.93827000000E+00  0.93827000000E+00 0.  1.
     999902    2    1    2    0    0 -0.13314593839E-01 -0.83295479604E-03  0.15029418085E-02  0.10305049839E+01  0.10304175323E+01 0.  0.
     999903    2    3    3    0    0  0.28436873317E-01  0.80953214484E-01 -0.10076068270E+00  0.13983668910E+00  0.45160887276E-01 0.  0.
         14    1    1    2    0    0  0.13314593839E-01  0.83295479604E-03 -0.15029418085E-02  0.13425016085E-01  0.00000000000E+00 0. -1.
     999901    1    3    3    0    0 -0.41751467156E-01 -0.81786169280E-01  0.10226362451E+00  0.89066829482E+00  0.88000000000E+00 0. -1.
        -11    1    4    4    0    0  0.83719462556E-03  0.44919752026E-01 -0.75584613757E-01  0.87930540625E-01  0.51100000000E-03 0. -1.
         11    1    4    4    0    0  0.27599678692E-01  0.36033462459E-01 -0.25176068946E-01  0.51906148472E-01  0.51100000000E-03 0.  1.
</event>
<event>
 8    1  0.2928569E+004  0.1043930E+01  0.7957747E-01            NaN
         13   -1    0    0    0    0  0.00000000000E+00  0.00000000000E+00  0.74505805969E-08  0.10566000000E+00  0.10566000000E+00 0.  1.
     999900   -1    0    0    0    0 -0.00000000000E+00 -0.00000000000E+00 -0.74505805969E-08  0.93827000000E+00  0.93827000000E+00 0.  1.
     999902    2    1    2    0    0  0.14503674452E-02  0.12618209616E-01  0.58845482962E-02  0.10299317612E+01  0.10298366289E+01 0.  0.
     999903    2    3    3    0    0  0.11595383091E+00 -0.10647023495E-01  0.64014408315E-01  0.14030746142E+00  0.45052072584E-01 0.  0.
         14    1    1    2    0    0 -0.14503674452E-02 -0.12618209616E-01 -0.58845482962E-02  0.13998238757E-01  0.00000000000E+00 0.  1.
     999901    1    3    3    0    0 -0.11450346347E+00  0.23265233111E-01 -0.58129860019E-01  0.88962429983E+00  0.88000000000E+00 0. -1.
        -11    1    4    4    0    0  0.85853871365E-01  0.11546353181E-01  0.37148121736E-01  0.94257358173E-01  0.51100000000E-03 0.  1.
         11    1    4    4    0    0  0.30099959548E-01 -0.22193376677E-01  0.26866286579E-01  0.46050103243E-01  0.51100000000E-03 0. -1.
</event>
<event>
 8    1  0.2928569E+004  0.1043930E+01  0.7957747E-01            NaN
         13   -1    0    0    0    0  0.00000000000E+00  0.00000000000E+00  0.74505805969E-08  0.10566000000E+00  0.10566000000E+00 0.  1.
     999900   -1    0    0    0    0 -0.00000000000E+00 -0.00000000000E+00 -0.74505805969E-08  0.93827000000E+00  0.93827000000E+00 0. -1.
     999902    2    1    2    0    0 -0.24473270065E-02 -0.65061016097E-02 -0.92575657048E-02  0.10323532435E+01  0.10322883309E+01 0.  0.
     999903    2    3    3    0    0 -0.90873817487E-01  0.94410622267E-01  0.39700531299E-01  0.14083749794E+00  0.32979574556E-01 0.  0.
         14    1    1    2    0    0  0.24473270065E-02  0.65061016097E-02  0.92575657048E-02  0.11576756472E-01  0.00000000000E+00 0. -1.
     999901    1    3    3    0    0  0.88426490480E-01 -0.10091672388E+00 -0.48958097004E-01  0.89151574559E+00  0.88000000000E+00 0. -1.
        -11    1    4    4    0    0 -0.14359490198E-01  0.33030311236E-01  0.18444009735E-01  0.40467753029E-01  0.51100000000E-03 0. -1.
         11    1    4    4    0    0 -0.76514327288E-01  0.61380311031E-01  0.21256521564E-01  0.10036974491E+00  0.51100000000E-03 0.  1.
</event>
<event>
 8    1  0.2928569E+004  0.1043930E+01  0.7957747E-01            NaN
         13   -1    0    0    0    0  0.00000000000E+00  0.00000000000E+00  0.74505805969E-08  0.10566000000E+00  0.10566000000E+00 0. -1.
     999900   -1    0    0    0    0 -0.00000000000E+00 -0.00000000000E+00 -0.74505805969E-08  0.93827000000E+00  0.93827000000E+00 0.  1.
     999902    2    1    2    0    0  0.57987956914E-02  0.81716297662E-02  0.10346991960E-01  0.10295264655E+01  0.10294257046E+01 0.  0.
     999903    2    3    3    0    0  0.46755349464E-01 -0.89181784259E-01  0.86296809116E-01  0.13996280768E+00  0.44754831291E-01 0.  0.
         14    1    1    2    0    0 -0.57987956914E-02 -0.81716297662E-02 -0.10346991960E-01  0.14403534536E-01  0.00000000000E+00 0.  1.
     999901    1    3    3    0    0 -0.40956553773E-01  0.97353414025E-01 -0.75949817155E-01  0.88956365778E+00  0.88000000000E+00 0.  1.
        -11    1    4    4    0    0  0.42554437826E-01 -0.34457539904E-01  0.36134214710E-01  0.65605981653E-01  0.51100000000E-03 0.  1.
         11    1    4    4    0    0  0.42009116382E-02 -0.54724244354E-01  0.50162594406E-01  0.74356826030E-01  0.51100000000E-03 0. -1.
</event>
<event>
 8    1  0.2928569E+004  0.1043930E+01  0.7957747E-01            NaN
         13   -1    0    0    0    0  0.00000000000E+00  0.00000000000E+00  0.74505805969E-08  0.10566000000E+00  0.10566000000E+00 0.  1.
     999900   -1    0    0    0    0 -0.00000000000E+00 -0.00000000000E+00 -0.74505805969E-08  0.93827000000E+00  0.93827000000E+00 0. -1.
     999902    2    1    2    0    0  0.11417330945E-02 -0.11698459320E-01 -0.77638937098E-02  0.10298432846E+01  0.10297469375E+01 0.  0.
     999903    2    3    3    0    0  0.28701113063E-01 -0.11692753197E+00  0.57528274460E-01  0.14074500861E+00  0.44764421842E-01 0.  0.
         14    1    1    2    0    0 -0.11417330945E-02  0.11698459320E-01  0.77638937098E-02  0.14086715389E-01  0.00000000000E+00 0.  1.
     999901    1    3    3    0    0 -0.27559379969E-01  0.10522907265E+00 -0.65292168170E-01  0.88909827600E+00  0.88000000000E+00 0.  1.
        -11    1    4    4    0    0  0.13689556957E-01 -0.21496143782E-01  0.31831089379E-01  0.40779499007E-01  0.51100000000E-03 0.  1.
         11    1    4    4    0    0  0.15011556106E-01 -0.95431388192E-01  0.25697185081E-01  0.99965509607E-01  0.51100000000E-03 0. -1.
</event>
<event>
 8    1  0.2928569E+004  0.1043930E+01  0.7957747E-01            NaN
         13   -1    0    0    0    0  0.00000000000E+00  0.00000000000E+00  0.74505805969E-08  0.10566000000E+00  0.10566000000E+00 0.  1.
     999900   -1    0    0    0    0 -0.00000000000E+00 -0.00000000000E+00 -0.74505805969E-08  0.93827000000E+00  0.93827000000E+00 0.  1.
     999902    2    1    2    0    0 -0.33093566745E-02  0.13006024766E-01  0.32002111199E-02  0.10301332659E+01  0.10300408708E+01 0.  0.
     999903    2    3    3    0    0  0.10464601606E+00  0.82793231971E-01  0.75125998500E-02  0.14078338337E+00  0.44249451277E-01 0.  0.
         14    1    1    2    0    0  0.33093566745E-02 -0.13006024766E-01 -0.32002111199E-02  0.13796734143E-01  0.00000000000E+00 0. -1.
     999901    1    3    3    0    0 -0.10795537273E+00 -0.69787207205E-01 -0.43123887301E-02  0.88934988249E+00  0.88000000000E+00 0. -1.
        -11    1    4    4    0    0  0.38137583577E-02  0.21202221792E-01 -0.45157802528E-02  0.22016638118E-01  0.51100000000E-03 0. -1.
         11    1    4    4    0    0  0.10083225770E+00  0.61591010179E-01  0.12028380103E-01  0.11876674525E+00  0.51100000000E-03 0.  1.
</event>
<event>
 8    1  0.2928569E+004  0.1043930E+01  0.7957747E-01            NaN
         13   -1    0    0    0    0  0.00000000000E+00  0.00000000000E+00  0.74505805969E-08  0.10566000000E+00  0.10566000000E+00 0.  1.
     999900   -1    0    0    0    0 -0.00000000000E+00 -0.00000000000E+00 -0.74505805969E-08  0.93827000000E+00  0.93827000000E+00 0. -1.
     999902    2    1    2    0    0  0.56657186018E-02  0.36132257056E-02  0.24534056069E-02  0.10367763320E+01  0.10367516518E+01 0.  0.
     999903    2    3    3    0    0 -0.11643684669E+00 -0.73722448494E-01 -0.31126897027E-02  0.14496871573E+00  0.44874280217E-01 0.  0.
         14    1    1    2    0    0 -0.56657186018E-02 -0.36132257056E-02 -0.24534056069E-02  0.71536680344E-02  0.00000000000E+00 0. -1.
     999901    1    3    3    0    0  0.12210256529E+00  0.77335674200E-01  0.55660953096E-02  0.89180761623E+00  0.88000000000E+00 0. -1.
        -11    1    4    4    0    0 -0.55183342412E-01 -0.33988642754E-01  0.20913502043E-01  0.68103339160E-01  0.51100000000E-03 0. -1.
         11    1    4    4    0    0 -0.61253504277E-01 -0.39733805740E-01 -0.24026191746E-01  0.76865376572E-01  0.51100000000E-03 0.  1.
</event>
<event>
 8    1  0.2928569E+004  0.1043930E+01  0.7957747E-01            NaN
         13   -1    0    0    0    0  0.00000000000E+00  0.00000000000E+00  0.74505805969E-08  0.10566000000E+00  0.10566000000E+00 0. -1.
     999900   -1    0    0    0    0 -0.00000000000E+00 -0.00000000000E+00 -0.74505805969E-08  0.93827000000E+00  0.93827000000E+00 0.  1.
     999902    2    1    2    0    0  0.11220254283E-01 -0.66516592767E-02  0.26903585432E-02  0.10306117153E+01  0.10305256577E+01 0.  0.
     999903    2    3    3    0    0  0.56350538218E-01  0.86563140857E-01 -0.83587655435E-01  0.14034791331E+00  0.45189380592E-01 0.  0.
         14    1    1    2    0    0 -0.11220254283E-01  0.66516592767E-02 -0.26903585432E-02  0.13318284665E-01  0.00000000000E+00 0.  1.
     999901    1    3    3    0    0 -0.45130283934E-01 -0.93214800134E-01  0.86278013978E-01  0.89026380202E+00  0.88000000000E+00 0. -1.
        -11    1    4    4    0    0  0.62716075067E-01  0.75458497668E-01 -0.81101668856E-01  0.12729898960E+00  0.51100000000E-03 0. -1.
         11    1    4    4    0    0 -0.63655368489E-02  0.11104643189E-01 -0.24859865788E-02  0.13048923711E-01  0.51100000000E-03 0.  1.
</event>
<event>
 8    1  0.2928569E+004  0.1043930E+01  0.7957747E-01            NaN
         13   -1    0    0    0    0  0.00000000000E+00  0.00000000000E+00  0.74505805969E-08  0.10566000000E+00  0.10566000000E+00 0.  1.
     999900   -1    0    0    0    0 -0.00000000000E+00 -0.00000000000E+00 -0.74505805969E-08  0.93827000000E+00  0.93827000000E+00 0. -1.
     999902    2    1    2    0    0  0.70486510032E-02 -0.10726804964E-01  0.45090413421E-02  0.10303256154E+01  0.10302357956E+01 0.  0.
     999903    2    3    3    0    0  0.12337257537E+00 -0.39477723550E-01  0.39658428779E-01  0.14150991455E+00  0.40902101806E-01 0.  0.
         14    1    1    2    0    0 -0.70486510032E-02  0.10726804964E-01 -0.45090413421E-02  0.13604384570E-01  0.00000000000E+00 0. -1.
     999901    1    3    3    0    0 -0.11632392437E+00  0.28750918586E-01 -0.35149387436E-01  0.88881570088E+00  0.88000000000E+00 0. -1.
        -11    1    4    4    0    0  0.80747774826E-01 -0.48437040362E-02  0.24827418310E-01  0.84618712051E-01  0.51100000000E-03 0.  1.
         11    1    4    4    0    0  0.42624800542E-01 -0.34634019514E-01  0.14831010469E-01  0.56891202496E-01  0.51100000000E-03 0. -1.
</event>
<event>
 8    1  0.2928569E+004  0.1043930E+01  0.7957747E-01            NaN
         13   -1    0    0    0    0  0.00000000000E+00  0.00000000000E+00  0.74505805969E-08  0.10566000000E+00  0.10566000000E+00 0. -1.
     999900   -1    0    0    0    0 -0.00000000000E+00 -0.00000000000E+00 -0.74505805969E-08  0.93827000000E+00  0.93827000000E+00 0.  1.
     999902    2    1    2    0    0  0.71076212067E-02  0.10621290627E-01 -0.30867734998E-02  0.10307824426E+01  0.10306985911E+01 0.  0.
     999903    2    3    3    0    0 -0.26883150419E-01 -0.40334174171E-02 -0.13079721981E+00  0.14079362748E+00  0.44451778305E-01 0.  0.
         14    1    1    2    0    0 -0.71076212067E-02 -0.10621290627E-01  0.30867734998E-02  0.13147557356E-01  0.00000000000E+00 0.  1.
     999901    1    3    3    0    0  0.33990771626E-01  0.14654708044E-01  0.12771044631E+00  0.88998881517E+00  0.88000000000E+00 0. -1.
        -11    1    4    4    0    0 -0.20636791085E-01  0.19016618151E-01 -0.75967040593E-01  0.80986179621E-01  0.51100000000E-03 0.  1.
         11    1    4    4    0    0 -0.62463593340E-02 -0.23050035568E-01 -0.54830179221E-01  0.59807447856E-01  0.51100000000E-03 0. -1.
</event>
<event>
 8    1  0.2928569E+004  0.1043930E+01  0.7957747E-01            NaN
         13   -1    0    0    0    0  0.00000000000E+00  0.00000000000E+00  0.74505805969E-08  0.10566000000E+00  0.10566000000E+00 0.  1.
     999900   -1    0    0    0    0 -0.00000000000E+00 -0.00000000000E+00 -0.74505805969E-08  0.93827000000E+00  0.93827000000E+00 0. -1.
     999902    2    1    2    0    0 -0.13059389789E-01 -0.66183892733E-02 -0.30363632364E-02  0.10289777346E+01  0.10288690918E+01 0.  0.
     999903    2    3    3    0    0 -0.47321960977E-01  0.88296133862E-01  0.85345865813E-01  0.13881252024E+00  0.44152278740E-01 0.  0.
         14    1    1    2    0    0  0.13059389789E-01  0.66183892733E-02  0.30363632364E-02  0.14952265378E-01  0.00000000000E+00 0. -1.
     999901    1    3    3    0    0  0.34262571188E-01 -0.94914523135E-01 -0.88382229049E-01  0.89016521438E+00  0.88000000000E+00 0. -1.
        -11    1    4    4    0    0 -0.10740889129E-01  0.36519205686E-01  0.58873595101E-01  0.70109773957E-01  0.51100000000E-03 0.  1.
         11    1    4    4    0    0 -0.36581071849E-01  0.51776928176E-01  0.26472270711E-01  0.68702746281E-01  0.51100000000E-03 0. -1.
</event>
<event>
 8    1  0.2928569E+004  0.1043930E+01  0.7957747E-01            NaN
         13   -1    0    0    0    0  0.00000000000E+00  0.00000000000E+00  0.74505805969E-08  0.10566000000E+00  0.10566000000E+00 0.  1.
     999900   -1    0    0    0    0 -0.00000000000E+00 -0.00000000000E+00 -0.74505805969E-08  0.93827000000E+00  0.93827000000E+00 0.  1.
     999902    2    1    2    0    0  0.13547681998E-01  0.44122725790E-02  0.27368039327E-03  0.10296792899E+01  0.10295806706E+01 0.  0.
     999903    2    3    3    0    0 -0.89045999229E-01 -0.13824069482E-01  0.95538538496E-01  0.13842544236E+00  0.43745809845E-01 0.  0.
         14    1    1    2    0    0 -0.13547681998E-01 -0.44122725790E-02 -0.27368039327E-03  0.14250710081E-01  0.00000000000E+00 0. -1.
     999901    1    3    3    0    0  0.10259368123E+00  0.18236342062E-01 -0.95264858103E-01  0.89125384756E+00  0.88000000000E+00 0.  1.
        -11    1    4    4    0    0 -0.70736811637E-01 -0.20620383054E-01  0.50486766636E-01  0.89320050628E-01  0.51100000000E-03 0.  1.
         11    1    4    4    0    0 -0.18309187592E-01  0.67963135715E-02  0.45051771860E-01  0.49105391732E-01  0.51100000000E-03 0. -1.
</event>
<event>
 8    1  0.2928569E+004  0.1043930E+01  0.7957747E-01            NaN
         13   -1    0    0    0    0  0.00000000000E+00  0.00000000000E+00  0.74505805969E-08  0.10566000000E+00  0.10566000000E+00 0. -1.
     999900   -1    0    0    0    0 -0.00000000000E+00 -0.00000000000E+00 -0.74505805969E-08  0.93827000000E+00  0.93827000000E+00 0.  1.
     999902    2    1    2    0    0  0.26280772464E-02 -0.37059796977E-02  0.13330085645E-01  0.10298469514E+01  0.10297506548E+01 0.  0.
     999903    2    3    3    0    0 -0.10770241946E-02  0.86974483890E-01  0.10061299128E+00  0.14088408382E+00  0.46471821904E-01 0.  0.
         14    1    1    2    0    0 -0.26280772464E-02  0.37059796977E-02 -0.13330085645E-01  0.14083048634E-01  0.00000000000E+00 0.  1.
     999901    1    3    3    0    0  0.37051014410E-02 -0.90680463588E-01 -0.87282905637E-01  0.88896286754E+00  0.88000000000E+00 0.  1.
        -11    1    4    4    0    0  0.19876897420E-02  0.21755248568E-01  0.60327158697E-01  0.64162831516E-01  0.51100000000E-03 0.  1.
         11    1    4    4    0    0 -0.30647139366E-02  0.65219235322E-01  0.40285832585E-01  0.76721252307E-01  0.51100000000E-03 0. -1.
</event>
<event>
 8    1  0.2928569E+004  0.1043930E+01  0.7957747E-01            NaN
         13   -1    0    0    0    0  0.00000000000E+00  0.00000000000E+00  0.74505805969E-08  0.10566000000E+00  0.10566000000E+00 0.  1.
     999900   -1    0    0    0    0 -0.00000000000E+00 -0.00000000000E+00 -0.74505805969E-08  0.93827000000E+00  0.93827000000E+00 0.  1.
     999902    2    1    2    0    0 -0.12127757890E-01 -0.32031046454E-02 -0.56168052007E-02  0.10301862417E+01  0.10300945596E+01 0.  0.
     999903    2    3    3    0    0 -0.62088430526E-01 -0.63826798366E-01 -0.10100952917E+00  0.14155185525E+00  0.43648245608E-01 0.  0.
         14    1    1    2    0    0  0.12127757890E-01  0.32031046454E-02  0.56168052007E-02  0.13743758273E-01  0.00000000000E+00 0.  1.
     999901    1    3    3    0    0  0.49960672636E-01  0.60623693721E-01  0.95392723973E-01  0.88863438648E+00  0.88000000000E+00 0. -1.
        -11    1    4    4    0    0  0.58461724369E-03 -0.25877113920E-01 -0.25550506293E-01  0.36373840806E-01  0.51100000000E-03 0. -1.
         11    1    4    4    0    0 -0.62673047770E-01 -0.37949684446E-01 -0.75459022881E-01  0.10517801444E+00  0.51100000000E-03 0.  1.
</event>
<event>
 8    1  0.2928569E+004  0.1043930E+01  0.7957747E-01            NaN
         13   -1    0    0    0    0  0.00000000000E+00  0.00000000000E+00  0.74505805969E-08  0.10566000000E+00  0.10566000000E+00 0.  1.
     999900   -1    0    0    0    0 -0.00000000000E+00 -0.00000000000E+00 -0.74505805969E-08  0.93827000000E+00  0.93827000000E+00 0. -1.
     999902    2    1    2    0    0 -0.16488725136E-02 -0.78659307697E-02  0.11630772564E-01  0.10297925845E+01  0.10296955378E+01 0.  0.
     999903    2    3    3    0    0  0.96528344391E-01  0.89257866484E-01 -0.16301510512E-02  0.13892354246E+00  0.44859840146E-01 0.  0.
         14    1    1    2    0    0  0.16488725136E-02  0.78659307697E-02 -0.11630772564E-01  0.14137415530E-01  0.00000000000E+00 0. -1.
     999901    1    3    3    0    0 -0.98177216904E-01 -0.97123797253E-01  0.13260923615E-01  0.89086904201E+00  0.88000000000E+00 0.  1.
        -11    1    4    4    0    0  0.52318437104E-01  0.35415516901E-01 -0.21056729136E-01  0.66596731611E-01  0.51100000000E-03 0.  1.
         11    1    4    4    0    0  0.44209907287E-01  0.53842349583E-01  0.19426578085E-01  0.72326810852E-01  0.51100000000E-03 0. -1.
</event>
<event>
 8    1  0.2928569E+004  0.1043930E+01  0.7957747E-01            NaN
         13   -1    0    0    0    0  0.00000000000E+00  0.00000000000E+00  0.74505805969E-08  0.10566000000E+00  0.10566000000E+00 0.  1.
     999900   -1    0    0    0    0 -0.00000000000E+00 -0.00000000000E+00 -0.74505805969E-08  0.93827000000E+00  0.93827000000E+00 0. -1.
     999902    2    1    2    0    0  0.85050857791E-02  0.10224806957E-01 -0.26793551898E-02  0.10303630510E+01  0.10302737281E+01 0.  0.
     999903    2    3    3    0    0 -0.71307195125E-01 -0.35698757346E-01  0.10478166512E+00  0.13905679339E+00  0.44704329649E-01 0.  0.
         14    1    1    2    0    0 -0.85050857791E-02 -0.10224806957E-01  0.26793551898E-02  0.13566949017E-01  0.00000000000E+00 0.  1.
     999901    1    3    3    0    0  0.79812280905E-01  0.45923564302E-01 -0.10746102031E+00  0.89130625759E+00  0.88000000000E+00 0. -1.
        -11    1    4    4    0    0 -0.56163353411E-01 -0.37775419093E-01  0.55735357238E-01  0.87681216469E-01  0.51100000000E-03 0. -1.
         11    1    4    4    0    0 -0.15143841714E-01  0.20766617477E-02  0.49046307882E-01  0.51375576918E-01  0.51100000000E-03 0.  1.
</event>
<event>
 8    1  0.2928569E+004  0.1043930E+01  0.7957747E-01            NaN
         13   -1    0    0    0    0  0.00000000000E+00  0.00000000000E+00  0.74505805969E-08  0.10566000000E+00  0.10566000000E+00 0.  1.
     999900   -1    0    0    0    0 -0.00000000000E+00 -0.00000000000E+00 -0.74505805969E-08  0.93827000000E+00  0.93827000000E+00 0. -1.
     999902    2    1    2    0    0  0.33454027849E-03 -0.29232044643E-02  0.13054087245E-01  0.10305484367E+01  0.10304615540E+01 0.  0.
     999903    2    3    3    0    0 -0.88321360968E-01  0.99811385860E-01 -0.43724812172E-02  0.13997673824E+00  0.42560464120E-01 0.  0.
         14    1    1    2    0    0 -0.33454027849E-03  0.29232044643E-02 -0.13054087245E-01  0.13381563262E-01  0.00000000000E+00 0. -1.
     999901    1    3    3    0    0  0.88655901247E-01 -0.10273459032E+00  0.17426568462E-01  0.89057169850E+00  0.88000000000E+00 0.  1.
        -11    1    4    4    0    0 -0.53792769565E-02 -0.19747294479E-03 -0.83953789728E-02  0.99859463866E-02  0.51100000000E-03 0. -1.
         11    1    4    4    0    0 -0.82942084012E-01  0.10000885881E+00  0.40228977557E-02  0.12999079185E+00  0.51100000000E-03 0.  1.
</event>
<event>
 8    1  0.2928569E+004  0.1043930E+01  0.7957747E-01            NaN
         13   -1    0    0    0    0  0.00000000000E+00  0.00000000000E+00  0.74505805969E-08  0.10566000000E+00  0.10566000000E+00 0. -1.
     999900   -1    0    0    0    0 -0.00000000000E+00 -0.00000000000E+00 -0.74505805969E-08  0.93827000000E+00  0.93827000000E+00 0. -1.
     999902    2    1    2    0    0  0.82406607524E-02 -0.76175953961E-02  0.71372162435E-02  0.10306305224E+01  0.10305447091E+01 0.  0.
     999903    2    3    3    0    0 -0.92484344198E-01 -0.41960323872E-01 -0.88401636425E-01  0.13908544669E+00  0.34869606490E-01 0.  0.
         14    1    1    2    0    0 -0.82406607524E-02  0.76175953961E-02 -0.71372162435E-02  0.13299477620E-01  0.00000000000E+00 0.  1.
     999901    1    3    3    0    0  0.10072500495E+00  0.34342728476E-01  0.95538852668E-01  0.89154507569E+00  0.88000000000E+00 0.  1.
        -11    1    4    4    0    0 -0.77468086176E-01 -0.39827431327E-01 -0.88120479176E-01  0.12390725819E+00  0.51100000000E-03 0.  1.
         11    1    4    4    0    0 -0.15016258021E-01 -0.21328925447E-02 -0.28115724883E-03  0.15178188494E-01  0.51100000000E-03 0. -1.
</event>
<event>
 8    1  0.2928569E+004  0.1043930E+01  0.7957747E-01            NaN
         13   -1    0    0    0    0  0.00000000000E+00  0.00000000000E+00  0.74505805969E-08  0.10566000000E+00  0.10566000000E+00 0. -1.
     999900   -1    0    0    0    0 -0.00000000000E+00 -0.00000000000E+00 -0.74505805969E-08  0.93827000000E+00  0.93827000000E+00 0. -1.
     999902    2    1    2    0    0 -0.25169627880E-02  0.14387500311E-01 -0.10291767873E-02  0.10292877846E+01  0.10291836323E+01 0.  0.
     999903    2    3    3    0    0 -0.12434802793E+00  0.46378843267E-01 -0.16094514919E-02  0.14031838627E+00  0.45532735876E-01 0.  0.
         14    1    1    2    0    0  0.25169627880E-02 -0.14387500311E-01  0.10291767873E-02  0.14642215397E-01  0.00000000000E+00 0. -1.
     999901    1    3    3    0    0  0.12183106515E+00 -0.31991342956E-01  0.58027470465E-03  0.88896939834E+00  0.88000000000E+00 0.  1.
        -11    1    4    4    0    0 -0.46395977369E-01  0.44842897748E-02 -0.18627018065E-01  0.50198829605E-01  0.51100000000E-03 0. -1.
         11    1    4    4    0    0 -0.77952050566E-01  0.41894553492E-01  0.17017566573E-01  0.90119556661E-01  0.51100000000E-03 0.  1.
</event>
<event>
 8    1  0.2928569E+004  0.1043930E+01  0.7957747E-01            NaN
         13   -1    0    0    0    0  0.00000000000E+00  0.00000000000E+00  0.74505805969E-08  0.10566000000E+00  0.10566000000E+00 0.  1.
     999900   -1    0    0    0    0 -0.00000000000E+00 -0.00000000000E+00 -0.74505805969E-08  0.93827000000E+00  0.93827000000E+00 0.  1.
     999902    2    1    2    0    0 -0.20303844949E-01 -0.11516600286E-01  0.21185599104E-02  0.10204914314E+01  0.10202222283E+01 0.  0.
     999903    2    3    3    0    0 -0.73580188535E-01  0.55999514570E-01 -0.83455128937E-01  0.13216736285E+00  0.44198003110E-01 0.  0.
         14    1    1    2    0    0  0.20303844949E-01  0.11516600286E-01 -0.21185599104E-02  0.23438568599E-01  0.00000000000E+00 0.  1.
     999901    1    3    3    0    0  0.53276343586E-01 -0.67516114856E-01  0.85573688848E-01  0.88832406856E+00  0.88000000000E+00 0.  1.
        -11    1    4    4    0    0 -0.37392065326E-01  0.21414053393E-01 -0.66639281452E-01  0.79358573485E-01  0.51100000000E-03 0. -1.
         11    1    4    4    0    0 -0.36188123210E-01  0.34585461176E-01 -0.16815847485E-01  0.52808789362E-01  0.51100000000E-03 0.  1.
</event>
<event>
 8    1  0.2928569E+004  0.1043930E+01  0.7957747E-01            NaN
         13   -1    0    0    0    0  0.00000000000E+00  0.00000000000E+00  0.74505805969E-08  0.10566000000E+00  0.10566000000E+00 0.  1.
     999900   -1    0    0    0    0 -0.00000000000E+00 -0.00000000000E+00 -0.74505805969E-08  0.93827000000E+00  0.93827000000E+00 0.  1.
     999902    2    1    2    0    0  0.65809342843E-02  0.31809255541E-02  0.11970972340E-01  0.10299039114E+01  0.10298083975E+01 0.  0.
     999903    2    3    3    0    0 -0.89095463733E-02 -0.13211377442E+00  0.89178258926E-02  0.13942430322E+00  0.42733819195E-01 0.  0.
         14    1    1    2    0    0 -0.65809342843E-02 -0.31809255541E-02 -0.11970972340E-01  0.14026088628E-01  0.00000000000E+00 0. -1.
     999901    1    3    3    0    0  0.15490480658E-01  0.13529469997E+00  0.30531464470E-02  0.89047960815E+00  0.88000000000E+00 0. -1.
        -11    1    4    4    0    0 -0.25231920521E-01 -0.60180623851E-01  0.13314144309E-02  0.65271671387E-01  0.51100000000E-03 0. -1.
         11    1    4    4    0    0  0.16322374148E-01 -0.71933150565E-01  0.75864114616E-02  0.74152631834E-01  0.51100000000E-03 0.  1.
</event>
<event>
 8    1  0.2928569E+004  0.1043930E+01  0.7957747E-01            NaN
         13   -1    0    0    0    0  0.00000000000E+00  0.00000000000E+00  0.74505805969E-08  0.10566000000E+00  0.10566000000E+00 0.  1.
     999900   -1    0    0    0    0 -0.00000000000E+00 -0.00000000000E+00 -0.74505805969E-08  0.93827000000E+00  0.93827000000E+00 0.  1.
     999902    2    1    2    0    0  0.50221872633E-02  0.86070231002E-02 -0.88051449768E-02  0.10306321133E+01  0.10305463208E+01 0.  0.
     999903    2    3    3    0    0 -0.81165409366E-01 -0.25854808662E-01  0.10017477263E+00  0.13906464977E+00  0.45251485437E-01 0.  0.
         14    1    1    2    0    0 -0.50221872633E-02 -0.86070231002E-02  0.88051449768E-02  0.13297886660E-01  0.00000000000E+00 0.  1.
     999901    1    3    3    0    0  0.86187596630E-01  0.34461831762E-01 -0.10897991761E+00  0.89156746357E+00  0.88000000000E+00 0.  1.
        -11    1    4    4    0    0 -0.82329672289E-02  0.81313078580E-02  0.14046510744E-02  0.11667651114E-01  0.51100000000E-03 0. -1.
         11    1    4    4    0    0 -0.72932442138E-01 -0.33986116520E-01  0.98770121557E-01  0.12739699865E+00  0.51100000000E-03 0.  1.
</event>
<event>
 8    1  0.2928569E+004  0.1043930E+01  0.7957747E-01            NaN
         13   -1    0    0    0    0  0.00000000000E+00  0.00000000000E+00  0.74505805969E-08  0.10566000000E+00  0.10566000000E+00 0. -1.
     999900   -1    0    0    0    0 -0.00000000000E+00 -0.00000000000E+00 -0.74505805969E-08  0.93827000000E+00  0.93827000000E+00 0. -1.
     999902    2    1    2    0    0  0.77251746973E-02  0.98700823484E-02 -0.11239479369E-01  0.10270948360E+01  0.10269568537E+01 0.  0.
     999903    2    3    3    0    0 -0.72740276025E-01 -0.29072510617E-01  0.10044855792E+00  0.13554257621E+00  0.46319742509E-01 0.  0.
         14    1    1    2    0    0 -0.77251746973E-02 -0.98700823484E-02  0.11239479369E-01  0.16835163978E-01  0.00000000000E+00 0. -1.
     999901    1    3    3    0    0  0.80465450722E-01  0.38942592965E-01 -0.11168803729E+00  0.89155225981E+00  0.88000000000E+00 0. -1.
        -11    1    4    4    0    0 -0.40904332413E-01 -0.23322656191E-02  0.21400237619E-01  0.46225914423E-01  0.51100000000E-03 0. -1.
         11    1    4    4    0    0 -0.31835943611E-01 -0.26740244997E-01  0.79048320306E-01  0.89316661784E-01  0.51100000000E-03 0.  1.
</event>
<event>
 8    1  0.2928569E+004  0.1043930E+01  0.7957747E-01            NaN
         13   -1    0    0    0    0  0.00000000000E+00  0.00000000000E+00  0.74505805969E-08  0.10566000000E+00  0.10566000000E+00 0.  1.
     999900   -1    0    0    0    0 -0.00000000000E+00 -0.00000000000E+00 -0.74505805969E-08  0.93827000000E+00  0.93827000000E+00 0.  1.
     999902    2    1    2    0    0  0.41563922577E-02 -0.52006606489E-02 -0.10938752263E-01  0.10311245805E+01  0.10310450629E+01 0.  0.
     999903    2    3    3    0    0 -0.45515871477E-01 -0.57339577663E-01  0.11037626984E+00  0.13988772362E+00  0.45012582179E-01 0.  0.
         14    1    1    2    0    0 -0.41563922577E-02  0.52006606489E-02  0.10938752263E-01  0.12805419511E-01  0.00000000000E+00 0.  1.
     999901    1    3    3    0    0  0.49672263735E-01  0.52138917014E-01 -0.12131502210E+00  0.89123685687E+00  0.88000000000E+00 0.  1.
        -11    1    4    4    0    0 -0.30931558940E-01 -0.54633533757E-02  0.49057144124E-01  0.58253532761E-01  0.51100000000E-03 0. -1.
         11    1    4    4    0    0 -0.14584312538E-01 -0.51876224287E-01  0.61319125712E-01  0.81634190861E-01  0.51100000000E-03 0.  1.
</event>
<event>
 8    1  0.2928569E+004  0.1043930E+01  0.7957747E-01            NaN
         13   -1    0    0    0    0  0.00000000000E+00  0.00000000000E+00  0.74505805969E-08  0.10566000000E+00  0.10566000000E+00 0. -1.
     999900   -1    0    0    0    0 -0.00000000000E+00 -0.00000000000E+00 -0.74505805969E-08  0.93827000000E+00  0.93827000000E+00 0. -1.
     999902    2    1    2    0    0  0.64021169905E-02  0.12040702365E-01  0.11648538327E-02  0.10302434190E+01  0.10301525032E+01 0.  0.
     999903    2    3    3    0    0 -0.59031328982E-01  0.11625055526E+00 -0.30613771143E-01  0.14111400754E+00  0.44464263643E-01 0.  0.
         14    1    1    2    0    0 -0.64021169905E-02 -0.12040702365E-01 -0.11648538327E-02  0.13686581014E-01  0.00000000000E+00 0.  1.
     999901    1    3    3    0    0  0.65433445973E-01 -0.10420985289E+00  0.31778624976E-01  0.88912941145E+00  0.88000000000E+00 0. -1.
        -11    1    4    4    0    0 -0.34763258365E-01  0.91650727366E-01 -0.39090160516E-01  0.10553028821E+00  0.51100000000E-03 0. -1.
         11    1    4    4    0    0 -0.24268070618E-01  0.24599827891E-01  0.84763893725E-02  0.35583719333E-01  0.51100000000E-03 0.  1.
</event>
<event>
 8    1  0.2928569E+004  0.1043930E+01  0.7957747E-01            NaN
         13   -1    0    0    0    0  0.00000000000E+00  0.00000000000E+00  0.74505805969E-08  0.10566000000E+00  0.10566000000E+00 0. -1.
     999900   -1    0    0    0    0 -0.00000000000E+00 -0.00000000000E+00 -0.74505805969E-08  0.93827000000E+00  0.93827000000E+00 0. -1.
     999902    2    1    2    0    0  0.30235931280E-02 -0.47455560018E-03 -0.14047859623E-01  0.10295525983E+01  0.10294522053E+01 0.  0.
     999903    2    3    3    0    0 -0.59117280445E-01  0.12492942734E-01  0.11545312124E+00  0.13781264285E+00  0.44855042754E-01 0.  0.
         14    1    1    2    0    0 -0.30235931280E-02  0.47455560018E-03  0.14047859623E-01  0.14377401657E-01  0.00000000000E+00 0. -1.
     999901    1    3    3    0    0  0.62140873573E-01 -0.12967498334E-01 -0.12950098086E+00  0.89173995549E+00  0.88000000000E+00 0. -1.
        -11    1    4    4    0    0 -0.48300021514E-01  0.31868895080E-02  0.11351177809E+00  0.12340272780E+00  0.51100000000E-03 0.  1.
         11    1    4    4    0    0 -0.10817258931E-01  0.93060532256E-02  0.19413431455E-02  0.14409915046E-01  0.51100000000E-03 0. -1.
</event>
<event>
 8    1  0.2928569E+004  0.1043930E+01  0.7957747E-01            NaN
         13   -1    0    0    0    0  0.00000000000E+00  0.00000000000E+00  0.74505805969E-08  0.10566000000E+00  0.10566000000E+00 0. -1.
     999900   -1    0    0    0    0 -0.00000000000E+00 -0.00000000000E+00 -0.74505805969E-08  0.93827000000E+00  0.93827000000E+00 0.  1.
     999902    2    1    2    0    0  0.15502109631E-02 -0.13246563919E-02  0.13586588662E-01  0.10301912497E+01  0.10300996348E+01 0.  0.
     999903    2    3    3    0    0  0.60818175393E-01  0.11315393944E+00  0.36295136976E-01  0.14050944214E+00  0.43850905277E-01 0.  0.
         14    1    1    2    0    0 -0.15502109631E-02  0.13246563919E-02 -0.13586588662E-01  0.13738750310E-01  0.00000000000E+00 0.  1.
     999901    1    3    3    0    0 -0.59267964429E-01 -0.11447859584E+00 -0.22708548313E-01  0.88968180755E+00  0.88000000000E+00 0.  1.
        -11    1    4    4    0    0  0.28720152481E-01  0.74503424001E-01  0.23684661539E-02  0.79884154244E-01  0.51100000000E-03 0. -1.
         11    1    4    4    0    0  0.32098022912E-01  0.38650515444E-01  0.33926670822E-01  0.60625287900E-01  0.51100000000E-03 0.  1.
</event>
<event>
 8    1  0.2928569E+004  0.1043930E+01  0.7957747E-01            NaN
         13   -1    0    0    0    0  0.00000000000E+00  0.00000000000E+00  0.74505805969E-08  0.10566000000E+00  0.10566000000E+00 0.  1.
     999900   -1    0    0    0    0 -0.00000000000E+00 -0.00000000000E+00 -0.74505805969E-08  0.93827000000E+00  0.93827000000E+00 0.  1.
     999902    2    1    2    0    0  0.11780778044E-01 -0.87319964734E-02  0.23437815827E-02  0.10290798214E+01  0.10289726677E+01 0.  0.
     999903    2    3    3    0    0  0.73392604958E-01 -0.14443948189E-04  0.11043642485E+00  0.14028511364E+00  0.45795572962E-01 0.  0.
         14    1    1    2    0    0 -0.11780778044E-01  0.87319964734E-02 -0.23437815827E-02  0.14850178647E-01  0.00000000000E+00 0.  1.
     999901    1    3    3    0    0 -0.61611826914E-01 -0.87175525252E-02 -0.10809264327E+00  0.88879470772E+00  0.88000000000E+00 0.  1.
        -11    1    4    4    0    0  0.69282366494E-01  0.13871829733E-01  0.81091144897E-01  0.10755700288E+00  0.51100000000E-03 0. -1.
         11    1    4    4    0    0  0.41102384638E-02 -0.13886273682E-01  0.29345279953E-01  0.32728110754E-01  0.51100000000E-03 0.  1.
</event>
<event>
 8    1  0.2928569E+004  0.1043930E+01  0.7957747E-01            NaN
         13   -1    0    0    0    0  0.00000000000E+00  0.00000000000E+00  0.74505805969E-08  0.10566000000E+00  0.10566000000E+00 0.  1.
     999900   -1    0    0    0    0 -0.00000000000E+00 -0.00000000000E+00 -0.74505805969E-08  0.93827000000E+00  0.93827000000E+00 0. -1.
     999902    2    1    2    0    0  0.65848032015E-02  0.98573184683E-02  0.82681077728E-02  0.10294770430E+01  0.10293755845E+01 0.  0.
     999903    2    3    3    0    0  0.11454561756E+00  0.59306786121E-01  0.33175936631E-01  0.14115210962E+00  0.46746998782E-01 0.  0.
         14    1    1    2    0    0 -0.65848032015E-02 -0.98573184683E-02 -0.82681077728E-02  0.14452957024E-01  0.00000000000E+00 0. -1.
     999901    1    3    3    0    0 -0.10796081436E+00 -0.49449467653E-01 -0.24907828858E-01  0.88832493336E+00  0.88000000000E+00 0. -1.
        -11    1    4    4    0    0  0.75809601425E-01  0.35475880623E-01 -0.18883660103E-02  0.83722522784E-01  0.51100000000E-03 0.  1.
         11    1    4    4    0    0  0.38736016138E-01  0.23830905498E-01  0.35064302641E-01  0.57429586833E-01  0.51100000000E-03 0. -1.
</event>
<event>
 8    1  0.2928569E+004  0.1043930E+01  0.7957747E-01            NaN
         13   -1    0    0    0    0  0.00000000000E+00  0.00000000000E+00  0.74505805969E-08  0.10566000000E+00  0.10566000000E+00 0. -1.
     999900   -1    0    0    0    0 -0.00000000000E+00 -0.00000000000E+00 -0.74505805969E-08  0.93827000000E+00  0.93827000000E+00 0.  1.
     999902    2    1    2    0    0 -0.74334292734E-02  0.11585899196E-01 -0.12082058460E-02  0.10301115814E+01  0.10300188937E+01 0.  0.
     999903    2    3    3    0    0 -0.66461625541E-01 -0.10307648900E+00 -0.48966195195E-01  0.13943059656E+00  0.44735810404E-01 0.  0.
         14    1    1    2    0    0  0.74334292734E-02 -0.11585899196E-01  0.12082058460E-02  0.13818418589E-01  0.00000000000E+00 0.  1.
     999901    1    3    3    0    0  0.59028196267E-01  0.11466238819E+00  0.47757989349E-01  0.89068098485E+00  0.88000000000E+00 0. -1.
        -11    1    4    4    0    0 -0.32996223574E-01 -0.42178573309E-01 -0.44791069937E-01  0.69816071815E-01  0.51100000000E-03 0.  1.
         11    1    4    4    0    0 -0.33465401966E-01 -0.60897915690E-01 -0.41751252580E-02  0.69614524749E-01  0.51100000000E-03 0. -1.
</event>
<event>
 8    1  0.2928569E+004  0.1043930E+01  0.7957747E-01            NaN
         13   -1    0    0    0    0  0.00000000000E+00  0.00000000000E+00  0.74505805969E-08  0.10566000000E+00  0.10566000000E+00 0. -1.
     999900   -1    0    0    0    0 -0.00000000000E+00 -0.00000000000E+00 -0.74505805969E-08  0.93827000000E+00  0.93827000000E+00 0.  1.
     999902    2    1    2    0    0 -0.36174635148E-02  0.72639188409E-02 -0.11215454120E-01  0.10300866994E+01  0.10299936754E+01 0.  0.
     999903    2    3    3    0    0  0.79650547201E-01 -0.89355937902E-01  0.53295861117E-01  0.13855393610E+00  0.45033888217E-01 0.  0.
         14    1    1    2    0    0  0.36174635148E-02 -0.72639188409E-02  0.11215454120E-01  0.13843300558E-01  0.00000000000E+00 0.  1.
     999901    1    3    3    0    0 -0.83268010715E-01  0.96619856742E-01 -0.64511315238E-01  0.89153276335E+00  0.88000000000E+00 0.  1.
        -11    1    4    4    0    0  0.64458072052E-01 -0.91874608026E-01  0.43936387662E-01  0.12052573972E+00  0.51100000000E-03 0. -1.
         11    1    4    4    0    0  0.15192475148E-01  0.25186701241E-02  0.93594734549E-02  0.18028196379E-01  0.51100000000E-03 0.  1.
</event>
<event>
 8    1  0.2928569E+004  0.1043930E+01  0.7957747E-01            NaN
         13   -1    0    0    0    0  0.00000000000E+00  0.00000000000E+00  0.74505805969E-08  0.10566000000E+00  0.10566000000E+00 0. -1.
     999900   -1    0    0    0    0 -0.00000000000E+00 -0.00000000000E+00 -0.74505805969E-08  0.93827000000E+00  0.93827000000E+00 0. -1.
     999902    2    1    2    0    0 -0.25617867089E-02  0.58186372432E-02  0.11967391262E-01  0.10303786995E+01  0.10302895839E+01 0.  0.
     999903    2    3    3    0    0  0.12144458914E+00 -0.48921497090E-01 -0.17095553210E-01  0.13952589559E+00  0.45090093058E-01 0.  0.
         14    1    1    2    0    0  0.25617867089E-02 -0.58186372432E-02 -0.11967391262E-01  0.13551300459E-01  0.00000000000E+00 0.  1.
     999901    1    3    3    0    0 -0.12400637585E+00  0.54740134333E-01  0.29062944472E-01  0.89085280395E+00  0.88000000000E+00 0.  1.
        -11    1    4    4    0    0  0.52519101062E-01 -0.20458405620E-01  0.15018588927E-01  0.58331993548E-01  0.51100000000E-03 0. -1.
         11    1    4    4    0    0  0.68925488081E-01 -0.28463091470E-01 -0.32114142137E-01  0.81193902046E-01  0.51100000000E-03 0.  1.
</event>
<event>
 8    1  0.2928569E+004  0.1043930E+01  0.7957747E-01            NaN
         13   -1    0    0    0    0  0.00000000000E+00  0.00000000000E+00  0.74505805969E-08  0.10566000000E+00  0.10566000000E+00 0. -1.
     999900   -1    0    0    0    0 -0.00000000000E+00 -0.00000000000E+00 -0.74505805969E-08  0.93827000000E+00  0.93827000000E+00 0. -1.
     999902    2    1    2    0    0 -0.43352687111E-02  0.10303425634E-01  0.32993027765E-02  0.10322749353E+01  0.10322091365E+01 0.  0.
     999903    2    3    3    0    0  0.84285177525E-01 -0.66127630306E-01 -0.79188179137E-01  0.14070358398E+00  0.45275558410E-01 0.  0.
         14    1    1    2    0    0  0.43352687111E-02 -0.10303425634E-01 -0.32993027765E-02  0.11655064711E-01  0.00000000000E+00 0.  1.
     999901    1    3    3    0    0 -0.88620446236E-01  0.76431055941E-01  0.82487481914E-01  0.89157135131E+00  0.88000000000E+00 0.  1.
        -11    1    4    4    0    0  0.72949618131E-01 -0.45089801601E-01 -0.39608156877E-01  0.94465889114E-01  0.51100000000E-03 0.  1.
         11    1    4    4    0    0  0.11335559394E-01 -0.21037828706E-01 -0.39580022260E-01  0.46237694866E-01  0.51100000000E-03 0. -1.
</event>
<event>
 8    1  0.2928569E+004  0.1043930E+01  0.7957747E-01            NaN
         13   -1    0    0    0    0  0.00000000000E+00  0.00000000000E+00  0.74505805969E-08  0.10566000000E+00  0.10566000000E+00 0. -1.
     999900   -1    0    0    0    0 -0.00000000000E+00 -0.00000000000E+00 -0.74505805969E-08  0.93827000000E+00  0.93827000000E+00 0. -1.
     999902    2    1    2    0    0  0.17703798229E-02  0.12795510083E-01 -0.52853245071E-02  0.10299731387E+01  0.10298785717E+01 0.  0.
     999903    2    3    3    0    0 -0.82062454514E-01  0.10424785028E+00 -0.12226901749E-01  0.14124389974E+00  0.46887966016E-01 0.  0.
         14    1    1    2    0    0 -0.17703798229E-02 -0.12795510083E-01  0.52853245071E-02  0.13956861329E-01  0.00000000000E+00 0.  1.
     999901    1    3    3    0    0  0.83832834337E-01 -0.91452340201E-01  0.69415772415E-02  0.88872923893E+00  0.88000000000E+00 0.  1.
        -11    1    4    4    0    0 -0.27304412172E-01  0.20178063500E-01  0.15243251445E-01  0.37219658868E-01  0.51100000000E-03 0.  1.
         11    1    4    4    0    0 -0.54758042342E-01  0.84069786783E-01 -0.27470153193E-01  0.10402424087E+00  0.51100000000E-03 0. -1.
</event>
<event>
 8    1  0.2928569E+004  0.1043930E+01  0.7957747E-01            NaN
         13   -1    0    0    0    0  0.00000000000E+00  0.00000000000E+00  0.74505805969E-08  0.10566000000E+00  0.10566000000E+00 0.  1.
     999900   -1    0    0    0    0 -0.00000000000E+00 -0.00000000000E+00 -0.74505805969E-08  0.93827000000E+00  0.93827000000E+00 0. -1.
     999902    2    1    2    0    0 -0.98384063918E-02 -0.11024313989E-02 -0.83063091648E-02  0.10310069830E+01  0.10309259890E+01 0.  0.
     999903    2    3    3    0    0  0.12734693055E+00  0.35228860444E-01 -0.44454554495E-02  0.13962901291E+00  0.44924223363E-01 0.  0.
         14    1    1    2    0    0  0.98384063918E-02  0.11024313989E-02  0.83063091648E-02  0.12923016957E-01  0.00000000000E+00 0.  1.
     999901    1    3    3    0    0 -0.13718533694E+00 -0.36331291843E-01 -0.38608537154E-02  0.89137797013E+00  0.88000000000E+00 0.  1.
        -11    1    4    4    0    0  0.87075732698E-01  0.24569694107E-02  0.30626095969E-02  0.87165707833E-01  0.51100000000E-03 0.  1.
         11    1    4    4    0    0  0.40271197852E-01  0.32771891033E-01 -0.75080650464E-02  0.52463305082E-01  0.51100000000E-03 0. -1.
</event>
<event>
 8    1  0.2928569E+004  0.1043930E+01  0.7957747E-01            NaN
         13   -1    0    0    0    0  0.00000000000E+00  0.00000000000E+00  0.74505805969E-08  0.10566000000E+00  0.10566000000E+00 0.  1.
     999900   -1    0    0    0    0 -0.00000000000E+00 -0.00000000000E+00 -0.74505805969E-08  0.93827000000E+00  0.93827000000E+00 0. -1.
     999902    2    1    2    0    0 -0.41184687754E-02  0.93908635816E-02 -0.78915903643E-02  0.10309906298E+01  0.10309094293E+01 0.  0.
     999903    2    3    3    0    0  0.16195631770E-01 -0.37299970165E-01  0.12525888461E+00  0.13951895571E+00  0.46066957431E-01 0.  0.
         14    1    1    2    0    0  0.41184687754E-02 -0.93908635816E-02  0.78915903643E-02  0.12939370245E-01  0.00000000000E+00 0.  1.
     999901    1    3    3    0    0 -0.20314100546E-01  0.46690833747E-01 -0.13315047497E+00  0.89147167404E+00  0.88000000000E+00 0. -1.
        -11    1    4    4    0    0 -0.13183184532E-01 -0.26580204697E-01  0.69844083974E-01  0.75886499612E-01  0.51100000000E-03 0.  1.
         11    1    4    4    0    0  0.29378816303E-01 -0.10719765468E-01  0.55414800633E-01  0.63632456099E-01  0.51100000000E-03 0. -1.
</event>
<event>
 7    1  0.2928569E+004  0.1043930E+01  0.7957747E-01            NaN
         13   -1    0    0    0    0  0.00000000000E+00  0.00000000000E+00  0.74505805969E-08  0.10566000000E+00  0.10566000000E+00 0. -1.
     999900   -1    0    0    0    0 -0.00000000000E+00 -0.00000000000E+00 -0.74505805969E-08  0.93827000000E+00  0.93827000000E+00 0.  1.
     999902    2    1    2    0    0  0.88926192551E-02  0.66593271512E-03  0.11283148732E-01  0.10295483593E+01  0.10294479067E+01 0.  0.
         14    1    1    2    0    0 -0.88926192551E-02 -0.66593271512E-03 -0.11283148732E-01  0.14381640689E-01  0.00000000000E+00 0.  1.
     999901    1    3    3    0    0  0.13877470058E-02  0.13093152918E+00 -0.30219186135E-01  0.89020120781E+00  0.88000000000E+00 0.  1.
        -11    1    3    3    0    0 -0.80959956234E-02 -0.71493691287E-01  0.26836344325E-01  0.76794163429E-01  0.51100000000E-03 0.  1.
         11    1    3    3    0    0  0.15600867873E-01 -0.58771905183E-01  0.14665990541E-01  0.62552988072E-01  0.51100000000E-03 0. -1.
</event>
<event>
 8    1  0.2928569E+004  0.1043930E+01  0.7957747E-01            NaN
         13   -1    0    0    0    0  0.00000000000E+00  0.00000000000E+00  0.74505805969E-08  0.10566000000E+00  0.10566000000E+00 0. -1.
     999900   -1    0    0    0    0 -0.00000000000E+00 -0.00000000000E+00 -0.74505805969E-08  0.93827000000E+00  0.93827000000E+00 0. -1.
     999902    2    1    2    0    0  0.12743791065E-01 -0.67693068784E-02 -0.79670817694E-03  0.10294779251E+01  0.10293764791E+01 0.  0.
     999903    2    3    3    0    0  0.34510393002E-02 -0.91532509572E-01 -0.96199035152E-01  0.14022387825E+00  0.44926291706E-01 0.  0.
         14    1    1    2    0    0 -0.12743791065E-01  0.67693068784E-02  0.79670817694E-03  0.14452074946E-01  0.00000000000E+00 0.  1.
     999901    1    3    3    0    0  0.92927517646E-02  0.84763202694E-01  0.95402326975E-01  0.88925404680E+00  0.88000000000E+00 0. -1.
        -11    1    4    4    0    0 -0.14113012295E-01 -0.23866999114E-01 -0.10563166398E-01  0.29675787573E-01  0.51100000000E-03 0.  1.
         11    1    4    4    0    0  0.17564051595E-01 -0.67665510458E-01 -0.85635868754E-01  0.11054809068E+00  0.51100000000E-03 0. -1.
</event>
<event>
 8    1  0.2928569E+004  0.1043930E+01  0.7957747E-01            NaN
         13   -1    0    0    0    0  0.00000000000E+00  0.00000000000E+00  0.74505805969E-08  0.10566000000E+00  0.10566000000E+00 0.  1.
     999900   -1    0    0    0    0 -0.00000000000E+00 -0.00000000000E+00 -0.74505805969E-08  0.93827000000E+00  0.93827000000E+00 0. -1.
     999902    2    1    2    0    0  0.30378724210E-02 -0.22339594717E-02 -0.12899589465E-01  0.10304905561E+01  0.10304029152E+01 0.  0.
     999903    2    3    3    0    0  0.16667452757E-01 -0.81996362276E-02 -0.13347197880E+00  0.14214430839E+00  0.45223857274E-01 0.  0.
         14    1    1    2    0    0 -0.30378724210E-02  0.22339594717E-02  0.12899589465E-01  0.13439443893E-01  0.00000000000E+00 0.  1.
     999901    1    3    3    0    0 -0.13629580336E-01  0.59656767560E-02  0.12057238934E+00  0.88834624772E+00  0.88000000000E+00 0.  1.
        -11    1    4    4    0    0 -0.12232476516E-01 -0.10532658660E-02 -0.12371734746E-01  0.17437425049E-01  0.51100000000E-03 0. -1.
         11    1    4    4    0    0  0.28899929273E-01 -0.71463703616E-02 -0.12110024406E+00  0.12470688334E+00  0.51100000000E-03 0.  1.
</event>
<event>
 8    1  0.2928569E+004  0.1043930E+01  0.7957747E-01            NaN
         13   -1    0    0    0    0  0.00000000000E+00  0.00000000000E+00  0.74505805969E-08  0.10566000000E+00  0.10566000000E+00 0.  1.
     999900   -1    0    0    0    0 -0.00000000000E+00 -0.00000000000E+00 -0.74505805969E-08  0.93827000000E+00  0.93827000000E+00 0.  1.
     999902    2    1    2    0    0  0.12838369007E-01  0.64391070880E-02 -0.42536981109E-02  0.10289506887E+01  0.10288416496E+01 0.  0.
     999903    2    3    3    0    0 -0.88432802777E-01  0.23233310119E-01 -0.94465757056E-01  0.13840248055E+00  0.43258757038E-01 0.  0.
         14    1    1    2    0    0 -0.12838369007E-01 -0.64391070880E-02  0.42536981109E-02  0.14979311282E-01  0.00000000000E+00 0.  1.
     999901    1    3    3    0    0  0.10127117178E+00 -0.16794203031E-01  0.90212058945E-01  0.89054820817E+00  0.88000000000E+00 0. -1.
        -11    1    4    4    0    0 -0.83166262323E-01  0.18562934861E-01 -0.98522620388E-01  0.13026195756E+00  0.51100000000E-03 0.  1.
         11    1    4    4    0    0 -0.52665404548E-02  0.46703752578E-02  0.40568633319E-02  0.81405229871E-02  0.51100000000E-03 0. -1.
</event>
<event>
 8    1  0.2928569E+004  0.1043930E+01  0.7957747E-01            NaN
         13   -1    0    0    0    0  0.00000000000E+00  0.00000000000E+00  0.74505805969E-08  0.10566000000E+00  0.10566000000E+00 0. -1.
     999900   -1    0    0    0    0 -0.00000000000E+00 -0.00000000000E+00 -0.74505805969E-08  0.93827000000E+00  0.93827000000E+00 0. -1.
     999902    2    1    2    0    0 -0.82185839304E-02 -0.52434418105E-02 -0.94499732800E-02  0.10303527838E+01  0.10302633248E+01 0.  0.
     999903    2    3    3    0    0  0.12439584542E-01  0.64347530603E-01  0.11377325391E+00  0.13880714446E+00  0.45030235270E-01 0.  0.
         14    1    1    2    0    0  0.82185839304E-02  0.52434418105E-02  0.94499732800E-02  0.13577216167E-01  0.00000000000E+00 0. -1.
     999901    1    3    3    0    0 -0.20658168472E-01 -0.69590972413E-01 -0.12322322719E+00  0.89154563937E+00  0.88000000000E+00 0. -1.
        -11    1    4    4    0    0  0.19427988103E-01  0.59024511230E-02  0.35056159269E-01  0.40515195602E-01  0.51100000000E-03 0.  1.
         11    1    4    4    0    0 -0.69884035614E-02  0.58445079480E-01  0.78717094646E-01  0.98291948857E-01  0.51100000000E-03 0. -1.
</event>
<event>
 8    1  0.2928569E+004  0.1043930E+01  0.7957747E-01            NaN
         13   -1    0    0    0    0  0.00000000000E+00  0.00000000000E+00  0.74505805969E-08  0.10566000000E+00  0.10566000000E+00 0.  1.
     999900   -1    0    0    0    0 -0.00000000000E+00 -0.00000000000E+00 -0.74505805969E-08  0.93827000000E+00  0.93827000000E+00 0. -1.
     999902    2    1    2    0    0 -0.80906858731E-02 -0.12972040831E-02  0.10080431357E-01  0.10309393483E+01  0.10308574988E+01 0.  0.
     999903    2    3    3    0    0  0.80164247543E-01  0.54302020099E-01 -0.89152350469E-01  0.13924021066E+00  0.45438735676E-01 0.  0.
         14    1    1    2    0    0  0.80906858731E-02  0.12972040831E-02 -0.10080431357E-01  0.12990651742E-01  0.00000000000E+00 0. -1.
     999901    1    3    3    0    0 -0.88254933416E-01 -0.55599224182E-01  0.99232781827E-01  0.89169913760E+00  0.88000000000E+00 0.  1.
        -11    1    4    4    0    0  0.62301287826E-01  0.53917003253E-01 -0.50457209695E-01  0.96616172744E-01  0.51100000000E-03 0. -1.
         11    1    4    4    0    0  0.17862959717E-01  0.38501684649E-03 -0.38695140774E-01  0.42624037917E-01  0.51100000000E-03 0.  1.
</event>
<event>
 8    1  0.2928569E+004  0.1043930E+01  0.7957747E-01            NaN
         13   -1    0    0    0    0  0.00000000000E+00  0.00000000000E+00  0.74505805969E-08  0.10566000000E+00  0.10566000000E+00 0. -1.
     999900   -1    0    0    0    0 -0.00000000000E+00 -0.00000000000E+00 -0.74505805969E-08  0.93827000000E+00  0.93827000000E+00 0.  1.
     999902    2    1    2    0    0 -0.69399638927E-02 -0.17998758087E-01 -0.19907428756E-03  0.10246386024E+01  0.10244569818E+01 0.  0.
     999903    2    3    3    0    0 -0.12779273418E+00 -0.10825041791E-01 -0.10670089577E-01  0.13628816677E+00  0.44860329353E-01 0.  0.
         14    1    1    2    0    0  0.69399638927E-02  0.17998758087E-01  0.19907428756E-03  0.19291397619E-01  0.00000000000E+00 0.  1.
     999901    1    3    3    0    0  0.12085277029E+00 -0.71737162966E-02  0.10471015289E-01  0.88835043561E+00  0.88000000000E+00 0. -1.
        -11    1    4    4    0    0 -0.61218313986E-01  0.17231686683E-01 -0.62671592260E-02  0.63907365764E-01  0.51100000000E-03 0.  1.
         11    1    4    4    0    0 -0.66574420197E-01 -0.28056728474E-01 -0.44029303510E-02  0.72380801004E-01  0.51100000000E-03 0. -1.
</event>
<event>
 8    1  0.2928569E+004  0.1043930E+01  0.7957747E-01            NaN
         13   -1    0    0    0    0  0.00000000000E+00  0.00000000000E+00  0.74505805969E-08  0.10566000000E+00  0.10566000000E+00 0. -1.
     999900   -1    0    0    0    0 -0.00000000000E+00 -0.00000000000E+00 -0.74505805969E-08  0.93827000000E+00  0.93827000000E+00 0.  1.
     999902    2    1    2    0    0  0.12477176872E-01 -0.37541418474E-02  0.35941029581E-02  0.10304136728E+01  0.10303250196E+01 0.  0.
     999903    2    3    3    0    0  0.72605371733E-01  0.45464669237E-02  0.11284838924E+00  0.14158253084E+00  0.44929319149E-01 0.  0.
         14    1    1    2    0    0 -0.12477176872E-01  0.37541418474E-02 -0.35941029581E-02  0.13516327156E-01  0.00000000000E+00 0.  1.
     999901    1    3    3    0    0 -0.60128194861E-01 -0.83006087711E-02 -0.10925428628E+00  0.88883114200E+00  0.88000000000E+00 0.  1.
        -11    1    4    4    0    0  0.41328194479E-01  0.24831214854E-01  0.64318927144E-01  0.80385287210E-01  0.51100000000E-03 0. -1.
         11    1    4    4    0    0  0.31277177254E-01 -0.20284747930E-01  0.48529462097E-01  0.61197243631E-01  0.51100000000E-03 0.  1.
</event>
<event>
 8    1  0.2928569E+004  0.1043930E+01  0.7957747E-01            NaN
         13   -1    0    0    0    0  0.00000000000E+00  0.00000000000E+00  0.74505805969E-08  0.10566000000E+00  0.10566000000E+00 0. -1.
     999900   -1    0    0    0    0 -0.00000000000E+00 -0.00000000000E+00 -0.74505805969E-08  0.93827000000E+00  0.93827000000E+00 0.  1.
     999902    2    1    2    0    0 -0.82420700249E-02 -0.49791629610E-02 -0.10052122489E-01  0.10300099085E+01  0.10299158425E+01 0.  0.
     999903    2    3    3    0    0  0.10031806699E+00  0.83704788905E-01  0.12567070979E-01  0.13862796194E+00  0.44604644457E-01 0.  0.
         14    1    1    2    0    0  0.82420700249E-02  0.49791629610E-02  0.10052122489E-01  0.13920091545E-01  0.00000000000E+00 0.  1.
     999901    1    3    3    0    0 -0.10856013702E+00 -0.88683951866E-01 -0.22619193467E-01  0.89138194652E+00  0.88000000000E+00 0.  1.
        -11    1    4    4    0    0  0.13719300490E-01  0.31201647925E-01  0.15193407386E-01  0.37321076997E-01  0.51100000000E-03 0. -1.
         11    1    4    4    0    0  0.86598766501E-01  0.52503140979E-01 -0.26263364073E-02  0.10130688494E+00  0.51100000000E-03 0.  1.
</event>
<event>
 8    1  0.2928569E+004  0.1043930E+01  0.7957747E-01            NaN
         13   -1    0    0    0    0  0.00000000000E+00  0.00000000000E+00  0.74505805969E-08  0.10566000000E+00  0.10566000000E+00 0.  1.
     999900   -1    0    0    0    0 -0.00000000000E+00 -0.00000000000E+00 -0.74505805969E-08  0.93827000000E+00  0.93827000000E+00 0.  1.
     999902    2    1    2    0    0  0.25716594417E-04  0.11194164073E-01  0.86307860970E-02  0.10297949217E+01  0.10296979073E+01 0.  0.
     999903    2    3    3    0    0  0.12187095013E+00 -0.42301780745E-02  0.50963966161E-01  0.14025781205E+00  0.46952157583E-01 0.  0.
         14    1    1    2    0    0 -0.25716594417E-04 -0.11194164073E-01 -0.86307860970E-02  0.14135078326E-01  0.00000000000E+00 0.  1.
     999901    1    3    3    0    0 -0.12184523354E+00  0.15424342148E-01 -0.42333180064E-01  0.88953710963E+00  0.88000000000E+00 0. -1.
        -11    1    4    4    0    0  0.15209943738E-01 -0.43161570994E-02  0.26442748231E-01  0.30813173410E-01  0.51100000000E-03 0.  1.
         11    1    4    4    0    0  0.10666100639E+00  0.85979024851E-04  0.24521217931E-01  0.10944463864E+00  0.51100000000E-03 0. -1.
</event>
<event>
 8    1  0.2928569E+004  0.1043930E+01  0.7957747E-01            NaN
         13   -1    0    0    0    0  0.00000000000E+00  0.00000000000E+00  0.74505805969E-08  0.10566000000E+00  0.10566000000E+00 0.  1.
     999900   -1    0    0    0    0 -0.00000000000E+00 -0.00000000000E+00 -0.74505805969E-08  0.93827000000E+00  0.93827000000E+00 0.  1.
     999902    2    1    2    0    0  0.43469863336E-02 -0.62907266167E-02 -0.11963518009E-01  0.10297315742E+01  0.10296336823E+01 0.  0.
     999903    2    3    3    0    0 -0.19276709396E-01 -0.66955932662E-01  0.11103333274E+00  0.13879579005E+00  0.45619972725E-01 0.  0.
         14    1    1    2    0    0 -0.43469863336E-02  0.62907266167E-02  0.11963518009E-01  0.14198425782E-01  0.00000000000E+00 0.  1.
     999901    1    3    3    0    0  0.23623695730E-01  0.60665206046E-01 -0.12299685075E+00  0.89093578417E+00  0.88000000000E+00 0.  1.
        -11    1    4    4    0    0 -0.69473922212E-02 -0.37789849974E-01  0.21957041235E-01  0.44257336121E-01  0.51100000000E-03 0. -1.
         11    1    4    4    0    0 -0.12329317175E-01 -0.29166082689E-01  0.89076291504E-01  0.94538453925E-01  0.51100000000E-03 0.  1.
</event>
<event>
 7    1  0.2928569E+004  0.1043930E+01  0.7957747E-01            NaN
         13   -1    0    0    0    0  0.00000000000E+00  0.00000000000E+00  0.74505805969E-08  0.10566000000E+00  0.10566000000E+00 0. -1.
     999900   -1    0    0    0    0 -0.00000000000E+00 -0.00000000000E+00 -0.74505805969E-08  0.93827000000E+00  0.93827000000E+00 0.  1.
     999902    2    1    2    0    0  0.81267255101E-02 -0.25964239454E-02  0.10843072785E-01  0.10301329963E+01  0.10300405976E+01 0.  0.
         14    1    1    2    0    0 -0.81267255101E-02  0.25964239454E-02 -0.10843072785E-01  0.13797003742E-01  0.00000000000E+00 0.  1.
     999901    1    3    3    0    0  0.54881023822E-01  0.10821970516E+00 -0.55938892816E-01  0.89008572120E+00  0.88000000000E+00 0.  1.
        -11    1    3    3    0    0 -0.26691447511E-01 -0.33685368959E-01  0.28973524254E-01  0.51834965813E-01  0.51100000000E-03 0. -1.
         11    1    3    3    0    0 -0.20062850801E-01 -0.77130760150E-01  0.37808441347E-01  0.88212309241E-01  0.51100000000E-03 0.  1.
</event>
<event>
 8    1  0.2928569E+004  0.1043930E+01  0.7957747E-01            NaN
         13   -1    0    0    0    0  0.00000000000E+00  0.00000000000E+00  0.74505805969E-08  0.10566000000E+00  0.10566000000E+00 0.  1.
     999900   -1    0    0    0    0 -0.00000000000E+00 -0.00000000000E+00 -0.74505805969E-08  0.93827000000E+00  0.93827000000E+00 0. -1.
     999902    2    1    2    0    0  0.16602415780E-02 -0.16919375842E-01 -0.64903463456E-02  0.10257325750E+01  0.10255711429E+01 0.  0.
     999903    2    3    3    0    0 -0.20901486192E-02 -0.30081047851E-01 -0.12656012299E+00  0.13747357769E+00  0.44410377956E-01 0.  0.
         14    1    1    2    0    0 -0.16602415780E-02  0.16919375842E-01  0.64903463456E-02  0.18197425001E-01  0.00000000000E+00 0.  1.
     999901    1    3    3    0    0  0.37503901972E-02  0.13161672009E-01  0.12006977665E+00  0.88825899731E+00  0.88000000000E+00 0.  1.
        -11    1    4    4    0    0  0.18122580179E-01 -0.87341963057E-02 -0.79300765633E-01  0.81814342559E-01  0.51100000000E-03 0.  1.
         11    1    4    4    0    0 -0.20212728799E-01 -0.21346851545E-01 -0.47259357359E-01  0.55659235131E-01  0.51100000000E-03 0. -1.
</event>
<event>
 8    1  0.2928569E+004  0.1043930E+01  0.7957747E-01            NaN
         13   -1    0    0    0    0  0.00000000000E+00  0.00000000000E+00  0.74505805969E-08  0.10566000000E+00  0.10566000000E+00 0.  1.
     999900   -1    0    0    0    0 -0.00000000000E+00 -0.00000000000E+00 -0.74505805969E-08  0.93827000000E+00  0.93827000000E+00 0. -1.
     999902    2    1    2    0    0 -0.10607330381E-01 -0.58807306347E-02 -0.29369979125E-02  0.10314510414E+01  0.10313755506E+01 0.  0.
     999903    2    3    3    0    0 -0.11851829360E+00  0.63717767949E-01 -0.85875068364E-02  0.14211384145E+00  0.44900543287E-01 0.  0.
         14    1    1    2    0    0  0.10607330381E-01  0.58807306347E-02  0.29369979125E-02  0.12478958584E-01  0.00000000000E+00 0. -1.
     999901    1    3    3    0    0  0.10791096322E+00 -0.69598498584E-01  0.56505089239E-02  0.88933719996E+00  0.88000000000E+00 0. -1.
        -11    1    4    4    0    0 -0.90468588509E-01  0.43623337155E-01 -0.25586059045E-01  0.10364588072E+00  0.51100000000E-03 0.  1.
         11    1    4    4    0    0 -0.28049705095E-01  0.20094430794E-01  0.16998552209E-01  0.38467960734E-01  0.51100000000E-03 0. -1.
</event>
<event>
 8    1  0.2928569E+004  0.1043930E+01  0.7957747E-01            NaN
         13   -1    0    0    0    0  0.00000000000E+00  0.00000000000E+00  0.74505805969E-08  0.10566000000E+00  0.10566000000E+00 0.  1.
     999900   -1    0    0    0    0 -0.00000000000E+00 -0.00000000000E+00 -0.74505805969E-08  0.93827000000E+00  0.93827000000E+00 0.  1.
     999902    2    1    2    0    0 -0.50547788050E-02 -0.38277026922E-02 -0.11206322434E-01  0.10310542958E+01  0.10309738974E+01 0.  0.
     999903    2    3    3    0    0 -0.85179728453E-01  0.50261393810E-01  0.88282661046E-01  0.14018747310E+00  0.45573078962E-01 0.  0.
         14    1    1    2    0    0  0.50547788050E-02  0.38277026922E-02  0.11206322434E-01  0.12875704220E-01  0.00000000000E+00 0.  1.
     999901    1    3    3    0    0  0.80124949648E-01 -0.54089096502E-01 -0.99488983480E-01  0.89086682268E+00  0.88000000000E+00 0. -1.
        -11    1    4    4    0    0 -0.73522332709E-01  0.52817424757E-01  0.90535264053E-01  0.12803167156E+00  0.51100000000E-03 0. -1.
         11    1    4    4    0    0 -0.11657395743E-01 -0.25560309468E-02 -0.22526030075E-02  0.12155801538E-01  0.51100000000E-03 0.  1.
</event>
<event>
 8    1  0.2928569E+004  0.1043930E+01  0.7957747E-01            NaN
         13   -1    0    0    0    0  0.00000000000E+00  0.00000000000E+00  0.74505805969E-08  0.10566000000E+00  0.10566000000E+00 0. -1.
     999900   -1    0    0    0    0 -0.00000000000E+00 -0.00000000000E+00 -0.74505805969E-08  0.93827000000E+00  0.93827000000E+00 0. -1.
     999902    2    1    2    0    0 -0.73797507064E-02  0.80889407603E-02  0.77136333058E-02  0.10305362768E+01  0.10304492350E+01 0.  0.
     999903    2    3    3    0    0 -0.55462736961E-01  0.89825795800E-01 -0.81401268109E-01  0.14096651970E+00  0.45832351511E-01 0.  0.
         14    1    1    2    0    0  0.73797507064E-02 -0.80889407603E-02 -0.77136333058E-02  0.13393723227E-01  0.00000000000E+00 0. -1.
     999901    1    3    3    0    0  0.48082986254E-01 -0.81736855040E-01  0.89114901415E-01  0.88956975707E+00  0.88000000000E+00 0.  1.
        -11    1    4    4    0    0 -0.49712241138E-01  0.38981572062E-01 -0.52867311852E-01  0.82377689109E-01  0.51100000000E-03 0. -1.
         11    1    4    4    0    0 -0.57504958229E-02  0.50844223738E-01 -0.28533956257E-01  0.58588830594E-01  0.51100000000E-03 0.  1.
</event>
<event>
 8    1  0.2928569E+004  0.1043930E+01  0.7957747E-01            NaN
         13   -1    0    0    0    0  0.00000000000E+00  0.00000000000E+00  0.74505805969E-08  0.10566000000E+00  0.10566000000E+00 0.  1.
     999900   -1    0    0    0    0 -0.00000000000E+00 -0.00000000000E+00 -0.74505805969E-08  0.93827000000E+00  0.93827000000E+00 0. -1.
     999902    2    1    2    0    0  0.10967606400E-01 -0.58269265430E-03  0.81192246980E-02  0.10302716791E+01  0.10301811409E+01 0.  0.
     999903    2    3    3    0    0  0.48531345286E-01 -0.29950054672E-02  0.12528689563E+00  0.14170816595E+00  0.44945929154E-01 0.  0.
         14    1    1    2    0    0 -0.10967606400E-01  0.58269265430E-03 -0.81192246980E-02  0.13658320928E-01  0.00000000000E+00 0. -1.
     999901    1    3    3    0    0 -0.37563738886E-01  0.24123128129E-02 -0.11716767094E+00  0.88856351312E+00  0.88000000000E+00 0. -1.
        -11    1    4    4    0    0 -0.15611147310E-02 -0.98524936853E-02  0.50201014950E-01  0.51185073352E-01  0.51100000000E-03 0.  1.
         11    1    4    4    0    0  0.50092460017E-01  0.68574882181E-02  0.75085880683E-01  0.90523092602E-01  0.51100000000E-03 0. -1.
</event>
<event>
 8    1  0.2928569E+004  0.1043930E+01  0.7957747E-01            NaN
         13   -1    0    0    0    0  0.00000000000E+00  0.00000000000E+00  0.74505805969E-08  0.10566000000E+00  0.10566000000E+00 0. -1.
     999900   -1    0    0    0    0 -0.00000000000E+00 -0.00000000000E+00 -0.74505805969E-08  0.93827000000E+00  0.93827000000E+00 0. -1.
     999902    2    1    2    0    0  0.10020852187E-01 -0.49324817955E-02  0.88821931784E-02  0.10296597438E+01  0.10295608520E+01 0.  0.
     999903    2    3    3    0    0 -0.21413274687E-01 -0.11097109191E+00 -0.67703984466E-01  0.13943632594E+00  0.45667799442E-01 0.  0.
         14    1    1    2    0    0 -0.10020852187E-01  0.49324817955E-02 -0.88821931784E-02  0.14270256160E-01  0.00000000000E+00 0.  1.
     999901    1    3    3    0    0  0.31434126875E-01  0.10603861012E+00  0.76586177645E-01  0.89022341790E+00  0.88000000000E+00 0.  1.
        -11    1    4    4    0    0  0.11815615842E-01 -0.46466227391E-01 -0.37361717085E-01  0.60785508884E-01  0.51100000000E-03 0. -1.
         11    1    4    4    0    0 -0.33228890529E-01 -0.64504864523E-01 -0.30342267381E-01  0.78650817058E-01  0.51100000000E-03 0.  1.
</event>
<event>
 8    1  0.2928569E+004  0.1043930E+01  0.7957747E-01            NaN
         13   -1    0    0    0    0  0.00000000000E+00  0.00000000000E+00  0.74505805969E-08  0.10566000000E+00  0.10566000000E+00 0.  1.
     999900   -1    0    0    0    0 -0.00000000000E+00 -0.00000000000E+00 -0.74505805969E-08  0.93827000000E+00  0.93827000000E+00 0.  1.
     999902    2    1    2    0    0  0.74359446782E-03 -0.89421399067E-02  0.10554220814E-01  0.10300769723E+01  0.10299838166E+01 0.  0.
     999903    2    3    3    0    0  0.11990486954E+00  0.24725637855E-01  0.50962595139E-01  0.14048955928E+00  0.46385291384E-01 0.  0.
         14    1    1    2    0    0 -0.74359446782E-03  0.89421399067E-02 -0.10554220814E-01  0.13853027677E-01  0.00000000000E+00 0. -1.
     999901    1    3    3    0    0 -0.11916127507E+00 -0.33667777761E-01 -0.40408374326E-01  0.88958741305E+00  0.88000000000E+00 0. -1.
        -11    1    4    4    0    0  0.97832757658E-02 -0.10840055211E-01  0.10105959196E-01  0.17765438749E-01  0.51100000000E-03 0.  1.
         11    1    4    4    0    0  0.11012159377E+00  0.35565693066E-01  0.40856635944E-01  0.12272412053E+00  0.51100000000E-03 0. -1.
</event>
<event>
 8    1  0.2928569E+004  0.1043930E+01  0.7957747E-01            NaN
         13   -1    0    0    0    0  0.00000000000E+00  0.00000000000E+00  0.74505805969E-08  0.10566000000E+00  0.10566000000E+00 0. -1.
     999900   -1    0    0    0    0 -0.00000000000E+00 -0.00000000000E+00 -0.74505805969E-08  0.93827000000E+00  0.93827000000E+00 0. -1.
     999902    2    1    2    0    0 -0.51391125706E-02 -0.76545444081E-02 -0.10231754263E-01  0.10301571527E+01  0.10300650794E+01 0.  0.
     999903    2    3    3    0    0  0.88716421752E-01 -0.95886528388E-01  0.17005118979E-01  0.14036190006E+00  0.48450584116E-01 0.  0.
         14    1    1    2    0    0  0.51391125706E-02  0.76545444081E-02  0.10231754263E-01  0.13772847324E-01  0.00000000000E+00 0. -1.
     999901    1    3    3    0    0 -0.93855534322E-01  0.88231983980E-01 -0.27236873242E-01  0.88979525262E+00  0.88000000000E+00 0. -1.
        -11    1    4    4    0    0  0.14031556316E-01 -0.27802195690E-01 -0.14702657681E-01  0.34442356506E-01  0.51100000000E-03 0.  1.
         11    1    4    4    0    0  0.74684865436E-01 -0.68084332699E-01  0.31707776660E-01  0.10591954355E+00  0.51100000000E-03 0. -1.
</event>
<event>
 8    1  0.2928569E+004  0.1043930E+01  0.7957747E-01            NaN
         13   -1    0    0    0    0  0.00000000000E+00  0.00000000000E+00  0.74505805969E-08  0.10566000000E+00  0.10566000000E+00 0. -1.
     999900   -1    0    0    0    0 -0.00000000000E+00 -0.00000000000E+00 -0.74505805969E-08  0.93827000000E+00  0.93827000000E+00 0.  1.
     999902    2    1    2    0    0 -0.12210496362E-01  0.57430447217E-02 -0.44858513141E-02  0.10297102375E+01  0.10296120490E+01 0.  0.
     999903    2    3    3    0    0  0.85732040105E-01  0.42585450729E-01 -0.90489952676E-01  0.13934693591E+00  0.45449243099E-01 0.  0.
         14    1    1    2    0    0  0.12210496362E-01 -0.57430447217E-02  0.44858513141E-02  0.14219762519E-01  0.00000000000E+00 0. -1.
     999901    1    3    3    0    0 -0.97942536467E-01 -0.36842406007E-01  0.86004101362E-01  0.89036330157E+00  0.88000000000E+00 0. -1.
        -11    1    4    4    0    0  0.77298797161E-02  0.22570850957E-01 -0.11300228049E-01  0.26403610138E-01  0.51100000000E-03 0.  1.
         11    1    4    4    0    0  0.78002160389E-01  0.20014599772E-01 -0.79189724627E-01  0.11294332577E+00  0.51100000000E-03 0. -1.
</event>
<event>
 8    1  0.2928569E+004  0.1043930E+01  0.7957747E-01            NaN
         13   -1    0    0    0    0  0.00000000000E+00  0.00000000000E+00  0.74505805969E-08  0.10566000000E+00  0.10566000000E+00 0. -1.
     999900   -1    0    0    0    0 -0.00000000000E+00 -0.00000000000E+00 -0.74505805969E-08  0.93827000000E+00  0.93827000000E+00 0.  1.
     999902    2    1    2    0    0  0.79802722134E-02  0.10017288286E-03  0.13093326086E-01  0.10285960518E+01  0.10284817489E+01 0.  0.
     999903    2    3    3    0    0 -0.26564050168E-01  0.88096193059E-01  0.96692162641E-01  0.13959359104E+00  0.40870629435E-01 0.  0.
         14    1    1    2    0    0 -0.79802722134E-02 -0.10017288286E-03 -0.13093326086E-01  0.15333948194E-01  0.00000000000E+00 0.  1.
     999901    1    3    3    0    0  0.34544322381E-01 -0.87996020176E-01 -0.83598836555E-01  0.88900246077E+00  0.88000000000E+00 0.  1.
        -11    1    4    4    0    0 -0.63025245048E-02  0.75873762146E-01  0.65472110413E-01  0.10041617380E+00  0.51100000000E-03 0. -1.
         11    1    4    4    0    0 -0.20261525663E-01  0.12222430913E-01  0.31220052229E-01  0.39177417242E-01  0.51100000000E-03 0.  1.
</event>
<event>
 8    1  0.2928569E+004  0.1043930E+01  0.7957747E-01            NaN
         13   -1    0    0    0    0  0.00000000000E+00  0.00000000000E+00  0.74505805969E-08  0.10566000000E+00  0.10566000000E+00 0. -1.
     999900   -1    0    0    0    0 -0.00000000000E+00 -0.00000000000E+00 -0.74505805969E-08  0.93827000000E+00  0.93827000000E+00 0. -1.
     999902    2    1    2    0    0  0.78177023012E-02 -0.10841740219E-01  0.17141076376E-02  0.10304541711E+01  0.10303660518E+01 0.  0.
     999903    2    3    3    0    0 -0.99280792579E-03  0.63214947045E-01  0.11631592386E+00  0.13989502408E+00  0.45211817257E-01 0.  0.
         14    1    1    2    0    0 -0.78177023012E-02  0.10841740219E-01 -0.17141076376E-02  0.13475828926E-01  0.00000000000E+00 0. -1.
     999901    1    3    3    0    0  0.88105102270E-02 -0.74056687264E-01 -0.11460181623E+00  0.89055914700E+00  0.88000000000E+00 0. -1.
        -11    1    4    4    0    0  0.72067364095E-02  0.58648823610E-01  0.65496815962E-01  0.88214032799E-01  0.51100000000E-03 0. -1.
         11    1    4    4    0    0 -0.81995443353E-02  0.45661234349E-02  0.50819107901E-01  0.51680991278E-01  0.51100000000E-03 0.  1.
</event>
<event>
 8    1  0.2928569E+004  0.1043930E+01  0.7957747E-01            NaN
         13   -1    0    0    0    0  0.00000000000E+00  0.00000000000E+00  0.74505805969E-08  0.10566000000E+00  0.10566000000E+00 0. -1.
     999900   -1    0    0    0    0 -0.00000000000E+00 -0.00000000000E+00 -0.74505805969E-08  0.93827000000E+00  0.93827000000E+00 0.  1.
     999902    2    1    2    0    0  0.40531326708E-02  0.39657621081E-03  0.13738912724E-01  0.10296002101E+01  0.10295004855E+01 0.  0.
     999903    2    3    3    0    0  0.57531415917E-01 -0.23398024206E-01 -0.11508624326E+00  0.13829665312E+00  0.44986548227E-01 0.  0.
         14    1    1    2    0    0 -0.40531326708E-02 -0.39657621081E-03 -0.13738912724E-01  0.14329789949E-01  0.00000000000E+00 0.  1.
     999901    1    3    3    0    0 -0.53478283246E-01  0.23794600417E-01  0.12882515599E+00  0.89130355693E+00  0.88000000000E+00 0. -1.
        -11    1    4    4    0    0  0.39700298469E-01 -0.22366741225E-02 -0.98023728066E-01  0.10578293244E+00  0.51100000000E-03 0. -1.
         11    1    4    4    0    0  0.17831117448E-01 -0.21161350083E-01 -0.17062515195E-01  0.32513720682E-01  0.51100000000E-03 0.  1.
</event>
<event>
 8    1  0.2928569E+004  0.1043930E+01  0.7957747E-01            NaN
         13   -1    0    0    0    0  0.00000000000E+00  0.00000000000E+00  0.74505805969E-08  0.10566000000E+00  0.10566000000E+00 0.  1.
     999900   -1    0    0    0    0 -0.00000000000E+00 -0.00000000000E+00 -0.74505805969E-08  0.93827000000E+00  0.93827000000E+00 0.  1.
     999902    2    1    2    0    0  0.11942676846E-01  0.12810014321E-02 -0.72114440403E-02  0.10299202384E+01  0.10298249483E+01 0.  0.
     999903    2    3    3    0    0 -0.61717341577E-01  0.10051038816E+00  0.58163124345E-01  0.13888370509E+00  0.44658326511E-01 0.  0.
         14    1    1    2    0    0 -0.11942676846E-01 -0.12810014321E-02  0.72114440403E-02  0.14009761599E-01  0.00000000000E+00 0.  1.
     999901    1    3    3    0    0  0.73660018423E-01 -0.99229386727E-01 -0.65374568385E-01  0.89103653331E+00  0.88000000000E+00 0.  1.
        -11    1    4    4    0    0 -0.31358467244E-01  0.35721806916E-01  0.14081311932E-02  0.47556754638E-01  0.51100000000E-03 0.  1.
         11    1    4    4    0    0 -0.30358874334E-01  0.64788581243E-01  0.56754993152E-01  0.91326950452E-01  0.51100000000E-03 0. -1.
</event>
<event>
 8    1  0.2928569E+004  0.1043930E+01  0.7957747E-01            NaN
         13   -1    0    0    0    0  0.00000000000E+00  0.00000000000E+00  0.74505805969E-08  0.10566000000E+00  0.10566000000E+00 0. -1.
     999900   -1    0    0    0    0 -0.00000000000E+00 -0.00000000000E+00 -0.74505805969E-08  0.93827000000E+00  0.93827000000E+00 0. -1.
     999902    2    1    2    0    0 -0.17580649038E-02 -0.14020407539E-01 -0.75047823059E-02  0.10279304882E+01  0.10278059662E+01 0.  0.
     999903    2    3    3    0    0 -0.97794807747E-01  0.77451974284E-01 -0.35833780295E-01  0.13754136837E+00  0.45507531918E-01 0.  0.
         14    1    1    2    0    0  0.17580649038E-02  0.14020407539E-01  0.75047823059E-02  0.15999511781E-01  0.00000000000E+00 0. -1.
     999901    1    3    3    0    0  0.96036742843E-01 -0.91472381823E-01  0.28328997989E-01  0.89038911985E+00  0.88000000000E+00 0.  1.
        -11    1    4    4    0    0 -0.88459404686E-01  0.49323994818E-01 -0.37124468092E-01  0.10787219287E+00  0.51100000000E-03 0. -1.
         11    1    4    4    0    0 -0.93354030603E-02  0.28127979466E-01  0.12906877971E-02  0.29669175505E-01  0.51100000000E-03 0.  1.
</event>
<event>
 8    1  0.2928569E+004  0.1043930E+01  0.7957747E-01            NaN
         13   -1    0    0    0    0  0.00000000000E+00  0.00000000000E+00  0.74505805969E-08  0.10566000000E+00  0.10566000000E+00 0.  1.
     999900   -1    0    0    0    0 -0.00000000000E+00 -0.00000000000E+00 -0.74505805969E-08  0.93827000000E+00  0.93827000000E+00 0.  1.
     999902    2    1    2    0    0 -0.11526244618E-01 -0.88173822550E-02 -0.15336209138E-02  0.10293371066E+01  0.10292336598E+01 0.  0.
     999903    2    3    3    0    0  0.67273385762E-01 -0.11159308141E+00 -0.22786583064E-01  0.13960461057E+00  0.44626165787E-01 0.  0.
         14    1    1    2    0    0  0.11526244618E-01  0.88173822550E-02  0.15336209138E-02  0.14592893405E-01  0.00000000000E+00 0. -1.
     999901    1    3    3    0    0 -0.78799630380E-01  0.10277569916E+00  0.21252962150E-01  0.88973249603E+00  0.88000000000E+00 0.  1.
        -11    1    4    4    0    0  0.35763629829E-01 -0.86472500505E-01 -0.55706176427E-03  0.93579388762E-01  0.51100000000E-03 0. -1.
         11    1    4    4    0    0  0.31509755933E-01 -0.25120580909E-01 -0.22229521300E-01  0.46025221807E-01  0.51100000000E-03 0.  1.
</event>
<event>
 8    1  0.2928569E+004  0.1043930E+01  0.7957747E-01            NaN
         13   -1    0    0    0    0  0.00000000000E+00  0.00000000000E+00  0.74505805969E-08  0.10566000000E+00  0.10566000000E+00 0. -1.
     999900   -1    0    0    0    0 -0.00000000000E+00 -0.00000000000E+00 -0.74505805969E-08  0.93827000000E+00  0.93827000000E+00 0. -1.
     999902    2    1    2    0    0 -0.53716091090E-03 -0.13064889936E-01  0.38911029916E-02  0.10302873986E+01  0.10301970700E+01 0.  0.
     999903    2    3    3    0    0 -0.50468406331E-01 -0.32597467049E-01 -0.11881348726E+00  0.14015759496E+00  0.43793284575E-01 0.  0.
         14    1    1    2    0    0  0.53716091090E-03  0.13064889936E-01 -0.38911029916E-02  0.13642601416E-01  0.00000000000E+00 0.  1.
     999901    1    3    3    0    0  0.49931245420E-01  0.19532577112E-01  0.12270459025E+00  0.89012980363E+00  0.88000000000E+00 0.  1.
        -11    1    4    4    0    0 -0.13439458630E-01 -0.28825929378E-02 -0.17923329138E-02  0.13870903669E-01  0.51100000000E-03 0. -1.
         11    1    4    4    0    0 -0.37028947701E-01 -0.29714874111E-01 -0.11702115434E+00  0.12628669129E+00  0.51100000000E-03 0.  1.
</event>
<event>
 8    1  0.2928569E+004  0.1043930E+01  0.7957747E-01            NaN
         13   -1    0    0    0    0  0.00000000000E+00  0.00000000000E+00  0.74505805969E-08  0.10566000000E+00  0.10566000000E+00 0. -1.
     999900   -1    0    0    0    0 -0.00000000000E+00 -0.00000000000E+00 -0.74505805969E-08  0.93827000000E+00  0.93827000000E+00 0.  1.
     999902    2    1    2    0    0  0.10271302612E-01 -0.70584013925E-02 -0.11752630785E-01  0.10267997631E+01  0.10266568601E+01 0.  0.
     999903    2    3    3    0    0  0.10922939986E+00 -0.71623940652E-01 -0.11990837630E-01  0.13890254455E+00  0.45706520640E-01 0.  0.
         14    1    1    2    0    0 -0.10271302612E-01  0.70584013925E-02  0.11752630785E-01  0.17130236950E-01  0.00000000000E+00 0.  1.
     999901    1    3    3    0    0 -0.98958097245E-01  0.64565539259E-01  0.23820684489E-03  0.88789721850E+00  0.88000000000E+00 0. -1.
        -11    1    4    4    0    0  0.87548410732E-01 -0.75297552986E-01 -0.41489195130E-02  0.11555051000E+00  0.51100000000E-03 0.  1.
         11    1    4    4    0    0  0.21680989126E-01  0.36736123341E-02 -0.78419181171E-02  0.23352034554E-01  0.51100000000E-03 0. -1.
</event>
<event>
 8    1  0.2928569E+004  0.1043930E+01  0.7957747E-01            NaN
         13   -1    0    0    0    0  0.00000000000E+00  0.00000000000E+00  0.74505805969E-08  0.10566000000E+00  0.10566000000E+00 0. -1.
     999900   -1    0    0    0    0 -0.00000000000E+00 -0.00000000000E+00 -0.74505805969E-08  0.93827000000E+00  0.93827000000E+00 0.  1.
     999902    2    1    2    0    0  0.27570384944E-02  0.45985045452E-02  0.11845069595E-01  0.10309279548E+01  0.10308459608E+01 0.  0.
     999903    2    3    3    0    0  0.10886075103E+00  0.67285766799E-01 -0.33881484529E-01  0.14116472315E+00  0.49004964436E-01 0.  0.
         14    1    1    2    0    0 -0.27570384944E-02 -0.45985045452E-02 -0.11845069595E-01  0.13002045186E-01  0.00000000000E+00 0.  1.
     999901    1    3    3    0    0 -0.10610371254E+00 -0.62687262254E-01  0.45726554124E-01  0.88976323166E+00  0.88000000000E+00 0. -1.
        -11    1    4    4    0    0  0.23359431484E-01  0.31146770488E-01 -0.28368069326E-01  0.48174607725E-01  0.51100000000E-03 0. -1.
         11    1    4    4    0    0  0.85501319550E-01  0.36138996311E-01 -0.55134152028E-02  0.92990115428E-01  0.51100000000E-03 0.  1.
</event>
<event>
 8    1  0.2928569E+004  0.1043930E+01  0.7957747E-01            NaN
         13   -1    0    0    0    0  0.00000000000E+00  0.00000000000E+00  0.74505805969E-08  0.10566000000E+00  0.10566000000E+00 0.  1.
     999900   -1    0    0    0    0 -0.00000000000E+00 -0.00000000000E+00 -0.74505805969E-08  0.93827000000E+00  0.93827000000E+00 0. -1.
     999902    2    1    2    0    0  0.11213313648E-01  0.10680628754E-01 -0.31402074229E-03  0.10284408799E+01  0.10283242341E+01 0.  0.
     999903    2    3    3    0    0  0.61685971001E-01 -0.53341928871E-01 -0.10200459900E+00  0.13884133471E+00  0.47132341478E-01 0.  0.
         14    1    1    2    0    0 -0.11213313648E-01 -0.10680628754E-01  0.31402074229E-03  0.15489120136E-01  0.00000000000E+00 0. -1.
     999901    1    3    3    0    0 -0.50472657353E-01  0.64022557625E-01  0.10169057826E+00  0.88959954515E+00  0.88000000000E+00 0.  1.
        -11    1    4    4    0    0  0.25731230258E-01 -0.14434591677E-01 -0.74145182832E-02  0.30425151599E-01  0.51100000000E-03 0. -1.
         11    1    4    4    0    0  0.35954740743E-01 -0.38907337195E-01 -0.94590080720E-01  0.10841618311E+00  0.51100000000E-03 0.  1.
</event>
<event>
 8    1  0.2928569E+004  0.1043930E+01  0.7957747E-01            NaN
         13   -1    0    0    0    0  0.00000000000E+00  0.00000000000E+00  0.74505805969E-08  0.10566000000E+00  0.10566000000E+00 0. -1.
     999900   -1    0    0    0    0 -0.00000000000E+00 -0.00000000000E+00 -0.74505805969E-08  0.93827000000E+00  0.93827000000E+00 0.  1.
     999902    2    1    2    0    0  0.27425819741E-02  0.39971975573E-02 -0.11306763327E-01  0.10316278766E+01  0.10315545228E+01 0.  0.
     999903    2    3    3    0    0 -0.44272946923E-01  0.12596568944E+00  0.14859887593E-01  0.14158772770E+00  0.44708160662E-01 0.  0.
         14    1    1    2    0    0 -0.27425819741E-02 -0.39971975573E-02  0.11306763327E-01  0.12302123439E-01  0.00000000000E+00 0. -1.
     999901    1    3    3    0    0  0.47015528897E-01 -0.12196849188E+00 -0.26166650919E-01  0.89004014886E+00  0.88000000000E+00 0. -1.
        -11    1    4    4    0    0 -0.42677848005E-02  0.21521256082E-01 -0.14060534538E-01  0.26064117153E-01  0.51100000000E-03 0.  1.
         11    1    4    4    0    0 -0.40005162123E-01  0.10444443336E+00  0.28920422131E-01  0.11552361054E+00  0.51100000000E-03 0. -1.
</event>
<event>
 8    1  0.2928569E+004  0.1043930E+01  0.7957747E-01            NaN
         13   -1    0    0    0    0  0.00000000000E+00  0.00000000000E+00  0.74505805969E-08  0.10566000000E+00  0.10566000000E+00 0. -1.
     999900   -1    0    0    0    0 -0.00000000000E+00 -0.00000000000E+00 -0.74505805969E-08  0.93827000000E+00  0.93827000000E+00 0.  1.
     999902    2    1    2    0    0  0.34766111818E-03  0.16506096052E-01 -0.47935519979E-02  0.10267384260E+01  0.10265944892E+01 0.  0.
     999903    2    3    3    0    0  0.10745639055E+00 -0.66475329382E-02  0.70403440910E-01  0.13675923626E+00  0.46426055691E-01 0.  0.
         14    1    1    2    0    0 -0.34766111818E-03 -0.16506096052E-01  0.47935519979E-02  0.17191573979E-01  0.00000000000E+00 0. -1.
     999901    1    3    3    0    0 -0.10710872943E+00  0.23153628990E-01 -0.75196992908E-01  0.88997918976E+00  0.88000000000E+00 0.  1.
        -11    1    4    4    0    0  0.30542938268E-01  0.10142081950E-02  0.46879800026E-01  0.55963170637E-01  0.51100000000E-03 0. -1.
         11    1    4    4    0    0  0.76913452283E-01 -0.76617411332E-02  0.23523640885E-01  0.80796065627E-01  0.51100000000E-03 0.  1.
</event>
<event>
 8    1  0.2928569E+004  0.1043930E+01  0.7957747E-01            NaN
         13   -1    0    0    0    0  0.00000000000E+00  0.00000000000E+00  0.74505805969E-08  0.10566000000E+00  0.10566000000E+00 0.  1.
     999900   -1    0    0    0    0 -0.00000000000E+00 -0.00000000000E+00 -0.74505805969E-08  0.93827000000E+00  0.93827000000E+00 0. -1.
     999902    2    1    2    0    0 -0.17837118038E-01 -0.80480681237E-02 -0.19514476636E-01  0.10162939913E+01  0.10159181698E+01 0.  0.
     999903    2    3    3    0    0 -0.11889355632E+00 -0.23147792482E-01  0.14946048318E-01  0.12971182746E+00  0.43934904014E-01 0.  0.
         14    1    1    2    0    0  0.17837118038E-01  0.80480681237E-02  0.19514476636E-01  0.27636008735E-01  0.00000000000E+00 0.  1.
     999901    1    3    3    0    0  0.10105643829E+00  0.15099724359E-01 -0.34460524954E-01  0.88658216380E+00  0.88000000000E+00 0. -1.
        -11    1    4    4    0    0 -0.38282666707E-01 -0.21070901174E-01  0.21695912562E-01  0.48790564552E-01  0.51100000000E-03 0. -1.
         11    1    4    4    0    0 -0.80610889617E-01 -0.20768913083E-02 -0.67498642432E-02  0.80921262909E-01  0.51100000000E-03 0.  1.
</event>
<event>
 8    1  0.2928569E+004  0.1043930E+01  0.7957747E-01            NaN
         13   -1    0    0    0    0  0.00000000000E+00  0.00000000000E+00  0.74505805969E-08  0.10566000000E+00  0.10566000000E+00 0. -1.
     999900   -1    0    0    0    0 -0.00000000000E+00 -0.00000000000E+00 -0.74505805969E-08  0.93827000000E+00  0.93827000000E+00 0. -1.
     999902    2    1    2    0    0  0.55291359454E-02 -0.11494114768E-01 -0.75916012114E-02  0.10290868727E+01  0.10289798216E+01 0.  0.
     999903    2    3    3    0    0 -0.10161991553E-01  0.12817613883E-01 -0.13147342212E+00  0.13993897884E+00  0.45056628565E-01 0.  0.
         14    1    1    2    0    0 -0.55291359454E-02  0.11494114768E-01  0.75916012114E-02  0.14843127284E-01  0.00000000000E+00 0. -1.
     999901    1    3    3    0    0  0.15691127498E-01 -0.24311728651E-01  0.12388182091E+00  0.88914789388E+00  0.88000000000E+00 0.  1.
        -11    1    4    4    0    0 -0.23652113885E-01  0.73630558414E-02 -0.11629893112E+00  0.11890895502E+00  0.51100000000E-03 0.  1.
         11    1    4    4    0    0  0.13490122332E-01  0.54545580417E-02 -0.15174490995E-01  0.21030023821E-01  0.51100000000E-03 0. -1.
</event>
<event>
 8    1  0.2928569E+004  0.1043930E+01  0.7957747E-01            NaN
         13   -1    0    0    0    0  0.00000000000E+00  0.00000000000E+00  0.74505805969E-08  0.10566000000E+00  0.10566000000E+00 0.  1.
     999900   -1    0    0    0    0 -0.00000000000E+00 -0.00000000000E+00 -0.74505805969E-08  0.93827000000E+00  0.93827000000E+00 0. -1.
     999902    2    1    2    0    0 -0.42427186082E-02  0.93396763211E-02 -0.11737219413E-01  0.10283417822E+01  0.10282236277E+01 0.  0.
     999903    2    3    3    0    0 -0.77166441861E-01  0.90128742174E-01 -0.58079751729E-01  0.14042716193E+00  0.47630665862E-01 0.  0.
         14    1    1    2    0    0  0.42427186082E-02 -0.93396763211E-02  0.11737219413E-01  0.15588217811E-01  0.00000000000E+00 0. -1.
     999901    1    3    3    0    0  0.72923723253E-01 -0.80789065853E-01  0.46342532316E-01  0.88791462026E+00  0.88000000000E+00 0.  1.
        -11    1    4    4    0    0 -0.48851393219E-01  0.30802673011E-01 -0.91422333628E-02  0.58473112077E-01  0.51100000000E-03 0.  1.
         11    1    4    4    0    0 -0.28315048642E-01  0.59326069163E-01 -0.48937518366E-01  0.81954049850E-01  0.51100000000E-03 0. -1.
</event>
<event>
 8    1  0.2928569E+004  0.1043930E+01  0.7957747E-01            NaN
         13   -1    0    0    0    0  0.00000000000E+00  0.00000000000E+00  0.74505805969E-08  0.10566000000E+00  0.10566000000E+00 0. -1.
     999900   -1    0    0    0    0 -0.00000000000E+00 -0.00000000000E+00 -0.74505805969E-08  0.93827000000E+00  0.93827000000E+00 0. -1.
     999902    2    1    2    0    0  0.12570847204E-02  0.12052707906E-01  0.43991304561E-02  0.10310381274E+01  0.10309575257E+01 0.  0.
     999903    2    3    3    0    0 -0.50253988692E-01 -0.59080748981E-01 -0.10739020191E+00  0.13962901023E+00  0.44131697833E-01 0.  0.
         14    1    1    2    0    0 -0.12570847204E-02 -0.12052707906E-01 -0.43991304561E-02  0.12891872581E-01  0.00000000000E+00 0.  1.
     999901    1    3    3    0    0  0.51511073412E-01  0.71133456887E-01  0.11178933236E+00  0.89140911719E+00  0.88000000000E+00 0.  1.
        -11    1    4    4    0    0 -0.32012343763E-01 -0.88006764035E-02 -0.57960891472E-01  0.66797964936E-01  0.51100000000E-03 0.  1.
         11    1    4    4    0    0 -0.18241644929E-01 -0.50280072577E-01 -0.49429310434E-01  0.72831045297E-01  0.51100000000E-03 0. -1.
</event>
<event>
 8    1  0.2928569E+004  0.1043930E+01  0.7957747E-01            NaN
         13   -1    0    0    0    0  0.00000000000E+00  0.00000000000E+00  0.74505805969E-08  0.10566000000E+00  0.10566000000E+00 0. -1.
     999900   -1    0    0    0    0 -0.00000000000E+00 -0.00000000000E+00 -0.74505805969E-08  0.93827000000E+00  0.93827000000E+00 0.  1.
     999902    2    1    2    0    0 -0.45907398208E-02 -0.23072137379E-02 -0.12600886960E-01  0.10303218965E+01  0.10302320273E+01 0.  0.
     999903    2    3    3    0    0  0.29446780074E-02  0.13138674472E+00 -0.19067853590E-01  0.14016871945E+00  0.44861331385E-01 0.  0.
         14    1    1    2    0    0  0.45907398208E-02  0.23072137379E-02  0.12600886960E-01  0.13608103450E-01  0.00000000000E+00 0. -1.
     999901    1    3    3    0    0 -0.75354178282E-02 -0.13369395846E+00  0.64669666301E-02  0.89015317710E+00  0.88000000000E+00 0.  1.
        -11    1    4    4    0    0  0.65867880753E-02  0.78781611400E-01 -0.32932353315E-01  0.85643032921E-01  0.51100000000E-03 0. -1.
         11    1    4    4    0    0 -0.36421100679E-02  0.52605133321E-01  0.13864499725E-01  0.54525686525E-01  0.51100000000E-03 0.  1.
</event>
<event>
 8    1  0.2928569E+004  0.1043930E+01  0.7957747E-01            NaN
         13   -1    0    0    0    0  0.00000000000E+00  0.00000000000E+00  0.74505805969E-08  0.10566000000E+00  0.10566000000E+00 0.  1.
     999900   -1    0    0    0    0 -0.00000000000E+00 -0.00000000000E+00 -0.74505805969E-08  0.93827000000E+00  0.93827000000E+00 0. -1.
     999902    2    1    2    0    0  0.50344445429E-02  0.36637149846E-02  0.15993308126E-02  0.10375014466E+01  0.10374815302E+01 0.  0.
     999903    2    3    3    0    0 -0.10136148359E+00  0.68322377044E-01  0.66470352699E-01  0.14637346167E+00  0.45439904636E-01 0.  0.
         14    1    1    2    0    0 -0.50344445429E-02 -0.36637149846E-02 -0.15993308126E-02  0.64285533670E-02  0.00000000000E+00 0. -1.
     999901    1    3    3    0    0  0.10639592813E+00 -0.64658662059E-01 -0.64871021886E-01  0.89112798496E+00  0.88000000000E+00 0. -1.
        -11    1    4    4    0    0  0.42953175938E-02  0.69902823532E-02  0.35595344601E-02  0.89579689205E-02  0.51100000000E-03 0.  1.
         11    1    4    4    0    0 -0.10565680118E+00  0.61332094690E-01  0.62910818239E-01  0.13741549275E+00  0.51100000000E-03 0. -1.
</event>
<event>
 8    1  0.2928569E+004  0.1043930E+01  0.7957747E-01            NaN
         13   -1    0    0    0    0  0.00000000000E+00  0.00000000000E+00  0.74505805969E-08  0.10566000000E+00  0.10566000000E+00 0. -1.
     999900   -1    0    0    0    0 -0.00000000000E+00 -0.00000000000E+00 -0.74505805969E-08  0.93827000000E+00  0.93827000000E+00 0.  1.
     999902    2    1    2    0    0  0.71933409628E-03 -0.87489634809E-02  0.11230124836E-01  0.10296759652E+01  0.10295772996E+01 0.  0.
     999903    2    3    3    0    0 -0.47773764103E-01  0.86236190451E-01  0.88225886259E-01  0.13989952852E+00  0.45486899140E-01 0.  0.
         14    1    1    2    0    0 -0.71933409628E-03  0.87489634809E-02 -0.11230124836E-01  0.14254034775E-01  0.00000000000E+00 0.  1.
     999901    1    3    3    0    0  0.48493098199E-01 -0.94985153932E-01 -0.76995761423E-01  0.88977643671E+00  0.88000000000E+00 0.  1.
        -11    1    4    4    0    0  0.14291224262E-02  0.43091728000E-01  0.33999892008E-01  0.54910774812E-01  0.51100000000E-03 0. -1.
         11    1    4    4    0    0 -0.49202886529E-01  0.43144462451E-01  0.54225994252E-01  0.84988753706E-01  0.51100000000E-03 0.  1.
</event>
<event>
 8    1  0.2928569E+004  0.1043930E+01  0.7957747E-01            NaN
         13   -1    0    0    0    0  0.00000000000E+00  0.00000000000E+00  0.74505805969E-08  0.10566000000E+00  0.10566000000E+00 0. -1.
     999900   -1    0    0    0    0 -0.00000000000E+00 -0.00000000000E+00 -0.74505805969E-08  0.93827000000E+00  0.93827000000E+00 0. -1.
     999902    2    1    2    0    0  0.11357876646E-01 -0.77288514795E-02  0.24580541417E-02  0.10299736918E+01  0.10298791324E+01 0.  0.
     999903    2    3    3    0    0  0.54353329746E-01 -0.97477023393E-01  0.74156392124E-01  0.14146708241E+00  0.45361992546E-01 0.  0.
         14    1    1    2    0    0 -0.11357876646E-01  0.77288514795E-02 -0.24580541417E-02  0.13956308153E-01  0.00000000000E+00 0.  1.
     999901    1    3    3    0    0 -0.42995453100E-01  0.89748171914E-01 -0.71698337982E-01  0.88850660944E+00  0.88000000000E+00 0. -1.
        -11    1    4    4    0    0  0.47671872476E-01 -0.98551664165E-01  0.57888043119E-01  0.12383991518E+00  0.51100000000E-03 0. -1.
         11    1    4    4    0    0  0.66814572707E-02  0.10746407716E-02  0.16268349005E-01  0.17627167225E-01  0.51100000000E-03 0.  1.
</event>
<event>
 8    1  0.2928569E+004  0.1043930E+01  0.7957747E-01            NaN
         13   -1    0    0    0    0  0.00000000000E+00  0.00000000000E+00  0.74505805969E-08  0.10566000000E+00  0.10566000000E+00 0. -1.
     999900   -1    0    0    0    0 -0.00000000000E+00 -0.00000000000E+00 -0.74505805969E-08  0.93827000000E+00  0.93827000000E+00 0. -1.
     999902    2    1    2    0    0  0.15826808214E-01  0.12963913259E-01 -0.12815259422E-01  0.10197891264E+01  0.10195033499E+01 0.  0.
     999903    2    3    3    0    0  0.66540352690E-01  0.22420505360E-01 -0.10478028026E+00  0.13349411015E+00  0.43720392473E-01 0.  0.
         14    1    1    2    0    0 -0.15826808214E-01 -0.12963913259E-01  0.12815259422E-01  0.24140873623E-01  0.00000000000E+00 0. -1.
     999901    1    3    3    0    0 -0.50713544475E-01 -0.94565921006E-02  0.91965020835E-01  0.88629501622E+00  0.88000000000E+00 0.  1.
        -11    1    4    4    0    0  0.16923285304E-01  0.38218284232E-02 -0.15109040398E-02  0.17422626381E-01  0.51100000000E-03 0.  1.
         11    1    4    4    0    0  0.49617067385E-01  0.18598676937E-01 -0.10326937622E+00  0.11607148377E+00  0.51100000000E-03 0. -1.
</event>
<event>
 8    1  0.2928569E+004  0.1043930E+01  0.7957747E-01            NaN
         13   -1    0    0    0    0  0.00000000000E+00  0.00000000000E+00  0.74505805969E-08  0.10566000000E+00  0.10566000000E+00 0.  1.
     999900   -1    0    0    0    0 -0.00000000000E+00 -0.00000000000E+00 -0.74505805969E-08  0.93827000000E+00  0.93827000000E+00 0.  1.
     999902    2    1    2    0    0 -0.38683818865E-02  0.13184757246E-02  0.13299400921E-01  0.10300168112E+01  0.10299228392E+01 0.  0.
     999903    2    3    3    0    0 -0.28304336589E-01 -0.72359308837E-01 -0.10548447135E+00  0.13864980482E+00  0.45384905361E-01 0.  0.
         14    1    1    2    0    0  0.38683818865E-02 -0.13184757246E-02 -0.13299400921E-01  0.13913188762E-01  0.00000000000E+00 0. -1.
     999901    1    3    3    0    0  0.24435954703E-01  0.73677784562E-01  0.11878387227E+00  0.89136700642E+00  0.88000000000E+00 0. -1.
        -11    1    4    4    0    0 -0.14456923106E-01 -0.44570950501E-01 -0.94908725273E-01  0.10584658477E+00  0.51100000000E-03 0. -1.
         11    1    4    4    0    0 -0.13847413483E-01 -0.27788358337E-01 -0.10575746079E-01  0.32803220045E-01  0.51100000000E-03 0.  1.
</event>
<event>
 8    1  0.2928569E+004  0.1043930E+01  0.7957747E-01            NaN
         13   -1    0    0    0    0  0.00000000000E+00  0.00000000000E+00  0.74505805969E-08  0.10566000000E+00  0.10566000000E+00 0.  1.
     999900   -1    0    0    0    0 -0.00000000000E+00 -0.00000000000E+00 -0.74505805969E-08  0.93827000000E+00  0.93827000000E+00 0.  1.
     999902    2    1    2    0    0 -0.23378885473E-02  0.53669918303E-02 -0.12077202263E-01  0.10305087803E+01  0.10304213784E+01 0.  0.
     999903    2    3    3    0    0  0.82967336843E-01 -0.65519293445E-01 -0.80802866020E-01  0.14088803874E+00  0.46303126327E-01 0.  0.
         14    1    1    2    0    0  0.23378885473E-02 -0.53669918303E-02  0.12077202263E-01  0.13421219717E-01  0.00000000000E+00 0.  1.
     999901    1    3    3    0    0 -0.85305225390E-01  0.70886285275E-01  0.68725663757E-01  0.88962074154E+00  0.88000000000E+00 0. -1.
        -11    1    4    4    0    0 -0.14455795791E-02 -0.14168012157E-01 -0.17673517587E-02  0.14359906756E-01  0.51100000000E-03 0.  1.
         11    1    4    4    0    0  0.84412916422E-01 -0.51351281288E-01 -0.79035514261E-01  0.12652813199E+00  0.51100000000E-03 0. -1.
</event>
<event>
 8    1  0.2928569E+004  0.1043930E+01  0.7957747E-01            NaN
         13   -1    0    0    0    0  0.00000000000E+00  0.00000000000E+00  0.74505805969E-08  0.10566000000E+00  0.10566000000E+00 0. -1.
     999900   -1    0    0    0    0 -0.00000000000E+00 -0.00000000000E+00 -0.74505805969E-08  0.93827000000E+00  0.93827000000E+00 0. -1.
     999902    2    1    2    0    0 -0.24274210743E-04  0.11701123215E-01  0.70041672688E-02  0.10302927263E+01  0.10302024688E+01 0.  0.
     999903    2    3    3    0    0 -0.11103139668E+00  0.31735454525E-01  0.69219137717E-01  0.14091392166E+00  0.41597285578E-01 0.  0.
         14    1    1    2    0    0  0.24274210743E-04 -0.11701123215E-01 -0.70041672688E-02  0.13637273659E-01  0.00000000000E+00 0.  1.
     999901    1    3    3    0    0  0.11100712247E+00 -0.20034331310E-01 -0.62214970448E-01  0.88937880468E+00  0.88000000000E+00 0. -1.
        -11    1    4    4    0    0 -0.80688022695E-01  0.10050173193E-01  0.29686839208E-01  0.86562881947E-01  0.51100000000E-03 0. -1.
         11    1    4    4    0    0 -0.30343373988E-01  0.21685281331E-01  0.39532298508E-01  0.54351039712E-01  0.51100000000E-03 0.  1.
</event>
<event>
 8    1  0.2928569E+004  0.1043930E+01  0.7957747E-01            NaN
         13   -1    0    0    0    0  0.00000000000E+00  0.00000000000E+00  0.74505805969E-08  0.10566000000E+00  0.10566000000E+00 0.  1.
     999900   -1    0    0    0    0 -0.00000000000E+00 -0.00000000000E+00 -0.74505805969E-08  0.93827000000E+00  0.93827000000E+00 0. -1.
     999902    2    1    2    0    0  0.74371664593E-03 -0.10968298283E-01 -0.11482720805E-01  0.10280331588E+01  0.10279102423E+01 0.  0.
     999903    2    3    3    0    0  0.10032126510E-01 -0.58431485950E-01 -0.11894057996E+00  0.14017831697E+00  0.44589425606E-01 0.  0.
         14    1    1    2    0    0 -0.74371664593E-03  0.10968298283E-01  0.11482720805E-01  0.15896841157E-01  0.00000000000E+00 0. -1.
     999901    1    3    3    0    0 -0.92884098640E-02  0.47463187667E-01  0.10745785915E+00  0.88785484187E+00  0.88000000000E+00 0.  1.
        -11    1    4    4    0    0  0.18649472479E-01 -0.47537201637E-01 -0.56283164075E-01  0.75997658138E-01  0.51100000000E-03 0.  1.
         11    1    4    4    0    0 -0.86173459692E-02 -0.10894284313E-01 -0.62657415882E-01  0.64180658833E-01  0.51100000000E-03 0. -1.
</event>
<event>
 8    1  0.2928569E+004  0.1043930E+01  0.7957747E-01            NaN
         13   -1    0    0    0    0  0.00000000000E+00  0.00000000000E+00  0.74505805969E-08  0.10566000000E+00  0.10566000000E+00 0.  1.
     999900   -1    0    0    0    0 -0.00000000000E+00 -0.00000000000E+00 -0.74505805969E-08  0.93827000000E+00  0.93827000000E+00 0.  1.
     999902    2    1    2    0    0  0.13309017668E-01  0.78881847065E-03  0.37964563819E-02  0.10300676313E+01  0.10299743491E+01 0.  0.
     999903    2    3    3    0    0  0.52934597858E-03 -0.13190340341E+00 -0.36688091719E-02  0.13999669255E+00  0.46763508475E-01 0.  0.
         14    1    1    2    0    0 -0.13309017668E-01 -0.78881847065E-03 -0.37964563819E-02  0.13862368735E-01  0.00000000000E+00 0. -1.
     999901    1    3    3    0    0  0.12779671690E-01  0.13269222188E+00  0.74652655538E-02  0.89007093872E+00  0.88000000000E+00 0. -1.
        -11    1    4    4    0    0  0.38637058078E-02 -0.39797795275E-01 -0.22560261271E-01  0.45913170670E-01  0.51100000000E-03 0. -1.
         11    1    4    4    0    0 -0.33343598292E-02 -0.92105608137E-01  0.18891452099E-01  0.94083521879E-01  0.51100000000E-03 0.  1.
</event>
<event>
 8    1  0.2928569E+004  0.1043930E+01  0.7957747E-01            NaN
         13   -1    0    0    0    0  0.00000000000E+00  0.00000000000E+00  0.74505805969E-08  0.10566000000E+00  0.10566000000E+00 0. -1.
     999900   -1    0    0    0    0 -0.00000000000E+00 -0.00000000000E+00 -0.74505805969E-08  0.93827000000E+00  0.93827000000E+00 0. -1.
     999902    2    1    2    0    0 -0.31286502244E-02 -0.11205464576E-01 -0.69907453662E-02  0.10303571812E+01  0.10302677805E+01 0.  0.
     999903    2    3    3    0    0  0.12988587263E+00 -0.71550793461E-02 -0.26253774503E-01  0.14014353653E+00  0.45049029801E-01 0.  0.
         14    1    1    2    0    0  0.31286502244E-02  0.11205464576E-01  0.69907453662E-02  0.13572818770E-01  0.00000000000E+00 0. -1.
     999901    1    3    3    0    0 -0.13301452286E+00 -0.40503852295E-02  0.19263029137E-01  0.89021364470E+00  0.88000000000E+00 0.  1.
        -11    1    4    4    0    0  0.97738759355E-01 -0.23735994309E-01 -0.12132158778E-01  0.10130998423E+00  0.51100000000E-03 0.  1.
         11    1    4    4    0    0  0.32147113280E-01  0.16580914963E-01 -0.14121615725E-01  0.38833552309E-01  0.51100000000E-03 0. -1.
</event>
<event>
 8    1  0.2928569E+004  0.1043930E+01  0.7957747E-01            NaN
         13   -1    0    0    0    0  0.00000000000E+00  0.00000000000E+00  0.74505805969E-08  0.10566000000E+00  0.10566000000E+00 0. -1.
     999900   -1    0    0    0    0 -0.00000000000E+00 -0.00000000000E+00 -0.74505805969E-08  0.93827000000E+00  0.93827000000E+00 0.  1.
     999902    2    1    2    0    0  0.32459797959E-02  0.10768705527E-01 -0.85808062624E-02  0.10297832110E+01  0.10296860347E+01 0.  0.
     999903    2    3    3    0    0  0.25969542061E-01  0.84654673973E-01 -0.10188301768E+00  0.14148101056E+00  0.42378014529E-01 0.  0.
         14    1    1    2    0    0 -0.32459797959E-02 -0.10768705527E-01  0.85808062624E-02  0.14146789023E-01  0.00000000000E+00 0. -1.
     999901    1    3    3    0    0 -0.22723562265E-01 -0.73885968446E-01  0.93302211421E-01  0.88830220042E+00  0.88000000000E+00 0. -1.
        -11    1    4    4    0    0  0.28801685197E-02  0.11735860466E-01 -0.43797768598E-01  0.45437115299E-01  0.51100000000E-03 0. -1.
         11    1    4    4    0    0  0.23089373541E-01  0.72918813507E-01 -0.58085249086E-01  0.96043895257E-01  0.51100000000E-03 0.  1.
</event>
<event>
 8    1  0.2928569E+004  0.1043930E+01  0.7957747E-01            NaN
         13   -1    0    0    0    0  0.00000000000E+00  0.00000000000E+00  0.74505805969E-08  0.10566000000E+00  0.10566000000E+00 0.  1.
     999900   -1    0    0    0    0 -0.00000000000E+00 -0.00000000000E+00 -0.74505805969E-08  0.93827000000E+00  0.93827000000E+00 0.  1.
     999902    2    1    2    0    0  0.10551446950E-01  0.56879765666E-02 -0.69981580210E-02  0.10300497865E+01  0.10299562624E+01 0.  0.
     999903    2    3    3    0    0 -0.70841783290E-01 -0.94882726117E-01 -0.57797832571E-01  0.13914017771E+00  0.44700219543E-01 0.  0.
         14    1    1    2    0    0 -0.10551446950E-01 -0.56879765666E-02  0.69981580210E-02  0.13880213466E-01  0.00000000000E+00 0.  1.
     999901    1    3    3    0    0  0.81393230241E-01  0.10057070268E+00  0.50799674550E-01  0.89090960883E+00  0.88000000000E+00 0.  1.
        -11    1    4    4    0    0 -0.71748705404E-01 -0.84323856043E-01 -0.62930936836E-01  0.12735365467E+00  0.51100000000E-03 0.  1.
         11    1    4    4    0    0  0.90692211337E-03 -0.10558870074E-01  0.51331042653E-02  0.11786523039E-01  0.51100000000E-03 0. -1.
</event>
<event>
 8    1  0.2928569E+004  0.1043930E+01  0.7957747E-01            NaN
         13   -1    0    0    0    0  0.00000000000E+00  0.00000000000E+00  0.74505805969E-08  0.10566000000E+00  0.10566000000E+00 0.  1.
     999900   -1    0    0    0    0 -0.00000000000E+00 -0.00000000000E+00 -0.74505805969E-08  0.93827000000E+00  0.93827000000E+00 0. -1.
     999902    2    1    2    0    0 -0.84832207709E-02 -0.87564224342E-02  0.75503554875E-02  0.10295895734E+01  0.10294896997E+01 0.  0.
     999903    2    3    3    0    0  0.82404670187E-01  0.91870673527E-01 -0.41136754463E-01  0.13787389230E+00  0.45675237120E-01 0.  0.
         14    1    1    2    0    0  0.84832207709E-02  0.87564224342E-02 -0.75503554875E-02  0.14340426649E-01  0.00000000000E+00 0. -1.
     999901    1    3    3    0    0 -0.90887890958E-01 -0.10062709596E+00  0.48687109951E-01  0.89171568106E+00  0.88000000000E+00 0.  1.
        -11    1    4    4    0    0  0.81997658457E-01  0.75287462359E-01 -0.23725047167E-01  0.11381984434E+00  0.51100000000E-03 0. -1.
         11    1    4    4    0    0  0.40701172943E-03  0.16583211168E-01 -0.17411707296E-01  0.24054047958E-01  0.51100000000E-03 0.  1.
</event>
<event>
 8    1  0.2928569E+004  0.1043930E+01  0.7957747E-01            NaN
         13   -1    0    0    0    0  0.00000000000E+00  0.00000000000E+00  0.74505805969E-08  0.10566000000E+00  0.10566000000E+00 0. -1.
     999900   -1    0    0    0    0 -0.00000000000E+00 -0.00000000000E+00 -0.74505805969E-08  0.93827000000E+00  0.93827000000E+00 0.  1.
     999902    2    1    2    0    0  0.12382281261E-01 -0.12731639827E-02 -0.21674941720E-02  0.10312951329E+01  0.10312177322E+01 0.  0.
     999903    2    3    3    0    0 -0.11043413109E+00 -0.60447867003E-01 -0.41509894517E-01  0.13992913563E+00  0.44804572536E-01 0.  0.
         14    1    1    2    0    0 -0.12382281261E-01  0.12731639827E-02  0.21674941720E-02  0.12634867104E-01  0.00000000000E+00 0.  1.
     999901    1    3    3    0    0  0.12281641235E+00  0.59174703021E-01  0.39342400345E-01  0.89136599727E+00  0.88000000000E+00 0.  1.
        -11    1    4    4    0    0 -0.21100638524E-01 -0.33185666675E-01 -0.19822359310E-01  0.44042166935E-01  0.51100000000E-03 0.  1.
         11    1    4    4    0    0 -0.89333492566E-01 -0.27262200328E-01 -0.21687535208E-01  0.95886968693E-01  0.51100000000E-03 0. -1.
</event>
<event>
 8    1  0.2928569E+004  0.1043930E+01  0.7957747E-01            NaN
         13   -1    0    0    0    0  0.00000000000E+00  0.00000000000E+00  0.74505805969E-08  0.10566000000E+00  0.10566000000E+00 0.  1.
     999900   -1    0    0    0    0 -0.00000000000E+00 -0.00000000000E+00 -0.74505805969E-08  0.93827000000E+00  0.93827000000E+00 0. -1.
     999902    2    1    2    0    0 -0.12984989299E-01  0.33018363763E-02  0.15507861186E-02  0.10304423387E+01  0.10303540636E+01 0.  0.
     999903    2    3    3    0    0  0.21414493452E-01 -0.12270271297E+00  0.48477925248E-01  0.13956489073E+00  0.40171049127E-01 0.  0.
         14    1    1    2    0    0  0.12984989299E-01 -0.33018363763E-02 -0.15507861186E-02  0.13487661329E-01  0.00000000000E+00 0. -1.
     999901    1    3    3    0    0 -0.34399482750E-01  0.12600454934E+00 -0.46927139129E-01  0.89087744794E+00  0.88000000000E+00 0. -1.
        -11    1    4    4    0    0 -0.36080520457E-02 -0.83253737984E-01  0.23475819823E-01  0.86577007139E-01  0.51100000000E-03 0.  1.
         11    1    4    4    0    0  0.25022545497E-01 -0.39448974983E-01  0.25002105425E-01  0.52987883588E-01  0.51100000000E-03 0. -1.
</event>
<event>
 8    1  0.2928569E+004  0.1043930E+01  0.7957747E-01            NaN
         13   -1    0    0    0    0  0.00000000000E+00  0.00000000000E+00  0.74505805969E-08  0.10566000000E+00  0.10566000000E+00 0.  1.
     999900   -1    0    0    0    0 -0.00000000000E+00 -0.00000000000E+00 -0.74505805969E-08  0.93827000000E+00  0.93827000000E+00 0.  1.
     999902    2    1    2    0    0 -0.26831706038E-02  0.77447951101E-02 -0.11726934361E-01  0.10296225808E+01  0.10295231695E+01 0.  0.
     999903    2    3    3    0    0 -0.90413853233E-03 -0.62871082992E-01 -0.11703590980E+00  0.14053330093E+00  0.45810631344E-01 0.  0.
         14    1    1    2    0    0  0.26831706038E-02 -0.77447951101E-02  0.11726934361E-01  0.14307419240E-01  0.00000000000E+00 0.  1.
     999901    1    3    3    0    0 -0.17790320714E-02  0.70615878102E-01  0.10530897544E+00  0.88908927983E+00  0.88000000000E+00 0.  1.
        -11    1    4    4    0    0  0.14425148534E-02 -0.51124531478E-01 -0.46948593182E-01  0.69427876899E-01  0.51100000000E-03 0.  1.
         11    1    4    4    0    0 -0.23466533858E-02 -0.11746551514E-01 -0.70087316623E-01  0.71105424034E-01  0.51100000000E-03 0. -1.
</event>
<event>
 8    1  0.2928569E+004  0.1043930E+01  0.7957747E-01            NaN
         13   -1    0    0    0    0  0.00000000000E+00  0.00000000000E+00  0.74505805969E-08  0.10566000000E+00  0.10566000000E+00 0. -1.
     999900   -1    0    0    0    0 -0.00000000000E+00 -0.00000000000E+00 -0.74505805969E-08  0.93827000000E+00  0.93827000000E+00 0. -1.
     999902    2    1    2    0    0 -0.10505814937E-01  0.13752695784E-02 -0.89958113558E-02  0.10300307865E+01  0.10299370044E+01 0.  0.
     999903    2    3    3    0    0 -0.72007394727E-01 -0.29085113930E-03 -0.11333417103E+00  0.14173370018E+00  0.45372436059E-01 0.  0.
         14    1    1    2    0    0  0.10505814937E-01 -0.13752695784E-02  0.89958113558E-02  0.13899213497E-01  0.00000000000E+00 0. -1.
     999901    1    3    3    0    0  0.61501579790E-01  0.16661207177E-02  0.10433835967E+00  0.88829708633E+00  0.88000000000E+00 0.  1.
        -11    1    4    4    0    0 -0.19355430343E-01 -0.55330921277E-02 -0.43774113720E-02  0.20607538513E-01  0.51100000000E-03 0. -1.
         11    1    4    4    0    0 -0.52651964384E-01  0.52422409884E-02 -0.10895675965E+00  0.12112616166E+00  0.51100000000E-03 0.  1.
</event>
<event>
 8    1  0.2928569E+004  0.1043930E+01  0.7957747E-01            NaN
         13   -1    0    0    0    0  0.00000000000E+00  0.00000000000E+00  0.74505805969E-08  0.10566000000E+00  0.10566000000E+00 0.  1.
     999900   -1    0    0    0    0 -0.00000000000E+00 -0.00000000000E+00 -0.74505805969E-08  0.93827000000E+00  0.93827000000E+00 0.  1.
     999902    2    1    2    0    0  0.64443135886E-02 -0.94522400925E-02  0.72186367230E-02  0.10304028888E+01  0.10303140932E+01 0.  0.
     999903    2    3    3    0    0 -0.10267965469E+00  0.39768472146E-01  0.73643776835E-01  0.13981711632E+00  0.44730049020E-01 0.  0.
         14    1    1    2    0    0 -0.64443135886E-02  0.94522400925E-02 -0.72186367230E-02  0.13527111167E-01  0.00000000000E+00 0. -1.
     999901    1    3    3    0    0  0.10912396828E+00 -0.49220712239E-01 -0.66425140112E-01  0.89058577251E+00  0.88000000000E+00 0.  1.
        -11    1    4    4    0    0 -0.60658012896E-01  0.41000694762E-01  0.29731316167E-01  0.79023185088E-01  0.51100000000E-03 0.  1.
         11    1    4    4    0    0 -0.42021641793E-01 -0.12322226156E-02  0.43912460668E-01  0.60793931231E-01  0.51100000000E-03 0. -1.
</event>
<event>
 8    1  0.2928569E+004  0.1043930E+01  0.7957747E-01            NaN
         13   -1    0    0    0    0  0.00000000000E+00  0.00000000000E+00  0.74505805969E-08  0.10566000000E+00  0.10566000000E+00 0.  1.
     999900   -1    0    0    0    0 -0.00000000000E+00 -0.00000000000E+00 -0.74505805969E-08  0.93827000000E+00  0.93827000000E+00 0.  1.
     999902    2    1    2    0    0  0.71490715147E-02  0.89197452931E-02  0.91949217148E-02  0.10292597013E+01  0.10291551462E+01 0.  0.
     999903    2    3    3    0    0 -0.12744562697E+00  0.27718423372E-01  0.15930776368E-01  0.13880223743E+00  0.44738938870E-01 0.  0.
         14    1    1    2    0    0 -0.71490715147E-02 -0.89197452931E-02 -0.91949217148E-02  0.14670298734E-01  0.00000000000E+00 0. -1.
     999901    1    3    3    0    0  0.13459469849E+00 -0.18798678079E-01 -0.67358546528E-02  0.89045746383E+00  0.88000000000E+00 0.  1.
        -11    1    4    4    0    0 -0.57326492036E-01  0.31103325340E-01 -0.53586642235E-02  0.65442493379E-01  0.51100000000E-03 0.  1.
         11    1    4    4    0    0 -0.70119134939E-01 -0.33849019677E-02  0.21289440591E-01  0.73359744053E-01  0.51100000000E-03 0. -1.
</event>
<event>
 8    1  0.2928569E+004  0.1043930E+01  0.7957747E-01            NaN
         13   -1    0    0    0    0  0.00000000000E+00  0.00000000000E+00  0.74505805969E-08  0.10566000000E+00  0.10566000000E+00 0.  1.
     999900   -1    0    0    0    0 -0.00000000000E+00 -0.00000000000E+00 -0.74505805969E-08  0.93827000000E+00  0.93827000000E+00 0. -1.
     999902    2    1    2    0    0 -0.13821160580E-02  0.86978666488E-02  0.10855826966E-01  0.10299510119E+01  0.10298561428E+01 0.  0.
     999903    2    3    3    0    0 -0.28180090387E-01  0.48727187197E-01  0.12229542927E+00  0.14161590459E+00  0.43936728880E-01 0.  0.
         14    1    1    2    0    0  0.13821160580E-02 -0.86978666488E-02 -0.10855826966E-01  0.13978988095E-01  0.00000000000E+00 0. -1.
     999901    1    3    3    0    0  0.26797974329E-01 -0.40029320548E-01 -0.11143960231E+00  0.88833510732E+00  0.88000000000E+00 0. -1.
        -11    1    4    4    0    0  0.99681165947E-02  0.71573022756E-03  0.14984787904E-01  0.18018895852E-01  0.51100000000E-03 0. -1.
         11    1    4    4    0    0 -0.38148206982E-01  0.48011456970E-01  0.10731064137E+00  0.12359700873E+00  0.51100000000E-03 0.  1.
</event>
<event>
 8    1  0.2928569E+004  0.1043930E+01  0.7957747E-01            NaN
         13   -1    0    0    0    0  0.00000000000E+00  0.00000000000E+00  0.74505805969E-08  0.10566000000E+00  0.10566000000E+00 0.  1.
     999900   -1    0    0    0    0 -0.00000000000E+00 -0.00000000000E+00 -0.74505805969E-08  0.93827000000E+00  0.93827000000E+00 0.  1.
     999902    2    1    2    0    0 -0.21430720602E-02 -0.98939991241E-03 -0.13828539620E-01  0.10299014513E+01  0.10298059037E+01 0.  0.
     999903    2    3    3    0    0 -0.80668900452E-01  0.56930737243E-01 -0.89750318358E-01  0.14125913604E+00  0.46372874908E-01 0.  0.
         14    1    1    2    0    0  0.21430720602E-02  0.98939991241E-03  0.13828539620E-01  0.14028548680E-01  0.00000000000E+00 0.  1.
     999901    1    3    3    0    0  0.78525828392E-01 -0.57920137156E-01  0.75921778737E-01  0.88864231528E+00  0.88000000000E+00 0. -1.
        -11    1    4    4    0    0 -0.84444429974E-01  0.52761283293E-01 -0.72675704502E-01  0.12327462802E+00  0.51100000000E-03 0.  1.
         11    1    4    4    0    0  0.37755295217E-02  0.41694539503E-02 -0.17074613856E-01  0.17984508021E-01  0.51100000000E-03 0. -1.
</event>
<event>
 8    1  0.2928569E+004  0.1043930E+01  0.7957747E-01            NaN
         13   -1    0    0    0    0  0.00000000000E+00  0.00000000000E+00  0.74505805969E-08  0.10566000000E+00  0.10566000000E+00 0. -1.
     999900   -1    0    0    0    0 -0.00000000000E+00 -0.00000000000E+00 -0.74505805969E-08  0.93827000000E+00  0.93827000000E+00 0. -1.
     999902    2    1    2    0    0  0.94724823400E-02 -0.10647956944E-01  0.36767289311E-02  0.10292118057E+01  0.10291065619E+01 0.  0.
     999903    2    3    3    0    0 -0.11911969234E+00 -0.49592135868E-01 -0.22935422657E-01  0.13861604828E+00  0.45160759343E-01 0.  0.
         14    1    1    2    0    0 -0.94724823400E-02  0.10647956944E-01 -0.36767289311E-02  0.14718194332E-01  0.00000000000E+00 0.  1.
     999901    1    3    3    0    0  0.12859217468E+00  0.38944178924E-01  0.26612151588E-01  0.89059575739E+00  0.88000000000E+00 0. -1.
        -11    1    4    4    0    0 -0.14533975570E-01 -0.53362756683E-02  0.12223677286E-01  0.19733010193E-01  0.51100000000E-03 0. -1.
         11    1    4    4    0    0 -0.10458571678E+00 -0.44255860200E-01 -0.35159099944E-01  0.11888303809E+00  0.51100000000E-03 0.  1.
</event>
<event>
 7    1  0.2928569E+004  0.1043930E+01  0.7957747E-01            NaN
         13   -1    0    0    0    0  0.00000000000E+00  0.00000000000E+00  0.74505805969E-08  0.10566000000E+00  0.10566000000E+00 0. -1.
     999900   -1    0    0    0    0 -0.00000000000E+00 -0.00000000000E+00 -0.74505805969E-08  0.93827000000E+00  0.93827000000E+00 0.  1.
     999903    2    1    2    0    0  0.57724198647E-01  0.59780199421E-01 -0.80697902529E-01  0.12438303285E+00  0.45312603501E-01 0.  0.
         14    1    1    2    0    0 -0.87798049596E-02  0.18431979343E-01  0.25967586686E-01  0.33032384048E-01  0.00000000000E+00 0. -1.
     999901    1    1    2    0    0 -0.48944393688E-01 -0.78212178764E-01  0.54730315844E-01  0.88651458310E+00  0.88000000000E+00 0. -1.
        -11    1    3    3    0    0  0.41987403693E-01  0.62658812876E-01 -0.52302590557E-01  0.91787204990E-01  0.51100000000E-03 0. -1.
         11    1    3    3    0    0  0.15736794954E-01 -0.28786134556E-02 -0.28395311972E-01  0.32595827860E-01  0.51100000000E-03 0.  1.
</event>
<event>
 8    1  0.2928569E+004  0.1043930E+01  0.7957747E-01            NaN
         13   -1    0    0    0    0  0.00000000000E+00  0.00000000000E+00  0.74505805969E-08  0.10566000000E+00  0.10566000000E+00 0. -1.
     999900   -1    0    0    0    0 -0.00000000000E+00 -0.00000000000E+00 -0.74505805969E-08  0.93827000000E+00  0.93827000000E+00 0. -1.
     999902    2    1    2    0    0  0.81202026500E-02  0.11826021068E-01 -0.58555121125E-03  0.10295725860E+01  0.10294724739E+01 0.  0.
     999903    2    3    3    0    0 -0.11012889345E+00 -0.27932695774E-01 -0.64919305072E-01  0.13844833198E+00  0.45219639422E-01 0.  0.
         14    1    1    2    0    0 -0.81202026500E-02 -0.11826021068E-01  0.58555121125E-03  0.14357413959E-01  0.00000000000E+00 0. -1.
     999901    1    3    3    0    0  0.11824909610E+00  0.39758716842E-01  0.64333753860E-01  0.89112425406E+00  0.88000000000E+00 0.  1.
        -11    1    4    4    0    0 -0.10190891284E+00 -0.17495795066E-01 -0.41299389419E-01  0.11134374723E+00  0.51100000000E-03 0.  1.
         11    1    4    4    0    0 -0.82199806197E-02 -0.10436900708E-01 -0.23619915653E-01  0.27104584745E-01  0.51100000000E-03 0. -1.
</event>
<event>
 7    1  0.2928569E+004  0.1043930E+01  0.7957747E-01            NaN
         13   -1    0    0    0    0  0.00000000000E+00  0.00000000000E+00  0.74505805969E-08  0.10566000000E+00  0.10566000000E+00 0.  1.
     999900   -1    0    0    0    0 -0.00000000000E+00 -0.00000000000E+00 -0.74505805969E-08  0.93827000000E+00  0.93827000000E+00 0. -1.
     999902    2    1    2    0    0  0.81604075212E-02 -0.92094713656E-02 -0.93459608558E-02  0.10284783464E+01  0.10283622686E+01 0.  0.
         14    1    1    2    0    0 -0.81604075212E-02  0.92094713656E-02  0.93459608558E-02  0.15451653571E-01  0.00000000000E+00 0.  1.
     999901    1    3    3    0    0 -0.11497540809E+00 -0.63976319965E-02  0.55290911357E-01  0.88922289615E+00  0.88000000000E+00 0.  1.
        -11    1    3    3    0    0  0.59230434817E-01 -0.46174887440E-02 -0.30956471955E-01  0.66993506310E-01  0.51100000000E-03 0.  1.
         11    1    3    3    0    0  0.63905380790E-01  0.18056493749E-02 -0.33680400258E-01  0.72261943969E-01  0.51100000000E-03 0. -1.
</event>
<event>
 8    1  0.2928569E+004  0.1043930E+01  0.7957747E-01            NaN
         13   -1    0    0    0    0  0.00000000000E+00  0.00000000000E+00  0.74505805969E-08  0.10566000000E+00  0.10566000000E+00 0. -1.
     999900   -1    0    0    0    0 -0.00000000000E+00 -0.00000000000E+00 -0.74505805969E-08  0.93827000000E+00  0.93827000000E+00 0. -1.
     999902    2    1    2    0    0 -0.22577570590E-01  0.93194238485E-02  0.48282326913E-02  0.10190320044E+01  0.10187277928E+01 0.  0.
     999903    2    3    3    0    0 -0.11064983497E+00 -0.13683193883E-01 -0.54767504194E-01  0.13233166265E+00  0.45624266031E-01 0.  0.
         14    1    1    2    0    0  0.22577570590E-01 -0.93194238485E-02 -0.48282326913E-02  0.24897995613E-01  0.00000000000E+00 0.  1.
     999901    1    3    3    0    0  0.88072264382E-01  0.23002617731E-01  0.59595736885E-01  0.88670034173E+00  0.88000000000E+00 0.  1.
        -11    1    4    4    0    0 -0.25955457870E-01  0.16250232377E-01 -0.13199748916E-01  0.33350417358E-01  0.51100000000E-03 0.  1.
         11    1    4    4    0    0 -0.84694377102E-01 -0.29933426259E-01 -0.41567755278E-01  0.98981245295E-01  0.51100000000E-03 0. -1.
</event>
<event>
 8    1  0.2928569E+004  0.1043930E+01  0.7957747E-01            NaN
         13   -1    0    0    0    0  0.00000000000E+00  0.00000000000E+00  0.74505805969E-08  0.10566000000E+00  0.10566000000E+00 0. -1.
     999900   -1    0    0    0    0 -0.00000000000E+00 -0.00000000000E+00 -0.74505805969E-08  0.93827000000E+00  0.93827000000E+00 0. -1.
     999902    2    1    2    0    0 -0.21899097198E-02 -0.10339757393E-01 -0.10463855700E-01  0.10290572543E+01  0.10289497724E+01 0.  0.
     999903    2    3    3    0    0 -0.11221853367E+00 -0.80498776002E-02  0.67205102111E-01  0.13880784622E+00  0.45752514632E-01 0.  0.
         14    1    1    2    0    0  0.21899097198E-02  0.10339757393E-01  0.10463855700E-01  0.14872745666E-01  0.00000000000E+00 0.  1.
     999901    1    3    3    0    0  0.11002862395E+00 -0.22898797924E-02 -0.77668957811E-01  0.89024940811E+00  0.88000000000E+00 0. -1.
        -11    1    4    4    0    0 -0.76565098188E-01 -0.39288735919E-02  0.19502745135E-01  0.79109218787E-01  0.51100000000E-03 0.  1.
         11    1    4    4    0    0 -0.35653435479E-01 -0.41210040084E-02  0.47702356976E-01  0.59698627435E-01  0.51100000000E-03 0. -1.
</event>
<event>
 8    1  0.2928569E+004  0.1043930E+01  0.7957747E-01            NaN
         13   -1    0    0    0    0  0.00000000000E+00  0.00000000000E+00  0.74505805969E-08  0.10566000000E+00  0.10566000000E+00 0.  1.
     999900   -1    0    0    0    0 -0.00000000000E+00 -0.00000000000E+00 -0.74505805969E-08  0.93827000000E+00  0.93827000000E+00 0.  1.
     999902    2    1    2    0    0 -0.11688730482E-01 -0.67495142610E-03 -0.56354525850E-02  0.10309361435E+01  0.10308542534E+01 0.  0.
     999903    2    3    3    0    0  0.66737039520E-01 -0.10903712675E+00 -0.35865936416E-01  0.14031453782E+00  0.45374846271E-01 0.  0.
         14    1    1    2    0    0  0.11688730482E-01  0.67495142610E-03  0.56354525850E-02  0.12993856454E-01  0.00000000000E+00 0. -1.
     999901    1    3    3    0    0 -0.78425770002E-01  0.10836217532E+00  0.30230483831E-01  0.89062160573E+00  0.88000000000E+00 0. -1.
        -11    1    4    4    0    0  0.24988763229E-01 -0.81624222940E-01 -0.17800053172E-01  0.87201233203E-01  0.51100000000E-03 0. -1.
         11    1    4    4    0    0  0.41748276291E-01 -0.27412903808E-01 -0.18065883244E-01  0.53113304612E-01  0.51100000000E-03 0.  1.
</event>
<event>
 7    1  0.2928569E+004  0.1043930E+01  0.7957747E-01            NaN
         13   -1    0    0    0    0  0.00000000000E+00  0.00000000000E+00  0.74505805969E-08  0.10566000000E+00  0.10566000000E+00 0.  1.
     999900   -1    0    0    0    0 -0.00000000000E+00 -0.00000000000E+00 -0.74505805969E-08  0.93827000000E+00  0.93827000000E+00 0.  1.
     999903    2    1    2    0    0  0.46701076890E-01 -0.44346486573E-01 -0.96415745739E-01  0.12467596541E+00  0.45831199743E-01 0.  0.
         14    1    1    2    0    0  0.28122093131E-01  0.88181681748E-02 -0.37380472738E-02  0.29708335690E-01  0.00000000000E+00 0.  1.
     999901    1    1    2    0    0 -0.74823170021E-01  0.35528318398E-01  0.10015379301E+00  0.88954569890E+00  0.88000000000E+00 0. -1.
        -11    1    3    3    0    0  0.41973429733E-02 -0.28876556560E-01 -0.59567537634E-01  0.66332690791E-01  0.51100000000E-03 0. -1.
         11    1    3    3    0    0  0.42503733917E-01 -0.15469930012E-01 -0.36848208106E-01  0.58343274617E-01  0.51100000000E-03 0.  1.
</event>
<event>
 8    1  0.2928569E+004  0.1043930E+01  0.7957747E-01            NaN
         13   -1    0    0    0    0  0.00000000000E+00  0.00000000000E+00  0.74505805969E-08  0.10566000000E+00  0.10566000000E+00 0. -1.
     999900   -1    0    0    0    0 -0.00000000000E+00 -0.00000000000E+00 -0.74505805969E-08  0.93827000000E+00  0.93827000000E+00 0.  1.
     999902    2    1    2    0    0  0.38908854048E-02  0.13579154498E-01  0.24519792564E-03  0.10298022773E+01  0.10297053646E+01 0.  0.
     999903    2    3    3    0    0 -0.11503313256E+00  0.64151325988E-01 -0.18005382419E-01  0.14017676607E+00  0.44467041019E-01 0.  0.
         14    1    1    2    0    0 -0.38908854048E-02 -0.13579154498E-01 -0.24519792564E-03  0.14127722680E-01  0.00000000000E+00 0. -1.
     999901    1    3    3    0    0  0.11892401797E+00 -0.50572171490E-01  0.18250580344E-01  0.88962551125E+00  0.88000000000E+00 0.  1.
        -11    1    4    4    0    0 -0.22689965200E-01 -0.38376686378E-02  0.41324134373E-02  0.23385897100E-01  0.51100000000E-03 0. -1.
         11    1    4    4    0    0 -0.92343167364E-01  0.67988994626E-01 -0.22137795856E-01  0.11679086897E+00  0.51100000000E-03 0.  1.
</event>
<event>
 8    1  0.2928569E+004  0.1043930E+01  0.7957747E-01            NaN
         13   -1    0    0    0    0  0.00000000000E+00  0.00000000000E+00  0.74505805969E-08  0.10566000000E+00  0.10566000000E+00 0. -1.
     999900   -1    0    0    0    0 -0.00000000000E+00 -0.00000000000E+00 -0.74505805969E-08  0.93827000000E+00  0.93827000000E+00 0.  1.
     999902    2    1    2    0    0 -0.26016152046E-02 -0.68216290499E-02 -0.11507586895E-01  0.10303018093E+01  0.10302116728E+01 0.  0.
     999903    2    3    3    0    0 -0.10074607140E+00  0.65419064722E-01 -0.56820569657E-01  0.14074893372E+00  0.46392459248E-01 0.  0.
         14    1    1    2    0    0  0.26016152046E-02  0.68216290499E-02  0.11507586895E-01  0.13628190661E-01  0.00000000000E+00 0. -1.
     999901    1    3    3    0    0  0.98144456195E-01 -0.72240693772E-01  0.45312982762E-01  0.88955287562E+00  0.88000000000E+00 0. -1.
        -11    1    4    4    0    0 -0.47310189211E-01  0.35047201659E-01 -0.52907476541E-01  0.79158212096E-01  0.51100000000E-03 0.  1.
         11    1    4    4    0    0 -0.53435882189E-01  0.30371863062E-01 -0.39130931159E-02  0.61590721622E-01  0.51100000000E-03 0. -1.
</event>
<event>
 8    1  0.2928569E+004  0.1043930E+01  0.7957747E-01            NaN
         13   -1    0    0    0    0  0.00000000000E+00  0.00000000000E+00  0.74505805969E-08  0.10566000000E+00  0.10566000000E+00 0.  1.
     999900   -1    0    0    0    0 -0.00000000000E+00 -0.00000000000E+00 -0.74505805969E-08  0.93827000000E+00  0.93827000000E+00 0.  1.
     999902    2    1    2    0    0  0.72264056493E-02  0.79350606511E-02 -0.89366907910E-02  0.10299639494E+01  0.10298692570E+01 0.  0.
     999903    2    3    3    0    0 -0.12786963943E-01 -0.62456246238E-01  0.11426824085E+00  0.13837271673E+00  0.45005429986E-01 0.  0.
         14    1    1    2    0    0 -0.72264056493E-02 -0.79350606511E-02  0.89366907910E-02  0.13966050567E-01  0.00000000000E+00 0.  1.
     999901    1    3    3    0    0  0.20013369592E-01  0.70391306889E-01 -0.12320493164E+00  0.89159123270E+00  0.88000000000E+00 0.  1.
        -11    1    4    4    0    0 -0.23745946176E-01 -0.24294619482E-01  0.30447014358E-01  0.45622147033E-01  0.51100000000E-03 0.  1.
         11    1    4    4    0    0  0.10958982233E-01 -0.38161626756E-01  0.83821226491E-01  0.92750569700E-01  0.51100000000E-03 0. -1.
</event>
<event>
 8    1  0.2928569E+004  0.1043930E+01  0.7957747E-01            NaN
         13   -1    0    0    0    0  0.00000000000E+00  0.00000000000E+00  0.74505805969E-08  0.10566000000E+00  0.10566000000E+00 0. -1.
     999900   -1    0    0    0    0 -0.00000000000E+00 -0.00000000000E+00 -0.74505805969E-08  0.93827000000E+00  0.93827000000E+00 0.  1.
     999902    2    1    2    0    0  0.52016787445E-02 -0.84757841484E-02  0.10459374581E-01  0.10294975749E+01  0.10293964065E+01 0.  0.
     999903    2    3    3    0    0 -0.65740254615E-01  0.14720639434E-01 -0.11161491953E+00  0.13794109025E+00  0.45070786701E-01 0.  0.
         14    1    1    2    0    0 -0.52016787445E-02  0.84757841484E-02 -0.10459374581E-01  0.14432425137E-01  0.00000000000E+00 0.  1.
     999901    1    3    3    0    0  0.70941933360E-01 -0.23196423582E-01  0.12207429412E+00  0.89155648462E+00  0.88000000000E+00 0. -1.
        -11    1    4    4    0    0 -0.64031570174E-01  0.12720074287E-01 -0.68080376255E-01  0.94324127459E-01  0.51100000000E-03 0.  1.
         11    1    4    4    0    0 -0.17086844416E-02  0.20005651467E-02 -0.43534543279E-01  0.43616962789E-01  0.51100000000E-03 0. -1.
</event>
<event>
 8    1  0.2928569E+004  0.1043930E+01  0.7957747E-01            NaN
         13   -1    0    0    0    0  0.00000000000E+00  0.00000000000E+00  0.74505805969E-08  0.10566000000E+00  0.10566000000E+00 0.  1.
     999900   -1    0    0    0    0 -0.00000000000E+00 -0.00000000000E+00 -0.74505805969E-08  0.93827000000E+00  0.93827000000E+00 0. -1.
     999902    2    1    2    0    0  0.29394465806E-02 -0.94429677231E-02  0.99609075988E-02  0.10298932744E+01  0.10297976146E+01 0.  0.
     999903    2    3    3    0    0 -0.11778997525E+00 -0.49482877461E-01 -0.37174197474E-01  0.13949981878E+00  0.41895644756E-01 0.  0.
         14    1    1    2    0    0 -0.29394465806E-02  0.94429677231E-02 -0.99609075988E-02  0.14036725609E-01  0.00000000000E+00 0. -1.
     999901    1    3    3    0    0  0.12072942183E+00  0.40039909738E-01  0.47135105073E-01  0.89039345561E+00  0.88000000000E+00 0. -1.
        -11    1    4    4    0    0 -0.51006302914E-01  0.54191646188E-03 -0.14259014925E-01  0.52967133565E-01  0.51100000000E-03 0.  1.
         11    1    4    4    0    0 -0.66783672338E-01 -0.50024793923E-01 -0.22915182549E-01  0.86532685214E-01  0.51100000000E-03 0. -1.
</event>
<event>
 8    1  0.2928569E+004  0.1043930E+01  0.7957747E-01            NaN
         13   -1    0    0    0    0  0.00000000000E+00  0.00000000000E+00  0.74505805969E-08  0.10566000000E+00  0.10566000000E+00 0. -1.
     999900   -1    0    0    0    0 -0.00000000000E+00 -0.00000000000E+00 -0.74505805969E-08  0.93827000000E+00  0.93827000000E+00 0. -1.
     999902    2    1    2    0    0 -0.14123407199E-01  0.67513006166E-02 -0.60185450870E-02  0.10271587873E+01  0.10270218599E+01 0.  0.
     999903    2    3    3    0    0 -0.56626127682E-01 -0.43669778353E-01  0.10803279414E+00  0.13735180011E+00  0.45616493793E-01 0.  0.
         14    1    1    2    0    0  0.14123407199E-01 -0.67513006166E-02  0.60185450870E-02  0.16771212713E-01  0.00000000000E+00 0. -1.
     999901    1    3    3    0    0  0.42502720483E-01  0.50421078970E-01 -0.11405133922E+00  0.88980698718E+00  0.88000000000E+00 0.  1.
        -11    1    4    4    0    0  0.18115088461E-03 -0.23703359782E-01  0.39990674714E-01  0.46490829910E-01  0.51100000000E-03 0.  1.
         11    1    4    4    0    0 -0.56807278567E-01 -0.19966418571E-01  0.68042119423E-01  0.90860970198E-01  0.51100000000E-03 0. -1.
</event>
<event>
 8    1  0.2928569E+004  0.1043930E+01  0.7957747E-01            NaN
         13   -1    0    0    0    0  0.00000000000E+00  0.00000000000E+00  0.74505805969E-08  0.10566000000E+00  0.10566000000E+00 0.  1.
     999900   -1    0    0    0    0 -0.00000000000E+00 -0.00000000000E+00 -0.74505805969E-08  0.93827000000E+00  0.93827000000E+00 0. -1.
     999902    2    1    2    0    0  0.21080631744E-02  0.38457041397E-02  0.13201309653E-01  0.10300192866E+01  0.10299253482E+01 0.  0.
     999903    2    3    3    0    0  0.69559407740E-01 -0.10192323626E+00  0.50923801335E-01  0.14032285578E+00  0.43248271853E-01 0.  0.
         14    1    1    2    0    0 -0.21080631744E-02 -0.38457041397E-02 -0.13201309653E-01  0.13910713397E-01  0.00000000000E+00 0. -1.
     999901    1    3    3    0    0 -0.67451344565E-01  0.10576894040E+00 -0.37722491682E-01  0.88969643082E+00  0.88000000000E+00 0. -1.
        -11    1    4    4    0    0  0.20528734105E-01 -0.67440953830E-01  0.32358711435E-01  0.77569700942E-01  0.51100000000E-03 0. -1.
         11    1    4    4    0    0  0.49030673635E-01 -0.34482282427E-01  0.18565089900E-01  0.62753154841E-01  0.51100000000E-03 0.  1.
</event>
<event>
 8    1  0.2928569E+004  0.1043930E+01  0.7957747E-01            NaN
         13   -1    0    0    0    0  0.00000000000E+00  0.00000000000E+00  0.74505805969E-08  0.10566000000E+00  0.10566000000E+00 0. -1.
     999900   -1    0    0    0    0 -0.00000000000E+00 -0.00000000000E+00 -0.74505805969E-08  0.93827000000E+00  0.93827000000E+00 0.  1.
     999902    2    1    2    0    0  0.13253298908E-01 -0.18699321337E-01  0.20106039165E-02  0.10209222387E+01  0.10206629514E+01 0.  0.
     999903    2    3    3    0    0 -0.43256501363E-01 -0.43205313721E-01 -0.10780906129E+00  0.13195977605E+00  0.45307447036E-01 0.  0.
         14    1    1    2    0    0 -0.13253298908E-01  0.18699321337E-01 -0.20106039165E-02  0.23007761267E-01  0.00000000000E+00 0. -1.
     999901    1    3    3    0    0  0.56509800271E-01  0.24505992385E-01  0.10981966520E+00  0.88896246268E+00  0.88000000000E+00 0.  1.
        -11    1    4    4    0    0 -0.87542521358E-02 -0.40539353419E-01 -0.59839821765E-01  0.72808938297E-01  0.51100000000E-03 0.  1.
         11    1    4    4    0    0 -0.34502249227E-01 -0.26659603020E-02 -0.47969239521E-01  0.59150837756E-01  0.51100000000E-03 0. -1.
</event>
<event>
 8    1  0.2928569E+004  0.1043930E+01  0.7957747E-01            NaN
         13   -1    0    0    0    0  0.00000000000E+00  0.00000000000E+00  0.74505805969E-08  0.10566000000E+00  0.10566000000E+00 0.  1.
     999900   -1    0    0    0    0 -0.00000000000E+00 -0.00000000000E+00 -0.74505805969E-08  0.93827000000E+00  0.93827000000E+00 0.  1.
     999902    2    1    2    0    0 -0.12077929393E-01  0.36481825763E-02 -0.20988106656E-01  0.10194415081E+01  0.10191473408E+01 0.  0.
     999903    2    3    3    0    0 -0.11772857322E+00 -0.14199186944E-01 -0.38686722079E-01  0.13276579053E+00  0.45480312309E-01 0.  0.
         14    1    1    2    0    0  0.12077929393E-01 -0.36481825763E-02  0.20988106656E-01  0.24488491900E-01  0.00000000000E+00 0.  1.
     999901    1    3    3    0    0  0.10565064383E+00  0.17847369521E-01  0.17698615423E-01  0.88667571757E+00  0.88000000000E+00 0. -1.
        -11    1    4    4    0    0 -0.10636711811E+00  0.18087141112E-02 -0.26429255449E-01  0.10961752564E+00  0.51100000000E-03 0. -1.
         11    1    4    4    0    0 -0.11361455107E-01 -0.16007901056E-01 -0.12257466631E-01  0.23148264893E-01  0.51100000000E-03 0.  1.
</event>
<event>
 8    1  0.2928569E+004  0.1043930E+01  0.7957747E-01            NaN
         13   -1    0    0    0    0  0.00000000000E+00  0.00000000000E+00  0.74505805969E-08  0.10566000000E+00  0.10566000000E+00 0. -1.
     999900   -1    0    0    0    0 -0.00000000000E+00 -0.00000000000E+00 -0.74505805969E-08  0.93827000000E+00  0.93827000000E+00 0.  1.
     999902    2    1    2    0    0 -0.70862581051E-02 -0.12082625617E-01  0.16344842533E-02  0.10298276444E+01  0.10297310817E+01 0.  0.
     999903    2    3    3    0    0 -0.44790627542E-01  0.12047116580E+00 -0.28256387967E-01  0.13860062988E+00  0.43499529170E-01 0.  0.
         14    1    1    2    0    0  0.70862581051E-02  0.12082625617E-01 -0.16344842533E-02  0.14102355637E-01  0.00000000000E+00 0.  1.
     999901    1    3    3    0    0  0.37704369437E-01 -0.13255379142E+00  0.29890872220E-01  0.89122701448E+00  0.88000000000E+00 0.  1.
        -11    1    4    4    0    0 -0.20048055347E-01  0.42198351102E-01 -0.31660323722E-01  0.56438130533E-01  0.51100000000E-03 0.  1.
         11    1    4    4    0    0 -0.24742572195E-01  0.78272814701E-01  0.34039357550E-02  0.82162499351E-01  0.51100000000E-03 0. -1.
</event>
<event>
 8    1  0.2928569E+004  0.1043930E+01  0.7957747E-01            NaN
         13   -1    0    0    0    0  0.00000000000E+00  0.00000000000E+00  0.74505805969E-08  0.10566000000E+00  0.10566000000E+00 0.  1.
     999900   -1    0    0    0    0 -0.00000000000E+00 -0.00000000000E+00 -0.74505805969E-08  0.93827000000E+00  0.93827000000E+00 0.  1.
     999902    2    1    2    0    0 -0.75805851035E-02 -0.59340502944E-02  0.92366049345E-02  0.10305885947E+01  0.10305022361E+01 0.  0.
     999903    2    3    3    0    0 -0.11567065060E+00  0.65180496599E-01  0.23286642098E-01  0.14101670637E+00  0.41415543326E-01 0.  0.
         14    1    1    2    0    0  0.75805851035E-02  0.59340502944E-02 -0.92366049345E-02  0.13341405253E-01  0.00000000000E+00 0. -1.
     999901    1    3    3    0    0  0.10809006550E+00 -0.71114546894E-01 -0.14050037164E-01  0.88957188837E+00  0.88000000000E+00 0. -1.
        -11    1    4    4    0    0 -0.69064423786E-01  0.22486617322E-01  0.27506625558E-01  0.77668643365E-01  0.51100000000E-03 0. -1.
         11    1    4    4    0    0 -0.46606226814E-01  0.42693879277E-01 -0.42199834598E-02  0.63348063009E-01  0.51100000000E-03 0.  1.
</event>
<event>
 7    1  0.2928569E+004  0.1043930E+01  0.7957747E-01            NaN
         13   -1    0    0    0    0  0.00000000000E+00  0.00000000000E+00  0.74505805969E-08  0.10566000000E+00  0.10566000000E+00 0.  1.
     999900   -1    0    0    0    0 -0.00000000000E+00 -0.00000000000E+00 -0.74505805969E-08  0.93827000000E+00  0.93827000000E+00 0. -1.
     999903    2    1    2    0    0 -0.11293095434E-01 -0.87088624614E-01 -0.62560975313E-01  0.11681256106E+00  0.44937025357E-01 0.  0.
         14    1    1    2    0    0 -0.36339738502E-02 -0.25206466689E-01 -0.24822788274E-01  0.35563219013E-01  0.00000000000E+00 0. -1.
     999901    1    1    2    0    0  0.14927069284E-01  0.11229509130E+00  0.87383763587E-01  0.89155421993E+00  0.88000000000E+00 0.  1.
        -11    1    3    3    0    0  0.14280622720E-01 -0.50586467839E-01 -0.43920055430E-01  0.68499337980E-01  0.51100000000E-03 0. -1.
         11    1    3    3    0    0 -0.25573718154E-01 -0.36502156775E-01 -0.18640919883E-01  0.48313223082E-01  0.51100000000E-03 0.  1.
</event>
<event>
 8    1  0.2928569E+004  0.1043930E+01  0.7957747E-01            NaN
         13   -1    0    0    0    0  0.00000000000E+00  0.00000000000E+00  0.74505805969E-08  0.10566000000E+00  0.10566000000E+00 0.  1.
     999900   -1    0    0    0    0 -0.00000000000E+00 -0.00000000000E+00 -0.74505805969E-08  0.93827000000E+00  0.93827000000E+00 0. -1.
     999902    2    1    2    0    0 -0.44896416177E-02  0.40309289642E-02  0.11895896763E-01  0.10305914232E+01  0.10305051014E+01 0.  0.
     999903    2    3    3    0    0 -0.10998700669E+00  0.63720086154E-01  0.43902749647E-01  0.14170620672E+00  0.44674451030E-01 0.  0.
         14    1    1    2    0    0  0.44896416177E-02 -0.40309289642E-02 -0.11895896763E-01  0.13338576759E-01  0.00000000000E+00 0. -1.
     999901    1    3    3    0    0  0.10549736507E+00 -0.59689157190E-01 -0.32006852884E-01  0.88888521652E+00  0.88000000000E+00 0. -1.
        -11    1    4    4    0    0 -0.96977902176E-01  0.67534380083E-01  0.47971732272E-01  0.12754275449E+00  0.51100000000E-03 0. -1.
         11    1    4    4    0    0 -0.13009104516E-01 -0.38142939293E-02 -0.40689826245E-02  0.14163452231E-01  0.51100000000E-03 0.  1.
</event>
<event>
 8    1  0.2928569E+004  0.1043930E+01  0.7957747E-01            NaN
         13   -1    0    0    0    0  0.00000000000E+00  0.00000000000E+00  0.74505805969E-08  0.10566000000E+00  0.10566000000E+00 0.  1.
     999900   -1    0    0    0    0 -0.00000000000E+00 -0.00000000000E+00 -0.74505805969E-08  0.93827000000E+00  0.93827000000E+00 0.  1.
     999902    2    1    2    0    0 -0.15251441380E-02 -0.10718018561E-02 -0.13359182266E-01  0.10304413909E+01  0.10303531033E+01 0.  0.
     999903    2    3    3    0    0 -0.87418031260E-01 -0.16807057805E-01 -0.10129879069E+00  0.14175777959E+00  0.43697067375E-01 0.  0.
         14    1    1    2    0    0  0.15251441380E-02  0.10718018561E-02  0.13359182266E-01  0.13488609072E-01  0.00000000000E+00 0.  1.
     999901    1    3    3    0    0  0.85892887122E-01  0.15735255949E-01  0.87939608422E-01  0.88868361134E+00  0.88000000000E+00 0. -1.
        -11    1    4    4    0    0 -0.50523189911E-01 -0.62610277045E-02 -0.87004911269E-01  0.10080629391E+00  0.51100000000E-03 0.  1.
         11    1    4    4    0    0 -0.36894841348E-01 -0.10546030100E-01 -0.14293879419E-01  0.40951485673E-01  0.51100000000E-03 0. -1.
</event>
<event>
 8    1  0.2928569E+004  0.1043930E+01  0.7957747E-01            NaN
         13   -1    0    0    0    0  0.00000000000E+00  0.00000000000E+00  0.74505805969E-08  0.10566000000E+00  0.10566000000E+00 0.  1.
     999900   -1    0    0    0    0 -0.00000000000E+00 -0.00000000000E+00 -0.74505805969E-08  0.93827000000E+00  0.93827000000E+00 0. -1.
     999902    2    1    2    0    0  0.61339952133E-02  0.12424837233E-01 -0.40082482630E-02  0.10295054192E+01  0.10294043616E+01 0.  0.
     999903    2    3    3    0    0  0.11565240305E+00 -0.23551558016E-01  0.61046118835E-01  0.13960618144E+00  0.42814752770E-01 0.  0.
         14    1    1    2    0    0 -0.61339952133E-02 -0.12424837233E-01  0.40082482630E-02  0.14424580815E-01  0.00000000000E+00 0.  1.
     999901    1    3    3    0    0 -0.10951840783E+00  0.35976395249E-01 -0.65054367098E-01  0.88989923775E+00  0.88000000000E+00 0. -1.
        -11    1    4    4    0    0  0.75644276623E-01  0.58872646412E-02  0.37328910825E-01  0.84560186702E-01  0.51100000000E-03 0. -1.
         11    1    4    4    0    0  0.40008126424E-01 -0.29438822657E-01  0.23717208010E-01  0.55045994733E-01  0.51100000000E-03 0.  1.
</event>
<event>
 8    1  0.2928569E+004  0.1043930E+01  0.7957747E-01            NaN
         13   -1    0    0    0    0  0.00000000000E+00  0.00000000000E+00  0.74505805969E-08  0.10566000000E+00  0.10566000000E+00 0.  1.
     999900   -1    0    0    0    0 -0.00000000000E+00 -0.00000000000E+00 -0.74505805969E-08  0.93827000000E+00  0.93827000000E+00 0. -1.
     999902    2    1    2    0    0  0.10379925253E-01 -0.83651972446E-02 -0.21266147657E-02  0.10304303014E+01  0.10303418676E+01 0.  0.
     999903    2    3    3    0    0  0.10115295906E+00 -0.86552696726E-01 -0.21579111560E-01  0.14209960371E+00  0.44758785537E-01 0.  0.
         14    1    1    2    0    0 -0.10379925253E-01  0.83651972446E-02  0.21266147657E-02  0.13499698647E-01  0.00000000000E+00 0.  1.
     999901    1    3    3    0    0 -0.90773033804E-01  0.78187499481E-01  0.19452496795E-01  0.88833069764E+00  0.88000000000E+00 0. -1.
        -11    1    4    4    0    0  0.53744682492E-01 -0.21378324271E-01  0.27641143267E-02  0.57908765259E-01  0.51100000000E-03 0. -1.
         11    1    4    4    0    0  0.47408276565E-01 -0.65174372455E-01 -0.24343225887E-01  0.84190838452E-01  0.51100000000E-03 0.  1.
</event>
<event>
 8    1  0.2928569E+004  0.1043930E+01  0.7957747E-01            NaN
         13   -1    0    0    0    0  0.00000000000E+00  0.00000000000E+00  0.74505805969E-08  0.10566000000E+00  0.10566000000E+00 0. -1.
     999900   -1    0    0    0    0 -0.00000000000E+00 -0.00000000000E+00 -0.74505805969E-08  0.93827000000E+00  0.93827000000E+00 0. -1.
     999902    2    1    2    0    0 -0.32715511825E-02 -0.14045122409E-01 -0.11977307420E-02  0.10294592340E+01  0.10293575236E+01 0.  0.
     999903    2    3    3    0    0 -0.18248645168E-01 -0.73421817074E-01  0.11009585182E+00  0.14033822604E+00  0.43010984968E-01 0.  0.
         14    1    1    2    0    0  0.32715511825E-02  0.14045122409E-01  0.11977307420E-02  0.14470766032E-01  0.00000000000E+00 0. -1.
     999901    1    3    3    0    0  0.14977093985E-01  0.59376694665E-01 -0.11129358256E+00  0.88912100792E+00  0.88000000000E+00 0. -1.
        -11    1    4    4    0    0 -0.13325859463E-01 -0.10128458115E-01  0.50719283757E-01  0.53412274433E-01  0.51100000000E-03 0. -1.
         11    1    4    4    0    0 -0.49227857050E-02 -0.63293358959E-01  0.59376568064E-01  0.86925951611E-01  0.51100000000E-03 0.  1.
</event>
<event>
 8    1  0.2928569E+004  0.1043930E+01  0.7957747E-01            NaN
         13   -1    0    0    0    0  0.00000000000E+00  0.00000000000E+00  0.74505805969E-08  0.10566000000E+00  0.10566000000E+00 0.  1.
     999900   -1    0    0    0    0 -0.00000000000E+00 -0.00000000000E+00 -0.74505805969E-08  0.93827000000E+00  0.93827000000E+00 0.  1.
     999902    2    1    2    0    0  0.10248194267E-01  0.32786509021E-02  0.11866979102E-01  0.10279112538E+01  0.10277864299E+01 0.  0.
     999903    2    3    3    0    0 -0.10946334544E+00  0.21666144840E-02  0.70113274036E-01  0.13789736611E+00  0.45966228588E-01 0.  0.
         14    1    1    2    0    0 -0.10248194267E-01 -0.32786509021E-02 -0.11866979102E-01  0.16018746221E-01  0.00000000000E+00 0. -1.
     999901    1    3    3    0    0  0.11971153971E+00  0.11120364181E-02 -0.58246294934E-01  0.89001388767E+00  0.88000000000E+00 0.  1.
        -11    1    4    4    0    0 -0.11017549618E+00  0.64962002278E-02  0.73263890840E-01  0.13247150410E+00  0.51100000000E-03 0.  1.
         11    1    4    4    0    0  0.71215073406E-03 -0.43295857438E-02 -0.31506168037E-02  0.54258620167E-02  0.51100000000E-03 0. -1.
</event>
<event>
 8    1  0.2928569E+004  0.1043930E+01  0.7957747E-01            NaN
         13   -1    0    0    0    0  0.00000000000E+00  0.00000000000E+00  0.74505805969E-08  0.10566000000E+00  0.10566000000E+00 0.  1.
     999900   -1    0    0    0    0 -0.00000000000E+00 -0.00000000000E+00 -0.74505805969E-08  0.93827000000E+00  0.93827000000E+00 0.  1.
     999902    2    1    2    0    0  0.26471652522E-03 -0.20875710178E-02  0.14545006557E-01  0.10292335636E+01  0.10291286330E+01 0.  0.
     999903    2    3    3    0    0 -0.84684505624E-01 -0.77929563665E-01  0.66232940019E-01  0.14039160876E+00  0.45590778459E-01 0.  0.
         14    1    1    2    0    0 -0.26471652522E-03  0.20875710178E-02 -0.14545006557E-01  0.14696436416E-01  0.00000000000E+00 0. -1.
     999901    1    3    3    0    0  0.84949222149E-01  0.75841992647E-01 -0.51687933462E-01  0.88884195483E+00  0.88000000000E+00 0. -1.
        -11    1    4    4    0    0 -0.29791161127E-01 -0.43032242183E-01  0.77371047364E-02  0.52909460962E-01  0.51100000000E-03 0.  1.
         11    1    4    4    0    0 -0.54893344497E-01 -0.34897321482E-01  0.58495835282E-01  0.87482147796E-01  0.51100000000E-03 0. -1.
</event>
<event>
 8    1  0.2928569E+004  0.1043930E+01  0.7957747E-01            NaN
         13   -1    0    0    0    0  0.00000000000E+00  0.00000000000E+00  0.74505805969E-08  0.10566000000E+00  0.10566000000E+00 0. -1.
     999900   -1    0    0    0    0 -0.00000000000E+00 -0.00000000000E+00 -0.74505805969E-08  0.93827000000E+00  0.93827000000E+00 0. -1.
     999902    2    1    2    0    0  0.67880236426E-02  0.41725126669E-03 -0.13360117537E-01  0.10289385323E+01  0.10288293149E+01 0.  0.
     999903    2    3    3    0    0 -0.23499600508E-01  0.90334045450E-01 -0.94596287818E-01  0.14011814244E+00  0.44409066407E-01 0.  0.
         14    1    1    2    0    0 -0.67880236426E-02 -0.41725126669E-03  0.13360117537E-01  0.14991467713E-01  0.00000000000E+00 0. -1.
     999901    1    3    3    0    0  0.30287624151E-01 -0.89916794183E-01  0.81236170281E-01  0.88882038985E+00  0.88000000000E+00 0.  1.
        -11    1    4    4    0    0  0.45190149172E-02  0.21963392289E-01 -0.33065646676E-02  0.22671713380E-01  0.51100000000E-03 0.  1.
         11    1    4    4    0    0 -0.28018615426E-01  0.68370653161E-01 -0.91289723151E-01  0.11744642906E+00  0.51100000000E-03 0. -1.
</event>
<event>
 8    1  0.2928569E+004  0.1043930E+01  0.7957747E-01            NaN
         13   -1    0    0    0    0  0.00000000000E+00  0.00000000000E+00  0.74505805969E-08  0.10566000000E+00  0.10566000000E+00 0.  1.
     999900   -1    0    0    0    0 -0.00000000000E+00 -0.00000000000E+00 -0.74505805969E-08  0.93827000000E+00  0.93827000000E+00 0.  1.
     999902    2    1    2    0    0 -0.98049866965E-02  0.11730442472E-02 -0.89858802428E-02  0.10305786015E+01  0.10304921126E+01 0.  0.
     999903    2    3    3    0    0 -0.11713533827E+00 -0.10182552776E-01 -0.66294974151E-01  0.14213440735E+00  0.44528578508E-01 0.  0.
         14    1    1    2    0    0  0.98049866965E-02 -0.11730442472E-02  0.89858802428E-02  0.13351398453E-01  0.00000000000E+00 0.  1.
     999901    1    3    3    0    0  0.10733035157E+00  0.11355597023E-01  0.57309093908E-01  0.88844419419E+00  0.88000000000E+00 0. -1.
        -11    1    4    4    0    0 -0.66953663513E-01  0.13195481897E-01 -0.49415619355E-01  0.84256028612E-01  0.51100000000E-03 0.  1.
         11    1    4    4    0    0 -0.50181674754E-01 -0.23378034673E-01 -0.16879354797E-01  0.57878378741E-01  0.51100000000E-03 0. -1.
</event>
<event>
 8    1  0.2928569E+004  0.1043930E+01  0.7957747E-01            NaN
         13   -1    0    0    0    0  0.00000000000E+00  0.00000000000E+00  0.74505805969E-08  0.10566000000E+00  0.10566000000E+00 0.  1.
     999900   -1    0    0    0    0 -0.00000000000E+00 -0.00000000000E+00 -0.74505805969E-08  0.93827000000E+00  0.93827000000E+00 0. -1.
     999902    2    1    2    0    0  0.13386373918E-01 -0.18104564742E-02  0.20074878123E-02  0.10302733984E+01  0.10301828831E+01 0.  0.
     999903    2    3    3    0    0  0.32321582274E-01 -0.11797129761E+00 -0.53089663747E-01  0.14072993167E+00  0.44994327752E-01 0.  0.
         14    1    1    2    0    0 -0.13386373918E-01  0.18104564742E-02 -0.20074878123E-02  0.13656601577E-01  0.00000000000E+00 0. -1.
     999901    1    3    3    0    0 -0.18935208356E-01  0.11616084114E+00  0.55097151560E-01  0.88954346675E+00  0.88000000000E+00 0.  1.
        -11    1    4    4    0    0  0.13168351380E-01 -0.67778200430E-01 -0.52935252274E-01  0.87003976840E-01  0.51100000000E-03 0. -1.
         11    1    4    4    0    0  0.19153230894E-01 -0.50193097185E-01 -0.15441147318E-03  0.53725954832E-01  0.51100000000E-03 0.  1.
</event>
<event>
 8    1  0.2928569E+004  0.1043930E+01  0.7957747E-01            NaN
         13   -1    0    0    0    0  0.00000000000E+00  0.00000000000E+00  0.74505805969E-08  0.10566000000E+00  0.10566000000E+00 0. -1.
     999900   -1    0    0    0    0 -0.00000000000E+00 -0.00000000000E+00 -0.74505805969E-08  0.93827000000E+00  0.93827000000E+00 0. -1.
     999902    2    1    2    0    0 -0.10614713658E-01  0.53573140467E-02 -0.65527607442E-02  0.10303538579E+01  0.10302644131E+01 0.  0.
     999903    2    3    3    0    0 -0.50626267294E-01  0.11736179083E+00 -0.41584988510E-01  0.14166201921E+00  0.44743798795E-01 0.  0.
         14    1    1    2    0    0  0.10614713658E-01 -0.53573140467E-02  0.65527607442E-02  0.13576142059E-01  0.00000000000E+00 0. -1.
     999901    1    3    3    0    0  0.40011553636E-01 -0.11200447678E+00  0.35032227765E-01  0.88869183873E+00  0.88000000000E+00 0.  1.
        -11    1    4    4    0    0 -0.34092165225E-01  0.26839634738E-01 -0.14011582863E-01  0.45598544910E-01  0.51100000000E-03 0.  1.
         11    1    4    4    0    0 -0.16534102069E-01  0.90522156092E-01 -0.27573405646E-01  0.96063474300E-01  0.51100000000E-03 0. -1.
</event>
<event>
 8    1  0.2928569E+004  0.1043930E+01  0.7957747E-01            NaN
         13   -1    0    0    0    0  0.00000000000E+00  0.00000000000E+00  0.74505805969E-08  0.10566000000E+00  0.10566000000E+00 0.  1.
     999900   -1    0    0    0    0 -0.00000000000E+00 -0.00000000000E+00 -0.74505805969E-08  0.93827000000E+00  0.93827000000E+00 0.  1.
     999902    2    1    2    0    0  0.67413154794E-03 -0.13048742656E-01 -0.28830526482E-02  0.10305495616E+01  0.10304626936E+01 0.  0.
     999903    2    3    3    0    0  0.50406348648E-01 -0.10276103436E+00  0.73298819633E-01  0.14132221930E+00  0.38712046438E-01 0.  0.
         14    1    1    2    0    0 -0.67413154794E-03  0.13048742656E-01  0.28830526482E-02  0.13380438364E-01  0.00000000000E+00 0.  1.
     999901    1    3    3    0    0 -0.49732217100E-01  0.89712291708E-01 -0.76181872281E-01  0.88922734234E+00  0.88000000000E+00 0.  1.
        -11    1    4    4    0    0 -0.43826862819E-02 -0.23647996949E-01  0.20191996168E-01  0.31407220969E-01  0.51100000000E-03 0.  1.
         11    1    4    4    0    0  0.54789034930E-01 -0.79113037415E-01  0.53106823465E-01  0.10991499833E+00  0.51100000000E-03 0. -1.
</event>
<event>
 8    1  0.2928569E+004  0.1043930E+01  0.7957747E-01            NaN
         13   -1    0    0    0    0  0.00000000000E+00  0.00000000000E+00  0.74505805969E-08  0.10566000000E+00  0.10566000000E+00 0. -1.
     999900   -1    0    0    0    0 -0.00000000000E+00 -0.00000000000E+00 -0.74505805969E-08  0.93827000000E+00  0.93827000000E+00 0.  1.
     999902    2    1    2    0    0 -0.70341324228E-02 -0.71542568885E-02  0.95729189893E-02  0.10300626575E+01  0.10299693079E+01 0.  0.
     999903    2    3    3    0    0  0.11768136113E+00  0.51538263326E-01  0.29094450406E-01  0.13911941773E+00  0.44750754197E-01 0.  0.
         14    1    1    2    0    0  0.70341324228E-02  0.71542568885E-02 -0.95729189893E-02  0.13867342519E-01  0.00000000000E+00 0.  1.
     999901    1    3    3    0    0 -0.12471549356E+00 -0.58692520215E-01 -0.19521531416E-01  0.89094323975E+00  0.88000000000E+00 0. -1.
        -11    1    4    4    0    0  0.98774920826E-01  0.59284581422E-01  0.20810211297E-01  0.11706610352E+00  0.51100000000E-03 0.  1.
         11    1    4    4    0    0  0.18906440307E-01 -0.77463180950E-02  0.82842391090E-02  0.22053314212E-01  0.51100000000E-03 0. -1.
</event>
<event>
 8    1  0.2928569E+004  0.1043930E+01  0.7957747E-01            NaN
         13   -1    0    0    0    0  0.00000000000E+00  0.00000000000E+00  0.74505805969E-08  0.10566000000E+00  0.10566000000E+00 0. -1.
     999900   -1    0    0    0    0 -0.00000000000E+00 -0.00000000000E+00 -0.74505805969E-08  0.93827000000E+00  0.93827000000E+00 0.  1.
     999902    2    1    2    0    0 -0.23484314944E-02  0.20004818088E-03  0.13744314362E-01  0.10299850609E+01  0.10298906565E+01 0.  0.
     999903    2    3    3    0    0  0.10144143459E+00 -0.48064359077E-01 -0.68043410030E-01  0.13881110414E+00  0.45144985549E-01 0.  0.
         14    1    1    2    0    0  0.23484314944E-02 -0.20004818088E-03 -0.13744314362E-01  0.13944939119E-01  0.00000000000E+00 0.  1.
     999901    1    3    3    0    0 -0.10378986608E+00  0.48264407258E-01  0.81787724392E-01  0.89117395674E+00  0.88000000000E+00 0. -1.
        -11    1    4    4    0    0  0.67345160016E-01 -0.14090193634E-01 -0.57182695533E-01  0.89465221867E-01  0.51100000000E-03 0. -1.
         11    1    4    4    0    0  0.34096274569E-01 -0.33974165444E-01 -0.10860714497E-01  0.49345882275E-01  0.51100000000E-03 0.  1.
</event>
<event>
 8    1  0.2928569E+004  0.1043930E+01  0.7957747E-01            NaN
         13   -1    0    0    0    0  0.00000000000E+00  0.00000000000E+00  0.74505805969E-08  0.10566000000E+00  0.10566000000E+00 0.  1.
     999900   -1    0    0    0    0 -0.00000000000E+00 -0.00000000000E+00 -0.74505805969E-08  0.93827000000E+00  0.93827000000E+00 0.  1.
     999902    2    1    2    0    0  0.89384129734E-02 -0.98820466647E-02  0.20940931955E-02  0.10304416606E+01  0.10303533766E+01 0.  0.
     999903    2    3    3    0    0  0.11211977423E+00 -0.49332055774E-01  0.54251721466E-01  0.14200307822E+00  0.47086403992E-01 0.  0.
         14    1    1    2    0    0 -0.89384129734E-02  0.98820466647E-02 -0.20940931955E-02  0.13488339374E-01  0.00000000000E+00 0.  1.
     999901    1    3    3    0    0 -0.10318136125E+00  0.39450009109E-01 -0.52157628271E-01  0.88843858241E+00  0.88000000000E+00 0.  1.
        -11    1    4    4    0    0  0.42930745609E-01 -0.32276182244E-01  0.22045392652E-02  0.53757994505E-01  0.51100000000E-03 0.  1.
         11    1    4    4    0    0  0.69189028618E-01 -0.17055873530E-01  0.52047182201E-01  0.88245083710E-01  0.51100000000E-03 0. -1.
</event>
<event>
 8    1  0.2928569E+004  0.1043930E+01  0.7957747E-01            NaN
         13   -1    0    0    0    0  0.00000000000E+00  0.00000000000E+00  0.74505805969E-08  0.10566000000E+00  0.10566000000E+00 0. -1.
     999900   -1    0    0    0    0 -0.00000000000E+00 -0.00000000000E+00 -0.74505805969E-08  0.93827000000E+00  0.93827000000E+00 0. -1.
     999902    2    1    2    0    0  0.44665111042E-02  0.11614385169E-01  0.63870698866E-02  0.10299429229E+01  0.10298479432E+01 0.  0.
     999903    2    3    3    0    0  0.62434132013E-01 -0.53459856692E-01  0.10444789243E+00  0.14021778166E+00  0.44673112065E-01 0.  0.
         14    1    1    2    0    0 -0.44665111042E-02 -0.11614385169E-01 -0.63870698866E-02  0.13987077109E-01  0.00000000000E+00 0.  1.
     999901    1    3    3    0    0 -0.57967620909E-01  0.65074241861E-01 -0.98060822544E-01  0.88972514124E+00  0.88000000000E+00 0. -1.
        -11    1    4    4    0    0  0.18036318681E-01 -0.22305392938E-01  0.83686900359E-02  0.29885371666E-01  0.51100000000E-03 0. -1.
         11    1    4    4    0    0  0.44397813332E-01 -0.31154463754E-01  0.96079202395E-01  0.11033240999E+00  0.51100000000E-03 0.  1.
</event>
<event>
 8    1  0.2928569E+004  0.1043930E+01  0.7957747E-01            NaN
         13   -1    0    0    0    0  0.00000000000E+00  0.00000000000E+00  0.74505805969E-08  0.10566000000E+00  0.10566000000E+00 0.  1.
     999900   -1    0    0    0    0 -0.00000000000E+00 -0.00000000000E+00 -0.74505805969E-08  0.93827000000E+00  0.93827000000E+00 0. -1.
     999902    2    1    2    0    0 -0.35271407039E-02 -0.92413191711E-02 -0.91054813545E-02  0.10304855777E+01  0.10303978713E+01 0.  0.
     999903    2    3    3    0    0 -0.11163114994E+00 -0.74146977289E-01 -0.14126361953E-01  0.14148364823E+00  0.43113579494E-01 0.  0.
         14    1    1    2    0    0  0.35271407039E-02  0.92413191711E-02  0.91054813545E-02  0.13444422348E-01  0.00000000000E+00 0. -1.
     999901    1    3    3    0    0  0.10810400924E+00  0.64905658118E-01  0.50208805986E-02  0.88900192942E+00  0.88000000000E+00 0.  1.
        -11    1    4    4    0    0 -0.40088590818E-01 -0.10333015985E-01 -0.18865896071E-01  0.45497796526E-01  0.51100000000E-03 0.  1.
         11    1    4    4    0    0 -0.71542559124E-01 -0.63813961304E-01  0.47395341183E-02  0.95985851707E-01  0.51100000000E-03 0. -1.
</event>
<event>
 8    1  0.2928569E+004  0.1043930E+01  0.7957747E-01            NaN
         13   -1    0    0    0    0  0.00000000000E+00  0.00000000000E+00  0.74505805969E-08  0.10566000000E+00  0.10566000000E+00 0. -1.
     999900   -1    0    0    0    0 -0.00000000000E+00 -0.00000000000E+00 -0.74505805969E-08  0.93827000000E+00  0.93827000000E+00 0.  1.
     999902    2    1    2    0    0  0.14143306125E-03  0.68773982240E-03  0.14289768348E-01  0.10296229923E+01  0.10295235868E+01 0.  0.
     999903    2    3    3    0    0  0.10388941080E+00 -0.41218013026E-02  0.83165393028E-01  0.14084257723E+00  0.45936369468E-01 0.  0.
         14    1    1    2    0    0 -0.14143306125E-03 -0.68773982240E-03 -0.14289768348E-01  0.14307007682E-01  0.00000000000E+00 0.  1.
     999901    1    3    3    0    0 -0.10374797774E+00  0.48095411250E-02 -0.68875624680E-01  0.88878041509E+00  0.88000000000E+00 0.  1.
        -11    1    4    4    0    0 -0.25152808664E-02  0.17002892878E-02  0.12745533285E-01  0.13112107428E-01  0.51100000000E-03 0. -1.
         11    1    4    4    0    0  0.10640469167E+00 -0.58220905903E-02  0.70419859743E-01  0.12773046980E+00  0.51100000000E-03 0.  1.
</event>
<event>
 8    1  0.2928569E+004  0.1043930E+01  0.7957747E-01            NaN
         13   -1    0    0    0    0  0.00000000000E+00  0.00000000000E+00  0.74505805969E-08  0.10566000000E+00  0.10566000000E+00 0. -1.
     999900   -1    0    0    0    0 -0.00000000000E+00 -0.00000000000E+00 -0.74505805969E-08  0.93827000000E+00  0.93827000000E+00 0.  1.
     999902    2    1    2    0    0  0.78467372134E-02 -0.10270000608E-02 -0.11534412335E-01  0.10299418378E+01  0.10298468433E+01 0.  0.
     999903    2    3    3    0    0  0.36211675978E-01 -0.38581388239E-01  0.12022887318E+00  0.13888826744E+00  0.45112746454E-01 0.  0.
         14    1    1    2    0    0 -0.78467372134E-02  0.10270000608E-02  0.11534412335E-01  0.13988162208E-01  0.00000000000E+00 0.  1.
     999901    1    3    3    0    0 -0.28364938765E-01  0.37554388178E-01 -0.13176328551E+00  0.89105357035E+00  0.88000000000E+00 0.  1.
        -11    1    4    4    0    0  0.36735652059E-03 -0.33071187804E-01  0.52267575087E-01  0.61854659809E-01  0.51100000000E-03 0.  1.
         11    1    4    4    0    0  0.35844319458E-01 -0.55102004347E-02  0.67961298089E-01  0.77033607635E-01  0.51100000000E-03 0. -1.
</event>
<event>
 8    1  0.2928569E+004  0.1043930E+01  0.7957747E-01            NaN
         13   -1    0    0    0    0  0.00000000000E+00  0.00000000000E+00  0.74505805969E-08  0.10566000000E+00  0.10566000000E+00 0. -1.
     999900   -1    0    0    0    0 -0.00000000000E+00 -0.00000000000E+00 -0.74505805969E-08  0.93827000000E+00  0.93827000000E+00 0.  1.
     999902    2    1    2    0    0 -0.63728054661E-02  0.10613155862E-01 -0.72471127718E-02  0.10295852320E+01  0.10294852974E+01 0.  0.
     999903    2    3    3    0    0 -0.10414031850E+00  0.83842623575E-01 -0.57201091657E-02  0.14114650402E+00  0.44886796325E-01 0.  0.
         14    1    1    2    0    0  0.63728054661E-02 -0.10613155862E-01  0.72471127718E-02  0.14344768049E-01  0.00000000000E+00 0. -1.
     999901    1    3    3    0    0  0.97767513029E-01 -0.73229467712E-01 -0.15270036062E-02  0.88843872793E+00  0.88000000000E+00 0. -1.
        -11    1    4    4    0    0 -0.68006781144E-01  0.28188987400E-01  0.55962967646E-02  0.73831706946E-01  0.51100000000E-03 0. -1.
         11    1    4    4    0    0 -0.36133537351E-01  0.55653636175E-01 -0.11316405930E-01  0.67314797074E-01  0.51100000000E-03 0.  1.
</event>
<event>
 8    1  0.2928569E+004  0.1043930E+01  0.7957747E-01            NaN
         13   -1    0    0    0    0  0.00000000000E+00  0.00000000000E+00  0.74505805969E-08  0.10566000000E+00  0.10566000000E+00 0. -1.
     999900   -1    0    0    0    0 -0.00000000000E+00 -0.00000000000E+00 -0.74505805969E-08  0.93827000000E+00  0.93827000000E+00 0. -1.
     999902    2    1    2    0    0 -0.95038576102E-02 -0.92051701319E-02 -0.10329801568E-03  0.10306986306E+01  0.10306136997E+01 0.  0.
     999903    2    3    3    0    0 -0.81714446368E-02  0.40998381718E-01 -0.12597574627E+00  0.14032452651E+00  0.45535088458E-01 0.  0.
         14    1    1    2    0    0  0.95038576102E-02  0.92051701319E-02  0.10329801568E-03  0.13231369434E-01  0.00000000000E+00 0.  1.
     999901    1    3    3    0    0 -0.13324129734E-02 -0.50203551850E-01  0.12587244826E+00  0.89037410406E+00  0.88000000000E+00 0.  1.
        -11    1    4    4    0    0 -0.26312196796E-01  0.31512478283E-01 -0.90162518042E-01  0.99070221400E-01  0.51100000000E-03 0.  1.
         11    1    4    4    0    0  0.18140752159E-01  0.94859034358E-02 -0.35813228229E-01  0.41254305110E-01  0.51100000000E-03 0. -1.
</event>
<event>
 8    1  0.2928569E+004  0.1043930E+01  0.7957747E-01            NaN
         13   -1    0    0    0    0  0.00000000000E+00  0.00000000000E+00  0.74505805969E-08  0.10566000000E+00  0.10566000000E+00 0. -1.
     999900   -1    0    0    0    0 -0.00000000000E+00 -0.00000000000E+00 -0.74505805969E-08  0.93827000000E+00  0.93827000000E+00 0.  1.
     999902    2    1    2    0    0  0.84616734632E-02 -0.82939721143E-02  0.98887297187E-02  0.10284970202E+01  0.10283812248E+01 0.  0.
     999903    2    3    3    0    0 -0.12504946062E+00  0.28083875736E-01  0.22617887502E-01  0.13759264696E+00  0.44655301843E-01 0.  0.
         14    1    1    2    0    0 -0.84616734632E-02  0.82939721143E-02 -0.98887297187E-02  0.15432979838E-01  0.00000000000E+00 0.  1.
     999901    1    3    3    0    0  0.13351113409E+00 -0.36377847851E-01 -0.12729157784E-01  0.89090437321E+00  0.88000000000E+00 0. -1.
        -11    1    4    4    0    0 -0.39745359469E-01  0.30743954239E-01  0.11215831158E-01  0.51487283004E-01  0.51100000000E-03 0. -1.
         11    1    4    4    0    0 -0.85304101154E-01 -0.26600785028E-02  0.11402056344E-01  0.86105363952E-01  0.51100000000E-03 0.  1.
</event>
<event>
 8    1  0.2928569E+004  0.1043930E+01  0.7957747E-01            NaN
         13   -1    0    0    0    0  0.00000000000E+00  0.00000000000E+00  0.74505805969E-08  0.10566000000E+00  0.10566000000E+00 0. -1.
     999900   -1    0    0    0    0 -0.00000000000E+00 -0.00000000000E+00 -0.74505805969E-08  0.93827000000E+00  0.93827000000E+00 0. -1.
     999902    2    1    2    0    0 -0.81330604974E-02 -0.15005834464E-02 -0.22773823023E-01  0.10197009794E+01  0.10194130870E+01 0.  0.
     999903    2    3    3    0    0  0.61885787695E-01 -0.84776086515E-01  0.60468179246E-01  0.12910192290E+00  0.44655013509E-01 0.  0.
         14    1    1    2    0    0  0.81330604974E-02  0.15005834464E-02  0.22773823023E-01  0.24229020592E-01  0.00000000000E+00 0. -1.
     999901    1    3    3    0    0 -0.70018848192E-01  0.83275503068E-01 -0.83242002270E-01  0.89059905651E+00  0.88000000000E+00 0.  1.
        -11    1    4    4    0    0  0.39680668038E-01 -0.70550723848E-01  0.63044684649E-01  0.10260045533E+00  0.51100000000E-03 0.  1.
         11    1    4    4    0    0  0.22205119657E-01 -0.14225362667E-01 -0.25765054026E-02  0.26501467564E-01  0.51100000000E-03 0. -1.
</event>
<event>
 8    1  0.2928569E+004  0.1043930E+01  0.7957747E-01            NaN
         13   -1    0    0    0    0  0.00000000000E+00  0.00000000000E+00  0.74505805969E-08  0.10566000000E+00  0.10566000000E+00 0. -1.
     999900   -1    0    0    0    0 -0.00000000000E+00 -0.00000000000E+00 -0.74505805969E-08  0.93827000000E+00  0.93827000000E+00 0.  1.
     999902    2    1    2    0    0 -0.63194411037E-02  0.59824973862E-02 -0.39886696916E-02  0.10343573777E+01  0.10343130811E+01 0.  0.
     999903    2    3    3    0    0  0.13016557501E+00  0.38055368621E-01  0.11014804097E-01  0.14313241573E+00  0.44432809120E-01 0.  0.
         14    1    1    2    0    0  0.63194411037E-02 -0.59824973862E-02  0.39886696916E-02  0.95726222503E-02  0.00000000000E+00 0. -1.
     999901    1    3    3    0    0 -0.13648501611E+00 -0.32072871234E-01 -0.15003473788E-01  0.89122496201E+00  0.88000000000E+00 0.  1.
        -11    1    4    4    0    0  0.46623254166E-01  0.35796574869E-01  0.94932836460E-02  0.59544153002E-01  0.51100000000E-03 0.  1.
         11    1    4    4    0    0  0.83542320844E-01  0.22587937516E-02  0.15215204509E-02  0.83588262732E-01  0.51100000000E-03 0. -1.
</event>
<event>
 8    1  0.2928569E+004  0.1043930E+01  0.7957747E-01            NaN
         13   -1    0    0    0    0  0.00000000000E+00  0.00000000000E+00  0.74505805969E-08  0.10566000000E+00  0.10566000000E+00 0.  1.
     999900   -1    0    0    0    0 -0.00000000000E+00 -0.00000000000E+00 -0.74505805969E-08  0.93827000000E+00  0.93827000000E+00 0. -1.
     999902    2    1    2    0    0 -0.41883557431E-02  0.44010416174E-02 -0.12187991131E-01  0.10303116808E+01  0.10302216756E+01 0.  0.
     999903    2    3    3    0    0  0.21840787615E-01 -0.14725544240E-01 -0.13161322569E+00  0.14165779468E+00  0.45288276204E-01 0.  0.
         14    1    1    2    0    0  0.41883557431E-02 -0.44010416174E-02  0.12187991131E-01  0.13618319242E-01  0.00000000000E+00 0.  1.
     999901    1    3    3    0    0 -0.26029143358E-01  0.19126585858E-01  0.11942523456E+00  0.88865388608E+00  0.88000000000E+00 0.  1.
        -11    1    4    4    0    0 -0.65038121821E-02  0.70702056908E-02 -0.68046389271E-01  0.68723064507E-01  0.51100000000E-03 0. -1.
         11    1    4    4    0    0  0.28344599797E-01 -0.21795749931E-01 -0.63566836416E-01  0.72934730175E-01  0.51100000000E-03 0.  1.
</event>
<event>
 8    1  0.2928569E+004  0.1043930E+01  0.7957747E-01            NaN
         13   -1    0    0    0    0  0.00000000000E+00  0.00000000000E+00  0.74505805969E-08  0.10566000000E+00  0.10566000000E+00 0.  1.
     999900   -1    0    0    0    0 -0.00000000000E+00 -0.00000000000E+00 -0.74505805969E-08  0.93827000000E+00  0.93827000000E+00 0. -1.
     999902    2    1    2    0    0  0.77494218954E-02 -0.43812687716E-02 -0.10918125453E-01  0.10298426113E+01  0.10297462550E+01 0.  0.
     999903    2    3    3    0    0  0.16880176291E-01 -0.48763904917E-01 -0.12309384589E+00  0.14156530029E+00  0.47178179027E-01 0.  0.
         14    1    1    2    0    0 -0.77494218954E-02  0.43812687716E-02  0.10918125453E-01  0.14087388657E-01  0.00000000000E+00 0. -1.
     999901    1    3    3    0    0 -0.91307543957E-02  0.44382636145E-01  0.11217572044E+00  0.88827731105E+00  0.88000000000E+00 0.  1.
        -11    1    4    4    0    0  0.29172423973E-01 -0.49362398209E-01 -0.96357754409E-01  0.11212829542E+00  0.51100000000E-03 0. -1.
         11    1    4    4    0    0 -0.12292247681E-01  0.59849329258E-03 -0.26736091485E-01  0.29437004878E-01  0.51100000000E-03 0.  1.
</event>
<event>
 8    1  0.2928569E+004  0.1043930E+01  0.7957747E-01            NaN
         13   -1    0    0    0    0  0.00000000000E+00  0.00000000000E+00  0.74505805969E-08  0.10566000000E+00  0.10566000000E+00 0.  1.
     999900   -1    0    0    0    0 -0.00000000000E+00 -0.00000000000E+00 -0.74505805969E-08  0.93827000000E+00  0.93827000000E+00 0.  1.
     999902    2    1    2    0    0 -0.58334003495E-02  0.10836628041E-01  0.67009917959E-02  0.10299169933E+01  0.10298216587E+01 0.  0.
     999903    2    3    3    0    0  0.89318156059E-01  0.98580447886E-01  0.87614050379E-02  0.14044690275E+00  0.44189733718E-01 0.  0.
         14    1    1    2    0    0  0.58334003495E-02 -0.10836628041E-01 -0.67009917959E-02  0.14013006743E-01  0.00000000000E+00 0.  1.
     999901    1    3    3    0    0 -0.95151556408E-01 -0.87743819845E-01 -0.20604132420E-02  0.88947009051E+00  0.88000000000E+00 0.  1.
        -11    1    4    4    0    0  0.36111599845E-01  0.70432298906E-01  0.12511228677E-01  0.80134563932E-01  0.51100000000E-03 0. -1.
         11    1    4    4    0    0  0.53206556214E-01  0.28148148980E-01 -0.37498236395E-02  0.60312338816E-01  0.51100000000E-03 0.  1.
</event>
<event>
 8    1  0.2928569E+004  0.1043930E+01  0.7957747E-01            NaN
         13   -1    0    0    0    0  0.00000000000E+00  0.00000000000E+00  0.74505805969E-08  0.10566000000E+00  0.10566000000E+00 0.  1.
     999900   -1    0    0    0    0 -0.00000000000E+00 -0.00000000000E+00 -0.74505805969E-08  0.93827000000E+00  0.93827000000E+00 0. -1.
     999902    2    1    2    0    0  0.11321275142E-01 -0.35484919511E-02 -0.95259966372E-02  0.10287146236E+01  0.10286020947E+01 0.  0.
     999903    2    3    3    0    0 -0.78497562142E-02 -0.85911417976E-01  0.99341297071E-01  0.13798275171E+00  0.41571096381E-01 0.  0.
         14    1    1    2    0    0 -0.11321275142E-01  0.35484919511E-02  0.95259966372E-02  0.15215376364E-01  0.00000000000E+00 0.  1.
     999901    1    3    3    0    0  0.19171031357E-01  0.82362926025E-01 -0.10886729371E+00  0.89073187193E+00  0.88000000000E+00 0. -1.
        -11    1    4    4    0    0  0.51448635407E-02 -0.66037611945E-01  0.49238327057E-01  0.82535506206E-01  0.51100000000E-03 0. -1.
         11    1    4    4    0    0 -0.12994619755E-01 -0.19873806031E-01  0.50102970014E-01  0.55447245503E-01  0.51100000000E-03 0.  1.
</event>
<event>
 8    1  0.2928569E+004  0.1043930E+01  0.7957747E-01            NaN
         13   -1    0    0    0    0  0.00000000000E+00  0.00000000000E+00  0.74505805969E-08  0.10566000000E+00  0.10566000000E+00 0. -1.
     999900   -1    0    0    0    0 -0.00000000000E+00 -0.00000000000E+00 -0.74505805969E-08  0.93827000000E+00  0.93827000000E+00 0. -1.
     999902    2    1    2    0    0 -0.10140915662E-01 -0.88646609339E-03  0.99560119272E-02  0.10296911038E+01  0.10295926491E+01 0.  0.
     999903    2    3    3    0    0  0.57048157625E-01 -0.64089418038E-01  0.10166348740E+00  0.14012983788E+00  0.44033634873E-01 0.  0.
         14    1    1    2    0    0  0.10140915662E-01  0.88646609339E-03 -0.99560119272E-02  0.14238896239E-01  0.00000000000E+00 0.  1.
     999901    1    3    3    0    0 -0.67189073287E-01  0.63202951945E-01 -0.91707475473E-01  0.88956126588E+00  0.88000000000E+00 0. -1.
        -11    1    4    4    0    0  0.11208976039E-01 -0.17936010022E-03 -0.45810985003E-03  0.11231397932E-01  0.51100000000E-03 0. -1.
         11    1    4    4    0    0  0.45839181587E-01 -0.63910057938E-01  0.10212159725E+00  0.12889843994E+00  0.51100000000E-03 0.  1.
</event>
<event>
 8    1  0.2928569E+004  0.1043930E+01  0.7957747E-01            NaN
         13   -1    0    0    0    0  0.00000000000E+00  0.00000000000E+00  0.74505805969E-08  0.10566000000E+00  0.10566000000E+00 0.  1.
     999900   -1    0    0    0    0 -0.00000000000E+00 -0.00000000000E+00 -0.74505805969E-08  0.93827000000E+00  0.93827000000E+00 0.  1.
     999902    2    1    2    0    0  0.19564670577E-02  0.30419471791E-02 -0.13196624697E-01  0.10302467215E+01  0.10301558499E+01 0.  0.
     999903    2    3    3    0    0  0.12789195786E+00 -0.15956288039E-01 -0.35740458672E-01  0.14079244771E+00  0.43979278460E-01 0.  0.
         14    1    1    2    0    0 -0.19564670577E-02 -0.30419471791E-02  0.13196624697E-01  0.13683278459E-01  0.00000000000E+00 0.  1.
     999901    1    3    3    0    0 -0.12593549080E+00  0.18998235218E-01  0.22543833975E-01  0.88945427383E+00  0.88000000000E+00 0.  1.
        -11    1    4    4    0    0  0.11650557271E+00 -0.70937073825E-02 -0.43300072440E-01  0.12449508645E+00  0.51100000000E-03 0. -1.
         11    1    4    4    0    0  0.11386385147E-01 -0.88625806567E-02  0.75596137682E-02  0.16297361257E-01  0.51100000000E-03 0.  1.
</event>
<event>
 8    1  0.2928569E+004  0.1043930E+01  0.7957747E-01            NaN
         13   -1    0    0    0    0  0.00000000000E+00  0.00000000000E+00  0.74505805969E-08  0.10566000000E+00  0.10566000000E+00 0.  1.
     999900   -1    0    0    0    0 -0.00000000000E+00 -0.00000000000E+00 -0.74505805969E-08  0.93827000000E+00  0.93827000000E+00 0.  1.
     999902    2    1    2    0    0  0.41407501318E-02 -0.11448526918E-01 -0.62366231140E-02  0.10302511825E+01  0.10301603705E+01 0.  0.
     999903    2    3    3    0    0 -0.37876232629E-01 -0.16325304924E-01 -0.12702072010E+00  0.14099418484E+00  0.45210311276E-01 0.  0.
         14    1    1    2    0    0 -0.41407501318E-02  0.11448526918E-01  0.62366231140E-02  0.13678817497E-01  0.00000000000E+00 0.  1.
     999901    1    3    3    0    0  0.42016982761E-01  0.48767780056E-02  0.12078409699E+00  0.88925699766E+00  0.88000000000E+00 0. -1.
        -11    1    4    4    0    0 -0.11540436177E-01  0.12598344329E-01 -0.16513135733E-01  0.23766462079E-01  0.51100000000E-03 0. -1.
         11    1    4    4    0    0 -0.26335796452E-01 -0.28923649253E-01 -0.11050758437E+00  0.11722772276E+00  0.51100000000E-03 0.  1.
</event>
<event>
 8    1  0.2928569E+004  0.1043930E+01  0.7957747E-01            NaN
         13   -1    0    0    0    0  0.00000000000E+00  0.00000000000E+00  0.74505805969E-08  0.10566000000E+00  0.10566000000E+00 0.  1.
     999900   -1    0    0    0    0 -0.00000000000E+00 -0.00000000000E+00 -0.74505805969E-08  0.93827000000E+00  0.93827000000E+00 0. -1.
     999902    2    1    2    0    0  0.93655681364E-02 -0.55357237607E-02 -0.20904120142E-01  0.10203643398E+01  0.10200921750E+01 0.  0.
     999903    2    3    3    0    0  0.11955721828E+00  0.65869820127E-02 -0.36711466546E-01  0.13326849828E+00  0.45557042059E-01 0.  0.
         14    1    1    2    0    0 -0.93655681364E-02  0.55357237607E-02  0.20904120142E-01  0.23565660250E-01  0.00000000000E+00 0.  1.
     999901    1    3    3    0    0 -0.11019165015E+00 -0.12122705773E-01  0.15807346404E-01  0.88709584147E+00  0.88000000000E+00 0.  1.
        -11    1    4    4    0    0  0.25176537076E-01 -0.97672820480E-02 -0.24933446259E-01  0.36758613700E-01  0.51100000000E-03 0. -1.
         11    1    4    4    0    0  0.94380681209E-01  0.16354264061E-01 -0.11778020287E-01  0.96509884578E-01  0.51100000000E-03 0.  1.
</event>
<event>
 7    1  0.2928569E+004  0.1043930E+01  0.7957747E-01            NaN
         13   -1    0    0    0    0  0.00000000000E+00  0.00000000000E+00  0.74505805969E-08  0.10566000000E+00  0.10566000000E+00 0.  1.
     999900   -1    0    0    0    0 -0.00000000000E+00 -0.00000000000E+00 -0.74505805969E-08  0.93827000000E+00  0.93827000000E+00 0. -1.
     999903    2    1    2    0    0  0.11678604026E+00 -0.40039008541E-02 -0.45057269633E-03  0.12501773377E+00  0.44432199131E-01 0.  0.
         14    1    1    2    0    0 -0.11638307123E-01  0.28047067182E-01  0.10905955861E-01  0.32264966193E-01  0.00000000000E+00 0. -1.
     999901    1    1    2    0    0 -0.10514773313E+00 -0.24043166327E-01 -0.10455383164E-01  0.88664730004E+00  0.88000000000E+00 0.  1.
        -11    1    3    3    0    0  0.10478271068E+00 -0.14935113565E-01  0.90010773199E-02  0.10622501865E+00  0.51100000000E-03 0. -1.
         11    1    3    3    0    0  0.12003329581E-01  0.10931212710E-01 -0.94516500163E-02  0.18792715115E-01  0.51100000000E-03 0.  1.
</event>
<event>
 8    1  0.2928569E+004  0.1043930E+01  0.7957747E-01            NaN
         13   -1    0    0    0    0  0.00000000000E+00  0.00000000000E+00  0.74505805969E-08  0.10566000000E+00  0.10566000000E+00 0. -1.
     999900   -1    0    0    0    0 -0.00000000000E+00 -0.00000000000E+00 -0.74505805969E-08  0.93827000000E+00  0.93827000000E+00 0. -1.
     999902    2    1    2    0    0 -0.49359871202E-03 -0.52731851548E-02  0.12487241270E-01  0.10303660288E+01  0.10302767453E+01 0.  0.
     999903    2    3    3    0    0 -0.42491684319E-01 -0.11024170842E+00  0.63722332242E-01  0.14165501576E+00  0.45241909257E-01 0.  0.
         14    1    1    2    0    0  0.49359871202E-03  0.52731851548E-02 -0.12487241270E-01  0.13563971244E-01  0.00000000000E+00 0.  1.
     999901    1    3    3    0    0  0.41998085607E-01  0.10496852326E+00 -0.51235090972E-01  0.88871101299E+00  0.88000000000E+00 0. -1.
        -11    1    4    4    0    0 -0.15442232979E-01 -0.66322325116E-01  0.58558971785E-01  0.89813850077E-01  0.51100000000E-03 0.  1.
         11    1    4    4    0    0 -0.27049451340E-01 -0.43919383301E-01  0.51633604567E-02  0.51841165685E-01  0.51100000000E-03 0. -1.
</event>
<event>
 8    1  0.2928569E+004  0.1043930E+01  0.7957747E-01            NaN
         13   -1    0    0    0    0  0.00000000000E+00  0.00000000000E+00  0.74505805969E-08  0.10566000000E+00  0.10566000000E+00 0. -1.
     999900   -1    0    0    0    0 -0.00000000000E+00 -0.00000000000E+00 -0.74505805969E-08  0.93827000000E+00  0.93827000000E+00 0. -1.
     999902    2    1    2    0    0  0.10402698533E-01  0.22506013088E-02 -0.89611284000E-02  0.10300165833E+01  0.10299226081E+01 0.  0.
     999903    2    3    3    0    0 -0.30086441967E-03  0.96585825295E-01 -0.92661016793E-01  0.14096125762E+00  0.44216512175E-01 0.  0.
         14    1    1    2    0    0 -0.10402698533E-01 -0.22506013088E-02  0.89611284000E-02  0.13913416734E-01  0.00000000000E+00 0. -1.
     999901    1    3    3    0    0  0.10703562953E-01 -0.94335223987E-01  0.83699888393E-01  0.88905532565E+00  0.88000000000E+00 0.  1.
        -11    1    4    4    0    0  0.74330229885E-02  0.21567227684E-01 -0.48414212115E-01  0.53521885210E-01  0.51100000000E-03 0. -1.
         11    1    4    4    0    0 -0.77338874082E-02  0.75018597611E-01 -0.44246804678E-01  0.87439372409E-01  0.51100000000E-03 0.  1.
</event>
<event>
 8    1  0.2928569E+004  0.1043930E+01  0.7957747E-01            NaN
         13   -1    0    0    0    0  0.00000000000E+00  0.00000000000E+00  0.74505805969E-08  0.10566000000E+00  0.10566000000E+00 0.  1.
     999900   -1    0    0    0    0 -0.00000000000E+00 -0.00000000000E+00 -0.74505805969E-08  0.93827000000E+00  0.93827000000E+00 0. -1.
     999902    2    1    2    0    0 -0.50200584617E-03  0.13540239233E-01  0.17930753940E-02  0.10302623298E+01  0.10301716668E+01 0.  0.
     999903    2    3    3    0    0  0.34314646013E-01  0.98873550164E-01  0.83547715326E-01  0.14168042908E+00  0.46256344374E-01 0.  0.
         14    1    1    2    0    0  0.50200584617E-03 -0.13540239233E-01 -0.17930753940E-02  0.13667670164E-01  0.00000000000E+00 0. -1.
     999901    1    3    3    0    0 -0.34816651860E-01 -0.85333310931E-01 -0.81754639932E-01  0.88858190076E+00  0.88000000000E+00 0.  1.
        -11    1    4    4    0    0  0.15083334033E-01  0.19593938097E-01  0.45227719193E-01  0.51548395514E-01  0.51100000000E-03 0.  1.
         11    1    4    4    0    0  0.19231311980E-01  0.79279612067E-01  0.38319996133E-01  0.90132033565E-01  0.51100000000E-03 0. -1.
</event>
<event>
 8    1  0.2928569E+004  0.1043930E+01  0.7957747E-01            NaN
         13   -1    0    0    0    0  0.00000000000E+00  0.00000000000E+00  0.74505805969E-08  0.10566000000E+00  0.10566000000E+00 0.  1.
     999900   -1    0    0    0    0 -0.00000000000E+00 -0.00000000000E+00 -0.74505805969E-08  0.93827000000E+00  0.93827000000E+00 0.  1.
     999902    2    1    2    0    0  0.11841746449E-01  0.85186900880E-02 -0.95267573356E-03  0.10293114286E+01  0.10292076148E+01 0.  0.
     999903    2    3    3    0    0  0.40292031192E-02  0.64739828177E-01  0.11533432685E+00  0.13984837752E+00  0.45255739042E-01 0.  0.
         14    1    1    2    0    0 -0.11841746449E-01 -0.85186900880E-02  0.95267573356E-03  0.14618571436E-01  0.00000000000E+00 0. -1.
     999901    1    3    3    0    0  0.78125433294E-02 -0.56221138089E-01 -0.11628700258E+00  0.88946305104E+00  0.88000000000E+00 0.  1.
        -11    1    4    4    0    0  0.18294650098E-01  0.23634194989E-01  0.74094884605E-01  0.79897324365E-01  0.51100000000E-03 0. -1.
         11    1    4    4    0    0 -0.14265446978E-01  0.41105633188E-01  0.41239442241E-01  0.59951053157E-01  0.51100000000E-03 0.  1.
</event>
<event>
 8    1  0.2928569E+004  0.1043930E+01  0.7957747E-01            NaN
         13   -1    0    0    0    0  0.00000000000E+00  0.00000000000E+00  0.74505805969E-08  0.10566000000E+00  0.10566000000E+00 0.  1.
     999900   -1    0    0    0    0 -0.00000000000E+00 -0.00000000000E+00 -0.74505805969E-08  0.93827000000E+00  0.93827000000E+00 0. -1.
     999902    2    1    2    0    0  0.83078915188E-02 -0.33344152720E-02  0.22353736637E-02  0.10347030676E+01  0.10346619263E+01 0.  0.
     999903    2    3    3    0    0 -0.61246938448E-01 -0.10499018946E+00  0.62653422177E-01  0.14407289102E+00  0.45358783758E-01 0.  0.
         14    1    1    2    0    0 -0.83078915188E-02  0.33344152720E-02 -0.22353736637E-02  0.92269324323E-02  0.00000000000E+00 0. -1.
     999901    1    3    3    0    0  0.69554829967E-01  0.10165577418E+00 -0.60418048514E-01  0.89063017655E+00  0.88000000000E+00 0. -1.
        -11    1    4    4    0    0 -0.83182901256E-02 -0.38614351228E-01  0.39971839131E-01  0.56198497453E-01  0.51100000000E-03 0.  1.
         11    1    4    4    0    0 -0.52928648323E-01 -0.66375838228E-01  0.22681583046E-01  0.87874393564E-01  0.51100000000E-03 0. -1.
</event>
<event>
 8    1  0.2928569E+004  0.1043930E+01  0.7957747E-01            NaN
         13   -1    0    0    0    0  0.00000000000E+00  0.00000000000E+00  0.74505805969E-08  0.10566000000E+00  0.10566000000E+00 0.  1.
     999900   -1    0    0    0    0 -0.00000000000E+00 -0.00000000000E+00 -0.74505805969E-08  0.93827000000E+00  0.93827000000E+00 0. -1.
     999902    2    1    2    0    0  0.11561391284E-01 -0.49436450567E-02  0.61504861764E-03  0.10313409699E+01  0.10312641332E+01 0.  0.
     999903    2    3    3    0    0 -0.11865520282E+00 -0.37449237895E-02  0.61397458215E-01  0.13968391717E+00  0.40606246188E-01 0.  0.
         14    1    1    2    0    0 -0.11561391284E-01  0.49436450567E-02 -0.61504861764E-03  0.12589030132E-01  0.00000000000E+00 0.  1.
     999901    1    3    3    0    0  0.13021659411E+00 -0.11987212672E-02 -0.60782409597E-01  0.89165705270E+00  0.88000000000E+00 0. -1.
        -11    1    4    4    0    0 -0.74912533075E-01 -0.18370625107E-01  0.25513881772E-01  0.81243995241E-01  0.51100000000E-03 0. -1.
         11    1    4    4    0    0 -0.43742669746E-01  0.14625701318E-01  0.35883576443E-01  0.58439921927E-01  0.51100000000E-03 0.  1.
</event>
<event>
 8    1  0.2928569E+004  0.1043930E+01  0.7957747E-01            NaN
         13   -1    0    0    0    0  0.00000000000E+00  0.00000000000E+00  0.74505805969E-08  0.10566000000E+00  0.10566000000E+00 0. -1.
     999900   -1    0    0    0    0 -0.00000000000E+00 -0.00000000000E+00 -0.74505805969E-08  0.93827000000E+00  0.93827000000E+00 0. -1.
     999902    2    1    2    0    0 -0.79384323069E-02 -0.10254751917E-01 -0.48501020577E-02  0.10300843460E+01  0.10299912901E+01 0.  0.
     999903    2    3    3    0    0  0.58928855961E-01  0.10551236013E+00  0.49871218109E-01  0.13830652539E+00  0.45123035863E-01 0.  0.
         14    1    1    2    0    0  0.79384323069E-02  0.10254751917E-01  0.48501020577E-02  0.13845653987E-01  0.00000000000E+00 0. -1.
     999901    1    3    3    0    0 -0.66867288268E-01 -0.11576711204E+00 -0.54721320167E-01  0.89177782062E+00  0.88000000000E+00 0.  1.
        -11    1    4    4    0    0  0.38444254878E-01  0.64104266391E-01  0.66580419802E-02  0.75046041513E-01  0.51100000000E-03 0. -1.
         11    1    4    4    0    0  0.20484601083E-01  0.41408093736E-01  0.43213176129E-01  0.63260483879E-01  0.51100000000E-03 0.  1.
</event>
<event>
 8    1  0.2928569E+004  0.1043930E+01  0.7957747E-01            NaN
         13   -1    0    0    0    0  0.00000000000E+00  0.00000000000E+00  0.74505805969E-08  0.10566000000E+00  0.10566000000E+00 0. -1.
     999900   -1    0    0    0    0 -0.00000000000E+00 -0.00000000000E+00 -0.74505805969E-08  0.93827000000E+00  0.93827000000E+00 0. -1.
     999902    2    1    2    0    0  0.47426573793E-04 -0.13448679842E-01  0.30818371952E-02  0.10301326467E+01  0.10300402433E+01 0.  0.
     999903    2    3    3    0    0 -0.39606706575E-01 -0.10152249505E+00  0.80598572234E-01  0.14146043970E+00  0.40489726461E-01 0.  0.
         14    1    1    2    0    0 -0.47426573793E-04  0.13448679842E-01 -0.30818371952E-02  0.13797353343E-01  0.00000000000E+00 0.  1.
     999901    1    3    3    0    0  0.39654133149E-01  0.88073815203E-01 -0.77516735039E-01  0.88867220695E+00  0.88000000000E+00 0.  1.
        -11    1    4    4    0    0 -0.39299396757E-02 -0.52523534426E-01  0.21775228976E-01  0.56996384205E-01  0.51100000000E-03 0.  1.
         11    1    4    4    0    0 -0.35676766900E-01 -0.48998960619E-01  0.58823343258E-01  0.84464055498E-01  0.51100000000E-03 0. -1.
</event>
<event>
 8    1  0.2928569E+004  0.1043930E+01  0.7957747E-01            NaN
         13   -1    0    0    0    0  0.00000000000E+00  0.00000000000E+00  0.74505805969E-08  0.10566000000E+00  0.10566000000E+00 0.  1.
     999900   -1    0    0    0    0 -0.00000000000E+00 -0.00000000000E+00 -0.74505805969E-08  0.93827000000E+00  0.93827000000E+00 0.  1.
     999902    2    1    2    0    0  0.12059243944E-01 -0.25843766206E-02 -0.99961615068E-03  0.10315564961E+01  0.10314822834E+01 0.  0.
     999903    2    3    3    0    0  0.24134998490E-01 -0.72620697683E-01  0.11283064592E+00  0.14138334512E+00  0.37446384780E-01 0.  0.
         14    1    1    2    0    0 -0.12059243944E-01  0.25843766206E-02  0.99961615068E-03  0.12373503928E-01  0.00000000000E+00 0.  1.
     999901    1    3    3    0    0 -0.12075754546E-01  0.70036321062E-01 -0.11383026207E+00  0.89017315095E+00  0.88000000000E+00 0.  1.
        -11    1    4    4    0    0  0.34028952410E-01 -0.61592339540E-01  0.92776067677E-01  0.11644417438E+00  0.51100000000E-03 0.  1.
         11    1    4    4    0    0 -0.98939539202E-02 -0.11028358143E-01  0.20054578246E-01  0.24939170738E-01  0.51100000000E-03 0. -1.
</event>
<event>
 8    1  0.2928569E+004  0.1043930E+01  0.7957747E-01            NaN
         13   -1    0    0    0    0  0.00000000000E+00  0.00000000000E+00  0.74505805969E-08  0.10566000000E+00  0.10566000000E+00 0.  1.
     999900   -1    0    0    0    0 -0.00000000000E+00 -0.00000000000E+00 -0.74505805969E-08  0.93827000000E+00  0.93827000000E+00 0.  1.
     999902    2    1    2    0    0  0.66663938296E-02 -0.78560523726E-02 -0.79103410726E-02  0.10309403171E+01  0.10308584799E+01 0.  0.
     999903    2    3    3    0    0  0.12225111858E+00  0.49203628308E-01  0.22574390061E-01  0.14102742554E+00  0.44864224453E-01 0.  0.
         14    1    1    2    0    0 -0.66663938296E-02  0.78560523726E-02  0.79103410726E-02  0.12989682885E-01  0.00000000000E+00 0.  1.
     999901    1    3    3    0    0 -0.11558472475E+00 -0.57059680681E-01 -0.30484731134E-01  0.88991289157E+00  0.88000000000E+00 0. -1.
        -11    1    4    4    0    0  0.25372022079E-01  0.31856344397E-01  0.47438113122E-02  0.41004036990E-01  0.51100000000E-03 0. -1.
         11    1    4    4    0    0  0.96879096501E-01  0.17347283911E-01  0.17830578749E-01  0.10002338855E+00  0.51100000000E-03 0.  1.
</event>
<event>
 8    1  0.2928569E+004  0.1043930E+01  0.7957747E-01            NaN
         13   -1    0    0    0    0  0.00000000000E+00  0.00000000000E+00  0.74505805969E-08  0.10566000000E+00  0.10566000000E+00 0. -1.
     999900   -1    0    0    0    0 -0.00000000000E+00 -0.00000000000E+00 -0.74505805969E-08  0.93827000000E+00  0.93827000000E+00 0.  1.
     999902    2    1    2    0    0 -0.11982587271E-01  0.15109159959E-02  0.76462358928E-02  0.10296355889E+01  0.10295363596E+01 0.  0.
     999903    2    3    3    0    0 -0.12218498458E+00  0.18456863558E-01  0.52308284760E-01  0.14147657606E+00  0.44828993422E-01 0.  0.
         14    1    1    2    0    0  0.11982587271E-01 -0.15109159959E-02 -0.76462358928E-02  0.14294411082E-01  0.00000000000E+00 0.  1.
     999901    1    3    3    0    0  0.11020239730E+00 -0.16945947562E-01 -0.44662048867E-01  0.88815901286E+00  0.88000000000E+00 0.  1.
        -11    1    4    4    0    0 -0.44493606383E-01  0.23427790415E-01  0.36236682985E-01  0.61983067748E-01  0.51100000000E-03 0. -1.
         11    1    4    4    0    0 -0.77691378192E-01 -0.49709268568E-02  0.16071601775E-01  0.79493508313E-01  0.51100000000E-03 0.  1.
</event>
<event>
 8    1  0.2928569E+004  0.1043930E+01  0.7957747E-01            NaN
         13   -1    0    0    0    0  0.00000000000E+00  0.00000000000E+00  0.74505805969E-08  0.10566000000E+00  0.10566000000E+00 0.  1.
     999900   -1    0    0    0    0 -0.00000000000E+00 -0.00000000000E+00 -0.74505805969E-08  0.93827000000E+00  0.93827000000E+00 0.  1.
     999902    2    1    2    0    0  0.14175660827E-01  0.30691872481E-02  0.41109342640E-03  0.10294200631E+01  0.10293177974E+01 0.  0.
     999903    2    3    3    0    0 -0.45534566266E-01  0.44280390319E-01  0.11486418759E+00  0.13904756510E+00  0.45894379598E-01 0.  0.
         14    1    1    2    0    0 -0.14175660827E-01 -0.30691872481E-02 -0.41109342640E-03  0.14509936873E-01  0.00000000000E+00 0. -1.
     999901    1    3    3    0    0  0.59710227092E-01 -0.41211203071E-01 -0.11445309416E+00  0.89037249803E+00  0.88000000000E+00 0.  1.
        -11    1    4    4    0    0 -0.28129549807E-01  0.18458684794E-01  0.98031398575E-01  0.10364560215E+00  0.51100000000E-03 0. -1.
         11    1    4    4    0    0 -0.17405016459E-01  0.25821705525E-01  0.16832789013E-01  0.35401962955E-01  0.51100000000E-03 0.  1.
</event>
<event>
 8    1  0.2928569E+004  0.1043930E+01  0.7957747E-01            NaN
         13   -1    0    0    0    0  0.00000000000E+00  0.00000000000E+00  0.74505805969E-08  0.10566000000E+00  0.10566000000E+00 0. -1.
     999900   -1    0    0    0    0 -0.00000000000E+00 -0.00000000000E+00 -0.74505805969E-08  0.93827000000E+00  0.93827000000E+00 0.  1.
     999902    2    1    2    0    0 -0.28070960152E-02  0.97320759229E-04 -0.14295490705E-01  0.10293611869E+01  0.10292580837E+01 0.  0.
     999903    2    3    3    0    0  0.12672918204E+00  0.19646720289E-01 -0.31644860502E-01  0.13949444019E+00  0.44844424948E-01 0.  0.
         14    1    1    2    0    0  0.28070960152E-02 -0.97320759229E-04  0.14295490705E-01  0.14568813056E-01  0.00000000000E+00 0. -1.
     999901    1    3    3    0    0 -0.12953627805E+00 -0.19549399529E-01  0.17349369797E-01  0.88986674676E+00  0.88000000000E+00 0.  1.
        -11    1    4    4    0    0  0.11442377968E+00  0.25289133407E-01 -0.15168338819E-01  0.11816378992E+00  0.51100000000E-03 0. -1.
         11    1    4    4    0    0  0.12305402354E-01 -0.56424131180E-02 -0.16476521683E-01  0.21330650263E-01  0.51100000000E-03 0.  1.
</event>
<event>
 8    1  0.2928569E+004  0.1043930E+01  0.7957747E-01            NaN
         13   -1    0    0    0    0  0.00000000000E+00  0.00000000000E+00  0.74505805969E-08  0.10566000000E+00  0.10566000000E+00 0. -1.
     999900   -1    0    0    0    0 -0.00000000000E+00 -0.00000000000E+00 -0.74505805969E-08  0.93827000000E+00  0.93827000000E+00 0.  1.
     999902    2    1    2    0    0 -0.10594420652E-01  0.66145472652E-02  0.64820908478E-02  0.10298583446E+01  0.10297622048E+01 0.  0.
     999903    2    3    3    0    0 -0.11649532978E+00 -0.64562037539E-01 -0.14260764073E-01  0.14041392540E+00  0.42110360996E-01 0.  0.
         14    1    1    2    0    0  0.10594420652E-01 -0.66145472652E-02 -0.64820908478E-02  0.14071655419E-01  0.00000000000E+00 0.  1.
     999901    1    3    3    0    0  0.10590090913E+00  0.71176584804E-01  0.20742854921E-01  0.88944441918E+00  0.88000000000E+00 0.  1.
        -11    1    4    4    0    0 -0.87651415048E-01 -0.43164505475E-01  0.82054460542E-02  0.98048638740E-01  0.51100000000E-03 0.  1.
         11    1    4    4    0    0 -0.28843914731E-01 -0.21397532064E-01 -0.22466210127E-01  0.42365286662E-01  0.51100000000E-03 0. -1.
</event>
<event>
 8    1  0.2928569E+004  0.1043930E+01  0.7957747E-01            NaN
         13   -1    0    0    0    0  0.00000000000E+00  0.00000000000E+00  0.74505805969E-08  0.10566000000E+00  0.10566000000E+00 0. -1.
     999900   -1    0    0    0    0 -0.00000000000E+00 -0.00000000000E+00 -0.74505805969E-08  0.93827000000E+00  0.93827000000E+00 0. -1.
     999902    2    1    2    0    0  0.12563200973E-01  0.57878976186E-02  0.80554096104E-02  0.10279230202E+01  0.10277983811E+01 0.  0.
     999903    2    3    3    0    0 -0.12374927952E+00  0.37100503342E-01  0.75021505635E-03  0.13684786207E+00  0.45126965345E-01 0.  0.
         14    1    1    2    0    0 -0.12563200973E-01 -0.57878976186E-02 -0.80554096104E-02  0.16006979775E-01  0.00000000000E+00 0.  1.
     999901    1    3    3    0    0  0.13631248049E+00 -0.31312605724E-01  0.73051945541E-02  0.89107515816E+00  0.88000000000E+00 0. -1.
        -11    1    4    4    0    0 -0.34201122384E-01  0.86875022266E-02 -0.20099115092E-01  0.40613113839E-01  0.51100000000E-03 0.  1.
         11    1    4    4    0    0 -0.89548157132E-01  0.28413001116E-01  0.20849330148E-01  0.96234748230E-01  0.51100000000E-03 0. -1.
</event>
<event>
 8    1  0.2928569E+004  0.1043930E+01  0.7957747E-01            NaN
         13   -1    0    0    0    0  0.00000000000E+00  0.00000000000E+00  0.74505805969E-08  0.10566000000E+00  0.10566000000E+00 0. -1.
     999900   -1    0    0    0    0 -0.00000000000E+00 -0.00000000000E+00 -0.74505805969E-08  0.93827000000E+00  0.93827000000E+00 0. -1.
     999902    2    1    2    0    0  0.13614633146E-01  0.31617999682E-02 -0.11070479367E-02  0.10299092736E+01  0.10298138332E+01 0.  0.
     999903    2    3    3    0    0  0.80150041966E-01  0.57089040810E-01  0.90472505229E-01  0.14102124772E+00  0.44928056906E-01 0.  0.
         14    1    1    2    0    0 -0.13614633146E-01 -0.31617999682E-02  0.11070479367E-02  0.14020726439E-01  0.00000000000E+00 0.  1.
     999901    1    3    3    0    0 -0.66535408820E-01 -0.53927240842E-01 -0.91579553166E-01  0.88888802584E+00  0.88000000000E+00 0.  1.
        -11    1    4    4    0    0  0.31786625531E-01  0.86152109610E-03  0.14849711890E-01  0.35098530531E-01  0.51100000000E-03 0. -1.
         11    1    4    4    0    0  0.48363416435E-01  0.56227519714E-01  0.75622793339E-01  0.10592271719E+00  0.51100000000E-03 0.  1.
</event>
<event>
 8    1  0.2928569E+004  0.1043930E+01  0.7957747E-01            NaN
         13   -1    0    0    0    0  0.00000000000E+00  0.00000000000E+00  0.74505805969E-08  0.10566000000E+00  0.10566000000E+00 0.  1.
     999900   -1    0    0    0    0 -0.00000000000E+00 -0.00000000000E+00 -0.74505805969E-08  0.93827000000E+00  0.93827000000E+00 0.  1.
     999902    2    1    2    0    0 -0.14104143891E-02  0.79134321903E-02 -0.11234640331E-01  0.10301159195E+01  0.10300232904E+01 0.  0.
     999903    2    3    3    0    0 -0.64315583056E-01  0.60193392233E-01  0.98564164546E-01  0.13952845491E+00  0.44649260955E-01 0.  0.
         14    1    1    2    0    0  0.14104143891E-02 -0.79134321903E-02  0.11234640331E-01  0.13814080539E-01  0.00000000000E+00 0.  1.
     999901    1    3    3    0    0  0.62905168667E-01 -0.52279960043E-01 -0.10979880488E+00  0.89058746455E+00  0.88000000000E+00 0.  1.
        -11    1    4    4    0    0 -0.14524939838E-01  0.34203901223E-01  0.62702285273E-01  0.72888397126E-01  0.51100000000E-03 0.  1.
         11    1    4    4    0    0 -0.49790643219E-01  0.25989491010E-01  0.35861879273E-01  0.66640057781E-01  0.51100000000E-03 0. -1.
</event>
<event>
 8    1  0.2928569E+004  0.1043930E+01  0.7957747E-01            NaN
         13   -1    0    0    0    0  0.00000000000E+00  0.00000000000E+00  0.74505805969E-08  0.10566000000E+00  0.10566000000E+00 0.  1.
     999900   -1    0    0    0    0 -0.00000000000E+00 -0.00000000000E+00 -0.74505805969E-08  0.93827000000E+00  0.93827000000E+00 0.  1.
     999902    2    1    2    0    0 -0.94038968287E-02  0.41008035873E-02  0.87203185857E-02  0.10304654606E+01  0.10303774899E+01 0.  0.
     999903    2    3    3    0    0  0.12643875991E+00 -0.16671608738E-01  0.33745646084E-01  0.13944863272E+00  0.45193472889E-01 0.  0.
         14    1    1    2    0    0  0.94038968287E-02 -0.41008035873E-02 -0.87203185857E-02  0.13464539423E-01  0.00000000000E+00 0.  1.
     999901    1    3    3    0    0 -0.13584265674E+00  0.20772412325E-01 -0.25025327498E-01  0.89101682786E+00  0.88000000000E+00 0. -1.
        -11    1    4    4    0    0  0.49569163258E-01 -0.21553675382E-01 -0.29351224874E-02  0.54134452372E-01  0.51100000000E-03 0. -1.
         11    1    4    4    0    0  0.76869596657E-01  0.48820666440E-02  0.36680768571E-01  0.85314180350E-01  0.51100000000E-03 0.  1.
</event>
<event>
 8    1  0.2928569E+004  0.1043930E+01  0.7957747E-01            NaN
         13   -1    0    0    0    0  0.00000000000E+00  0.00000000000E+00  0.74505805969E-08  0.10566000000E+00  0.10566000000E+00 0.  1.
     999900   -1    0    0    0    0 -0.00000000000E+00 -0.00000000000E+00 -0.74505805969E-08  0.93827000000E+00  0.93827000000E+00 0. -1.
     999902    2    1    2    0    0 -0.15916098645E-01 -0.22149445938E-02 -0.16366158307E-01  0.10209935811E+01  0.10207359175E+01 0.  0.
     999903    2    3    3    0    0 -0.38748816719E-01 -0.11795647145E+00  0.12295337977E-01  0.13265866932E+00  0.45077125644E-01 0.  0.
         14    1    1    2    0    0  0.15916098645E-01  0.22149445938E-02  0.16366158307E-01  0.22936418931E-01  0.00000000000E+00 0.  1.
     999901    1    3    3    0    0  0.22832718073E-01  0.11574152686E+00 -0.28661496285E-01  0.88833491174E+00  0.88000000000E+00 0.  1.
        -11    1    4    4    0    0 -0.21885744704E-01 -0.48297691825E-01 -0.16324142367E-01  0.55483255149E-01  0.51100000000E-03 0. -1.
         11    1    4    4    0    0 -0.16863072014E-01 -0.69658779628E-01  0.28619480345E-01  0.77175414175E-01  0.51100000000E-03 0.  1.
</event>
<event>
 8    1  0.2928569E+004  0.1043930E+01  0.7957747E-01            NaN
         13   -1    0    0    0    0  0.00000000000E+00  0.00000000000E+00  0.74505805969E-08  0.10566000000E+00  0.10566000000E+00 0.  1.
     999900   -1    0    0    0    0 -0.00000000000E+00 -0.00000000000E+00 -0.74505805969E-08  0.93827000000E+00  0.93827000000E+00 0.  1.
     999902    2    1    2    0    0  0.83551503259E-02  0.10530059368E-01 -0.43331834182E-02  0.10298067155E+01  0.10297098640E+01 0.  0.
     999903    2    3    3    0    0 -0.14598940030E-01 -0.32718182314E-01  0.12657536468E+00  0.13877677847E+00  0.44204782470E-01 0.  0.
         14    1    1    2    0    0 -0.83551503259E-02 -0.10530059368E-01  0.43331834182E-02  0.14123284526E-01  0.00000000000E+00 0.  1.
     999901    1    3    3    0    0  0.22954090356E-01  0.43248241682E-01 -0.13090854810E+00  0.89102993700E+00  0.88000000000E+00 0.  1.
        -11    1    4    4    0    0 -0.11056209694E-01 -0.43837820211E-01  0.10136324715E+00  0.11098992408E+00  0.51100000000E-03 0.  1.
         11    1    4    4    0    0 -0.35427303360E-02  0.11119637898E-01  0.25212117533E-01  0.27786854386E-01  0.51100000000E-03 0. -1.
</event>
<event>
 8    1  0.2928569E+004  0.1043930E+01  0.7957747E-01            NaN
         13   -1    0    0    0    0  0.00000000000E+00  0.00000000000E+00  0.74505805969E-08  0.10566000000E+00  0.10566000000E+00 0. -1.
     999900   -1    0    0    0    0 -0.00000000000E+00 -0.00000000000E+00 -0.74505805969E-08  0.93827000000E+00  0.93827000000E+00 0. -1.
     999902    2    1    2    0    0  0.10870240739E-01  0.30976300602E-02 -0.81344486009E-02  0.10300042433E+01  0.10299101002E+01 0.  0.
     999903    2    3    3    0    0 -0.10123939593E+00 -0.18064745658E-01  0.80736929978E-01  0.13820015118E+00  0.44778115211E-01 0.  0.
         14    1    1    2    0    0 -0.10870240739E-01 -0.30976300602E-02  0.81344486009E-02  0.13925756703E-01  0.00000000000E+00 0.  1.
     999901    1    3    3    0    0  0.11210963667E+00  0.21162375718E-01 -0.88871378579E-01  0.89180409211E+00  0.88000000000E+00 0. -1.
        -11    1    4    4    0    0 -0.53408029574E-01 -0.19423928169E-01  0.18655916493E-01  0.59816477242E-01  0.51100000000E-03 0.  1.
         11    1    4    4    0    0 -0.47831366353E-01  0.13591825117E-02  0.62081013485E-01  0.78383673942E-01  0.51100000000E-03 0. -1.
</event>
<event>
 7    1  0.2928569E+004  0.1043930E+01  0.7957747E-01            NaN
         13   -1    0    0    0    0  0.00000000000E+00  0.00000000000E+00  0.74505805969E-08  0.10566000000E+00  0.10566000000E+00 0.  1.
     999900   -1    0    0    0    0 -0.00000000000E+00 -0.00000000000E+00 -0.74505805969E-08  0.93827000000E+00  0.93827000000E+00 0.  1.
     999903    2    1    2    0    0  0.31103005561E-01 -0.10149755159E+00  0.16952930717E-01  0.11644894591E+00  0.44763882883E-01 0.  0.
         14    1    1    2    0    0 -0.76180210608E-02  0.31617031490E-02  0.39061782602E-01  0.39923094466E-01  0.00000000000E+00 0.  1.
     999901    1    1    2    0    0 -0.23484984500E-01  0.98335848437E-01 -0.56014713319E-01  0.88755795962E+00  0.88000000000E+00 0.  1.
        -11    1    3    3    0    0 -0.68517212495E-02 -0.46170903181E-01  0.16003114066E-01  0.49346318661E-01  0.51100000000E-03 0.  1.
         11    1    3    3    0    0  0.37954726810E-01 -0.55326648405E-01  0.94981665113E-03  0.67102627248E-01  0.51100000000E-03 0. -1.
</event>
<event>
 8    1  0.2928569E+004  0.1043930E+01  0.7957747E-01            NaN
         13   -1    0    0    0    0  0.00000000000E+00  0.00000000000E+00  0.74505805969E-08  0.10566000000E+00  0.10566000000E+00 0. -1.
     999900   -1    0    0    0    0 -0.00000000000E+00 -0.00000000000E+00 -0.74505805969E-08  0.93827000000E+00  0.93827000000E+00 0.  1.
     999902    2    1    2    0    0  0.42215276967E-02  0.81478778275E-02 -0.10427208570E-01  0.10300398637E+01  0.10299462048E+01 0.  0.
     999903    2    3    3    0    0 -0.83518369574E-01 -0.54337030884E-01 -0.91219851710E-01  0.13979826466E+00  0.35981418463E-01 0.  0.
         14    1    1    2    0    0 -0.42215276967E-02 -0.81478778275E-02  0.10427208570E-01  0.13890136348E-01  0.00000000000E+00 0. -1.
     999901    1    3    3    0    0  0.87739897271E-01  0.62484908711E-01  0.80792643140E-01  0.89024159899E+00  0.88000000000E+00 0. -1.
        -11    1    4    4    0    0 -0.68674882090E-01 -0.55846116133E-01 -0.65709512858E-01  0.11024077884E+00  0.51100000000E-03 0.  1.
         11    1    4    4    0    0 -0.14843487484E-01  0.15090852490E-02 -0.25510338852E-01  0.29557485826E-01  0.51100000000E-03 0. -1.
</event>
<event>
 8    1  0.2928569E+004  0.1043930E+01  0.7957747E-01            NaN
         13   -1    0    0    0    0  0.00000000000E+00  0.00000000000E+00  0.74505805969E-08  0.10566000000E+00  0.10566000000E+00 0.  1.
     999900   -1    0    0    0    0 -0.00000000000E+00 -0.00000000000E+00 -0.74505805969E-08  0.93827000000E+00  0.93827000000E+00 0.  1.
     999902    2    1    2    0    0 -0.62708776532E-02 -0.19638108429E-02  0.12130159380E-01  0.10301343041E+01  0.10300419230E+01 0.  0.
     999903    2    3    3    0    0 -0.50371003353E-01  0.11520209472E+00  0.44797559235E-01  0.14067388925E+00  0.44424781349E-01 0.  0.
         14    1    1    2    0    0  0.62708776532E-02  0.19638108429E-02 -0.12130159380E-01  0.13795695928E-01  0.00000000000E+00 0. -1.
     999901    1    3    3    0    0  0.44100125700E-01 -0.11716590556E+00 -0.32667399855E-01  0.88946041482E+00  0.88000000000E+00 0. -1.
        -11    1    4    4    0    0 -0.49810979849E-01  0.73599092272E-01  0.16598008532E-01  0.90408600835E-01  0.51100000000E-03 0. -1.
         11    1    4    4    0    0 -0.56002350391E-03  0.41603002448E-01  0.28199550703E-01  0.50265288420E-01  0.51100000000E-03 0.  1.
</event>
<event>
 8    1  0.2928569E+004  0.1043930E+01  0.7957747E-01            NaN
         13   -1    0    0    0    0  0.00000000000E+00  0.00000000000E+00  0.74505805969E-08  0.10566000000E+00  0.10566000000E+00 0.  1.
     999900   -1    0    0    0    0 -0.00000000000E+00 -0.00000000000E+00 -0.74505805969E-08  0.93827000000E+00  0.93827000000E+00 0.  1.
     999902    2    1    2    0    0  0.10095777825E-01  0.40784345575E-03 -0.10752242734E-01  0.10291752791E+01  0.10290695085E+01 0.  0.
     999903    2    3    3    0    0 -0.31014022381E-01  0.89738488237E-01 -0.91805083699E-01  0.13999613918E+00  0.46431452024E-01 0.  0.
         14    1    1    2    0    0 -0.10095777825E-01 -0.40784345575E-03  0.10752242734E-01  0.14754720939E-01  0.00000000000E+00 0.  1.
     999901    1    3    3    0    0  0.41109800207E-01 -0.89330644781E-01  0.81052840965E-01  0.88917913988E+00  0.88000000000E+00 0. -1.
        -11    1    4    4    0    0 -0.34246254942E-01  0.43000039051E-01 -0.30598198866E-01  0.62915182832E-01  0.51100000000E-03 0. -1.
         11    1    4    4    0    0  0.32322325604E-02  0.46738449185E-01 -0.61206884833E-01  0.77080956348E-01  0.51100000000E-03 0.  1.
</event>
<event>
 8    1  0.2928569E+004  0.1043930E+01  0.7957747E-01            NaN
         13   -1    0    0    0    0  0.00000000000E+00  0.00000000000E+00  0.74505805969E-08  0.10566000000E+00  0.10566000000E+00 0.  1.
     999900   -1    0    0    0    0 -0.00000000000E+00 -0.00000000000E+00 -0.74505805969E-08  0.93827000000E+00  0.93827000000E+00 0.  1.
     999902    2    1    2    0    0 -0.96563754039E-02  0.61706426948E-02 -0.43637528371E-02  0.10316676692E+01  0.10315947920E+01 0.  0.
     999903    2    3    3    0    0 -0.10512311699E+00 -0.82164456444E-01 -0.14815049665E-01  0.14204627892E+00  0.46430507539E-01 0.  0.
         14    1    1    2    0    0  0.96563754039E-02 -0.61706426948E-02  0.43637528371E-02  0.12262330775E-01  0.00000000000E+00 0. -1.
     999901    1    3    3    0    0  0.95466741581E-01  0.88335099138E-01  0.10451296828E-01  0.88962139031E+00  0.88000000000E+00 0.  1.
        -11    1    4    4    0    0 -0.44991068313E-01 -0.56316130078E-01  0.84581317072E-02  0.72577571245E-01  0.51100000000E-03 0.  1.
         11    1    4    4    0    0 -0.60132048672E-01 -0.25848326365E-01 -0.23273181372E-01  0.69468707672E-01  0.51100000000E-03 0. -1.
</event>
<event>
 8    1  0.2928569E+004  0.1043930E+01  0.7957747E-01            NaN
         13   -1    0    0    0    0  0.00000000000E+00  0.00000000000E+00  0.74505805969E-08  0.10566000000E+00  0.10566000000E+00 0.  1.
     999900   -1    0    0    0    0 -0.00000000000E+00 -0.00000000000E+00 -0.74505805969E-08  0.93827000000E+00  0.93827000000E+00 0.  1.
     999902    2    1    2    0    0 -0.19117925417E-03  0.38881416161E-02 -0.12934464156E-01  0.10304224259E+01  0.10303338882E+01 0.  0.
     999903    2    3    3    0    0  0.10079146472E+00 -0.15057756828E-02  0.84671716489E-01  0.13926948998E+00  0.45447822226E-01 0.  0.
         14    1    1    2    0    0  0.19117925417E-03 -0.38881416161E-02  0.12934464156E-01  0.13507574088E-01  0.00000000000E+00 0.  1.
     999901    1    3    3    0    0 -0.10098264397E+00  0.53939172989E-02 -0.97606180646E-01  0.89115293594E+00  0.88000000000E+00 0.  1.
        -11    1    4    4    0    0  0.22592637359E-01  0.17601403086E-01  0.32594010952E-01  0.43392019132E-01  0.51100000000E-03 0. -1.
         11    1    4    4    0    0  0.78198827356E-01 -0.19107178769E-01  0.52077705537E-01  0.95877470844E-01  0.51100000000E-03 0.  1.
</event>
<event>
 8    1  0.2928569E+004  0.1043930E+01  0.7957747E-01            NaN
         13   -1    0    0    0    0  0.00000000000E+00  0.00000000000E+00  0.74505805969E-08  0.10566000000E+00  0.10566000000E+00 0.  1.
     999900   -1    0    0    0    0 -0.00000000000E+00 -0.00000000000E+00 -0.74505805969E-08  0.93827000000E+00  0.93827000000E+00 0. -1.
     999902    2    1    2    0    0 -0.86279425069E-02 -0.27942335179E-02 -0.10880172821E-01  0.10297657036E+01  0.10296682849E+01 0.  0.
     999903    2    3    3    0    0 -0.55963432068E-01 -0.11953597168E+00  0.16438356505E-01  0.14037513467E+00  0.44879890970E-01 0.  0.
         14    1    1    2    0    0  0.86279425069E-02  0.27942335179E-02  0.10880172821E-01  0.14164296434E-01  0.00000000000E+00 0.  1.
     999901    1    3    3    0    0  0.47335489561E-01  0.11674173816E+00 -0.27318529327E-01  0.88939056890E+00  0.88000000000E+00 0. -1.
        -11    1    4    4    0    0 -0.38903587728E-01 -0.85932326605E-01 -0.92220069689E-02  0.94779535910E-01  0.51100000000E-03 0.  1.
         11    1    4    4    0    0 -0.17059844340E-01 -0.33603645077E-01  0.25660363474E-01  0.45595598757E-01  0.51100000000E-03 0. -1.
</event>
<event>
 7    1  0.2928569E+004  0.1043930E+01  0.7957747E-01            NaN
         13   -1    0    0    0    0  0.00000000000E+00  0.00000000000E+00  0.74505805969E-08  0.10566000000E+00  0.10566000000E+00 0.  1.
     999900   -1    0    0    0    0 -0.00000000000E+00 -0.00000000000E+00 -0.74505805969E-08  0.93827000000E+00  0.93827000000E+00 0.  1.
     999903    2    1    2    0    0 -0.23108716131E-01 -0.45636062342E-01  0.10397043694E+00  0.12463069809E+00  0.45894402727E-01 0.  0.
         14    1    1    2    0    0 -0.21020811338E-01  0.23647298469E-01 -0.85135772220E-02  0.32765076397E-01  0.00000000000E+00 0. -1.
     999901    1    1    2    0    0  0.44129527469E-01  0.21988763873E-01 -0.95456859722E-01  0.88653422551E+00  0.88000000000E+00 0.  1.
        -11    1    3    3    0    0  0.21510027978E-02 -0.41692743836E-01  0.51805609988E-01  0.66535659979E-01  0.51100000000E-03 0.  1.
         11    1    3    3    0    0 -0.25259718929E-01 -0.39433185057E-02  0.52164826956E-01  0.58095038115E-01  0.51100000000E-03 0. -1.
</event>
<event>
 7    1  0.2928569E+004  0.1043930E+01  0.7957747E-01            NaN
         13   -1    0    0    0    0  0.00000000000E+00  0.00000000000E+00  0.74505805969E-08  0.10566000000E+00  0.10566000000E+00 0. -1.
     999900   -1    0    0    0    0 -0.00000000000E+00 -0.00000000000E+00 -0.74505805969E-08  0.93827000000E+00  0.93827000000E+00 0. -1.
     999903    2    1    2    0    0 -0.20474149229E-01 -0.24716124075E-01  0.11430293033E+00  0.12704133173E+00  0.45213521295E-01 0.  0.
         14    1    1    2    0    0 -0.85773112368E-02  0.21937733468E-01 -0.20853735149E-01  0.31459699417E-01  0.00000000000E+00 0.  1.
     999901    1    1    2    0    0  0.29051460466E-01  0.27783906075E-02 -0.93449195185E-01  0.88542896886E+00  0.88000000000E+00 0. -1.
        -11    1    3    3    0    0 -0.18116157187E-01  0.49673298820E-02  0.17202947428E-01  0.25476892247E-01  0.51100000000E-03 0. -1.
         11    1    3    3    0    0 -0.23579920425E-02 -0.29683453957E-01  0.97099982907E-01  0.10156443948E+00  0.51100000000E-03 0.  1.
</event>
<event>
 8    1  0.2928569E+004  0.1043930E+01  0.7957747E-01            NaN
         13   -1    0    0    0    0  0.00000000000E+00  0.00000000000E+00  0.74505805969E-08  0.10566000000E+00  0.10566000000E+00 0.  1.
     999900   -1    0    0    0    0 -0.00000000000E+00 -0.00000000000E+00 -0.74505805969E-08  0.93827000000E+00  0.93827000000E+00 0. -1.
     999902    2    1    2    0    0  0.13722479342E-01 -0.26161959324E-02  0.14182572066E-02  0.10298885480E+01  0.10297928233E+01 0.  0.
     999903    2    3    3    0    0 -0.83560497102E-01  0.16483119002E-01  0.10096955194E+00  0.13874365428E+00  0.42437027432E-01 0.  0.
         14    1    1    2    0    0 -0.13722479342E-01  0.26161959324E-02 -0.14182572066E-02  0.14041451988E-01  0.00000000000E+00 0. -1.
     999901    1    3    3    0    0  0.97282976444E-01 -0.19099314934E-01 -0.99551294731E-01  0.89114489373E+00  0.88000000000E+00 0.  1.
        -11    1    4    4    0    0 -0.15442114702E-01  0.21902444962E-01  0.27230617239E-01  0.38209208812E-01  0.51100000000E-03 0.  1.
         11    1    4    4    0    0 -0.68118382400E-01 -0.54193259605E-02  0.73738934698E-01  0.10053444547E+00  0.51100000000E-03 0. -1.
</event>
<event>
 8    1  0.2928569E+004  0.1043930E+01  0.7957747E-01            NaN
         13   -1    0    0    0    0  0.00000000000E+00  0.00000000000E+00  0.74505805969E-08  0.10566000000E+00  0.10566000000E+00 0. -1.
     999900   -1    0    0    0    0 -0.00000000000E+00 -0.00000000000E+00 -0.74505805969E-08  0.93827000000E+00  0.93827000000E+00 0. -1.
     999902    2    1    2    0    0  0.13125446136E-01 -0.28351853400E-02  0.66755244620E-02  0.10289340592E+01  0.10288247762E+01 0.  0.
     999903    2    3    3    0    0 -0.10294728765E+00  0.45345572148E-01 -0.61724047853E-01  0.13737768615E+00  0.49075509368E-01 0.  0.
         14    1    1    2    0    0 -0.13125446136E-01  0.28351853400E-02 -0.66755244620E-02  0.14995940751E-01  0.00000000000E+00 0.  1.
     999901    1    3    3    0    0  0.11607273379E+00 -0.48180757488E-01  0.68399572315E-01  0.89155637310E+00  0.88000000000E+00 0.  1.
        -11    1    4    4    0    0 -0.22411176623E-01 -0.10310594672E-01 -0.15272898743E-01  0.29018817294E-01  0.51100000000E-03 0. -1.
         11    1    4    4    0    0 -0.80536111031E-01  0.55656166820E-01 -0.46451149110E-01  0.10835886886E+00  0.51100000000E-03 0.  1.
</event>
<event>
 8    1  0.2928569E+004  0.1043930E+01  0.7957747E-01            NaN
         13   -1    0    0    0    0  0.00000000000E+00  0.00000000000E+00  0.74505805969E-08  0.10566000000E+00  0.10566000000E+00 0.  1.
     999900   -1    0    0    0    0 -0.00000000000E+00 -0.00000000000E+00 -0.74505805969E-08  0.93827000000E+00  0.93827000000E+00 0. -1.
     999902    2    1    2    0    0 -0.36442936487E-02  0.17381812429E-01 -0.53801591503E-02  0.10253732117E+01  0.10252052813E+01 0.  0.
     999903    2    3    3    0    0  0.56830090794E-01  0.80348478678E-01  0.83848829902E-01  0.13656290307E+00  0.43968886440E-01 0.  0.
         14    1    1    2    0    0  0.36442936487E-02 -0.17381812429E-01  0.53801591503E-02  0.18556788299E-01  0.00000000000E+00 0.  1.
     999901    1    3    3    0    0 -0.60474384443E-01 -0.62966666249E-01 -0.89228989052E-01  0.88881030863E+00  0.88000000000E+00 0. -1.
        -11    1    4    4    0    0  0.16203226357E-01  0.55976268514E-02  0.58562361927E-04  0.17150583701E-01  0.51100000000E-03 0.  1.
         11    1    4    4    0    0  0.40626864437E-01  0.74750851827E-01  0.83790267540E-01  0.11941231937E+00  0.51100000000E-03 0. -1.
</event>
<event>
 8    1  0.2928569E+004  0.1043930E+01  0.7957747E-01            NaN
         13   -1    0    0    0    0  0.00000000000E+00  0.00000000000E+00  0.74505805969E-08  0.10566000000E+00  0.10566000000E+00 0. -1.
     999900   -1    0    0    0    0 -0.00000000000E+00 -0.00000000000E+00 -0.74505805969E-08  0.93827000000E+00  0.93827000000E+00 0. -1.
     999902    2    1    2    0    0  0.85416658175E-02  0.78049018975E-04 -0.10124971788E-01  0.10306830683E+01  0.10305979362E+01 0.  0.
     999903    2    3    3    0    0 -0.10380772455E-01  0.29944630198E-01 -0.13107371351E+00  0.14170687654E+00  0.43543991213E-01 0.  0.
         14    1    1    2    0    0 -0.85416658175E-02 -0.78049018975E-04  0.10124971788E-01  0.13246931731E-01  0.00000000000E+00 0. -1.
     999901    1    3    3    0    0  0.18922438273E-01 -0.29866581179E-01  0.12094874172E+00  0.88897619173E+00  0.88000000000E+00 0.  1.
        -11    1    4    4    0    0  0.19010787204E-02  0.19695092017E-01 -0.15796535774E-01  0.25323949403E-01  0.51100000000E-03 0.  1.
         11    1    4    4    0    0 -0.12281851176E-01  0.10249538181E-01 -0.11527717773E+00  0.11638292713E+00  0.51100000000E-03 0. -1.
</event>
<event>
 7    1  0.2928569E+004  0.1043930E+01  0.7957747E-01            NaN
         13   -1    0    0    0    0  0.00000000000E+00  0.00000000000E+00  0.74505805969E-08  0.10566000000E+00  0.10566000000E+00 0. -1.
     999900   -1    0    0    0    0 -0.00000000000E+00 -0.00000000000E+00 -0.74505805969E-08  0.93827000000E+00  0.93827000000E+00 0. -1.
     999903    2    1    2    0    0 -0.83303218486E-01 -0.49852819228E-02 -0.52009255756E-01  0.10775802023E+00  0.44074357549E-01 0.  0.
         14    1    1    2    0    0  0.66609646496E-02  0.43457347905E-01  0.27113006655E-01  0.51652925056E-01  0.00000000000E+00 0. -1.
     999901    1    1    2    0    0  0.76642253837E-01 -0.38472065982E-01  0.24896249101E-01  0.88451905471E+00  0.88000000000E+00 0.  1.
        -11    1    3    3    0    0 -0.47566876585E-01  0.16753807770E-02 -0.43245318619E-02  0.47795160274E-01  0.51100000000E-03 0. -1.
         11    1    3    3    0    0 -0.35736341901E-01 -0.66606626998E-02 -0.47684723894E-01  0.59962859955E-01  0.51100000000E-03 0.  1.
</event>
<event>
 8    1  0.2928569E+004  0.1043930E+01  0.7957747E-01            NaN
         13   -1    0    0    0    0  0.00000000000E+00  0.00000000000E+00  0.74505805969E-08  0.10566000000E+00  0.10566000000E+00 0. -1.
     999900   -1    0    0    0    0 -0.00000000000E+00 -0.00000000000E+00 -0.74505805969E-08  0.93827000000E+00  0.93827000000E+00 0.  1.
     999902    2    1    2    0    0  0.28719151348E-02 -0.58492448580E-02 -0.13486951907E-01  0.10289513674E+01  0.10288423383E+01 0.  0.
     999903    2    3    3    0    0  0.11417227165E+00  0.87925795481E-03 -0.67176423193E-01  0.14029192679E+00  0.46185194380E-01 0.  0.
         14    1    1    2    0    0 -0.28719151348E-02  0.58492448580E-02  0.13486951907E-01  0.14978632570E-01  0.00000000000E+00 0.  1.
     999901    1    3    3    0    0 -0.11130035652E+00 -0.67285028128E-02  0.53689471287E-01  0.88865944064E+00  0.88000000000E+00 0.  1.
        -11    1    4    4    0    0  0.73725013287E-01 -0.91182990910E-02 -0.19165000701E-01  0.76720788156E-01  0.51100000000E-03 0.  1.
         11    1    4    4    0    0  0.40447258368E-01  0.99975570458E-02 -0.48011422493E-01  0.63571138633E-01  0.51100000000E-03 0. -1.
</event>
<event>
 8    1  0.2928569E+004  0.1043930E+01  0.7957747E-01            NaN
         13   -1    0    0    0    0  0.00000000000E+00  0.00000000000E+00  0.74505805969E-08  0.10566000000E+00  0.10566000000E+00 0.  1.
     999900   -1    0    0    0    0 -0.00000000000E+00 -0.00000000000E+00 -0.74505805969E-08  0.93827000000E+00  0.93827000000E+00 0.  1.
     999902    2    1    2    0    0 -0.88269610752E-02 -0.90885098947E-02  0.91217200169E-02  0.10283184008E+01  0.10281998888E+01 0.  0.
     999903    2    3    3    0    0  0.64929276857E-01 -0.11220174213E+00 -0.20660255958E-01  0.13873462880E+00  0.44893308190E-01 0.  0.
         14    1    1    2    0    0  0.88269610752E-02  0.90885098947E-02 -0.91217200169E-02  0.15611599213E-01  0.00000000000E+00 0. -1.
     999901    1    3    3    0    0 -0.73756237933E-01  0.10311323224E+00  0.29781975975E-01  0.88958377199E+00  0.88000000000E+00 0. -1.
        -11    1    4    4    0    0  0.70073303890E-01 -0.10646235620E+00 -0.24987060506E-01  0.12988115922E+00  0.51100000000E-03 0. -1.
         11    1    4    4    0    0 -0.51440270327E-02 -0.57393859290E-02  0.43268045479E-02  0.88534695770E-02  0.51100000000E-03 0.  1.
</event>
<event>
 8    1  0.2928569E+004  0.1043930E+01  0.7957747E-01            NaN
         13   -1    0    0    0    0  0.00000000000E+00  0.00000000000E+00  0.74505805969E-08  0.10566000000E+00  0.10566000000E+00 0. -1.
     999900   -1    0    0    0    0 -0.00000000000E+00 -0.00000000000E+00 -0.74505805969E-08  0.93827000000E+00  0.93827000000E+00 0. -1.
     999902    2    1    2    0    0 -0.11489190306E-01  0.73078957367E-02 -0.32668797670E-02  0.10299271668E+01  0.10298319715E+01 0.  0.
     999903    2    3    3    0    0  0.95038146480E-01  0.90433366246E-01  0.77361837936E-02  0.13954579642E+00  0.46933332945E-01 0.  0.
         14    1    1    2    0    0  0.11489190306E-01 -0.73078957367E-02  0.32668797670E-02  0.14002833192E-01  0.00000000000E+00 0.  1.
     999901    1    3    3    0    0 -0.10652733679E+00 -0.83125470510E-01 -0.11003063561E-01  0.89038137039E+00  0.88000000000E+00 0. -1.
        -11    1    4    4    0    0  0.82585099407E-01  0.49007763865E-01  0.68480080776E-02  0.96276767180E-01  0.51100000000E-03 0.  1.
         11    1    4    4    0    0  0.12453047073E-01  0.41425602382E-01  0.88817571605E-03  0.43269029238E-01  0.51100000000E-03 0. -1.
</event>
<event>
 8    1  0.2928569E+004  0.1043930E+01  0.7957747E-01            NaN
         13   -1    0    0    0    0  0.00000000000E+00  0.00000000000E+00  0.74505805969E-08  0.10566000000E+00  0.10566000000E+00 0.  1.
     999900   -1    0    0    0    0 -0.00000000000E+00 -0.00000000000E+00 -0.74505805969E-08  0.93827000000E+00  0.93827000000E+00 0. -1.
     999902    2    1    2    0    0 -0.60823773629E-02 -0.11240955933E-01 -0.46182757050E-02  0.10303401922E+01  0.10302505661E+01 0.  0.
     999903    2    3    3    0    0  0.25471631676E-01  0.11608994778E+00  0.55649528948E-01  0.13857731859E+00  0.44509809707E-01 0.  0.
         14    1    1    2    0    0  0.60823773629E-02  0.11240955933E-01  0.46182757050E-02  0.13589807768E-01  0.00000000000E+00 0.  1.
     999901    1    3    3    0    0 -0.31554009039E-01 -0.12733090371E+00 -0.60267804653E-01  0.89176287364E+00  0.88000000000E+00 0.  1.
        -11    1    4    4    0    0 -0.10556553984E-01  0.51704161535E-01  0.28353543657E-01  0.59907810099E-01  0.51100000000E-03 0. -1.
         11    1    4    4    0    0  0.36028185660E-01  0.64385786245E-01  0.27295985292E-01  0.78669508492E-01  0.51100000000E-03 0.  1.
</event>
<event>
 8    1  0.2928569E+004  0.1043930E+01  0.7957747E-01            NaN
         13   -1    0    0    0    0  0.00000000000E+00  0.00000000000E+00  0.74505805969E-08  0.10566000000E+00  0.10566000000E+00 0. -1.
     999900   -1    0    0    0    0 -0.00000000000E+00 -0.00000000000E+00 -0.74505805969E-08  0.93827000000E+00  0.93827000000E+00 0. -1.
     999902    2    1    2    0    0  0.12713384138E-01 -0.31316299595E-02 -0.19400140630E-02  0.10306936524E+01  0.10306086572E+01 0.  0.
     999903    2    3    3    0    0  0.83022219272E-01 -0.70776130949E-01 -0.76164660758E-01  0.14219581395E+00  0.50166167389E-01 0.  0.
         14    1    1    2    0    0 -0.12713384138E-01  0.31316299595E-02  0.19400140630E-02  0.13236347571E-01  0.00000000000E+00 0.  1.
     999901    1    3    3    0    0 -0.70308835134E-01  0.67644500989E-01  0.74224646695E-01  0.88849783848E+00  0.88000000000E+00 0.  1.
        -11    1    4    4    0    0  0.44719251833E-01 -0.11681288864E-01 -0.47153216635E-01  0.66029924686E-01  0.51100000000E-03 0. -1.
         11    1    4    4    0    0  0.38302967439E-01 -0.59094842085E-01 -0.29011444122E-01  0.76165889260E-01  0.51100000000E-03 0.  1.
</event>
<event>
 8    1  0.2928569E+004  0.1043930E+01  0.7957747E-01            NaN
         13   -1    0    0    0    0  0.00000000000E+00  0.00000000000E+00  0.74505805969E-08  0.10566000000E+00  0.10566000000E+00 0. -1.
     999900   -1    0    0    0    0 -0.00000000000E+00 -0.00000000000E+00 -0.74505805969E-08  0.93827000000E+00  0.93827000000E+00 0. -1.
     999902    2    1    2    0    0  0.42342822171E-02 -0.10420117320E-01 -0.13233694733E-02  0.10326048379E+01  0.10325427313E+01 0.  0.
     999903    2    3    3    0    0  0.10556682588E+00 -0.75811791318E-01  0.40242161547E-01  0.14340741950E+00  0.45326305542E-01 0.  0.
         14    1    1    2    0    0 -0.42342822171E-02  0.10420117320E-01  0.13233694733E-02  0.11325162145E-01  0.00000000000E+00 0. -1.
     999901    1    3    3    0    0 -0.10133254366E+00  0.65391673998E-01 -0.41565531021E-01  0.88919741835E+00  0.88000000000E+00 0. -1.
        -11    1    4    4    0    0  0.35913564248E-01 -0.50128194013E-01  0.69937106376E-02  0.62062815288E-01  0.51100000000E-03 0. -1.
         11    1    4    4    0    0  0.69653261629E-01 -0.25683597305E-01  0.33248450910E-01  0.81344604216E-01  0.51100000000E-03 0.  1.
</event>
<event>
 8    1  0.2928569E+004  0.1043930E+01  0.7957747E-01            NaN
         13   -1    0    0    0    0  0.00000000000E+00  0.00000000000E+00  0.74505805969E-08  0.10566000000E+00  0.10566000000E+00 0. -1.
     999900   -1    0    0    0    0 -0.00000000000E+00 -0.00000000000E+00 -0.74505805969E-08  0.93827000000E+00  0.93827000000E+00 0. -1.
     999902    2    1    2    0    0 -0.47400799725E-02 -0.10837326191E-01  0.87021657291E-02  0.10292451886E+01  0.10291404251E+01 0.  0.
     999903    2    3    3    0    0 -0.11752850634E+00 -0.46149411268E-01 -0.40326040630E-01  0.13999160414E+00  0.45041555427E-01 0.  0.
         14    1    1    2    0    0  0.47400799725E-02  0.10837326191E-01 -0.87021657291E-02  0.14684811388E-01  0.00000000000E+00 0.  1.
     999901    1    3    3    0    0  0.11278842636E+00  0.35312085076E-01  0.49028206359E-01  0.88925358447E+00  0.88000000000E+00 0.  1.
        -11    1    4    4    0    0 -0.11005521909E+00 -0.42533239845E-01 -0.49193192977E-01  0.12783371659E+00  0.51100000000E-03 0. -1.
         11    1    4    4    0    0 -0.74732872502E-02 -0.36161714228E-02  0.88671523469E-02  0.12157887556E-01  0.51100000000E-03 0.  1.
</event>
<event>
 8    1  0.2928569E+004  0.1043930E+01  0.7957747E-01            NaN
         13   -1    0    0    0    0  0.00000000000E+00  0.00000000000E+00  0.74505805969E-08  0.10566000000E+00  0.10566000000E+00 0. -1.
     999900   -1    0    0    0    0 -0.00000000000E+00 -0.00000000000E+00 -0.74505805969E-08  0.93827000000E+00  0.93827000000E+00 0.  1.
     999902    2    1    2    0    0  0.11132029821E-02 -0.73021131157E-02 -0.10634233477E-01  0.10309821431E+01  0.10309008354E+01 0.  0.
     999903    2    3    3    0    0 -0.99062082191E-01 -0.39301377652E-01 -0.81833603205E-01  0.14186550792E+00  0.45510320926E-01 0.  0.
         14    1    1    2    0    0 -0.11132029821E-02  0.73021131157E-02  0.10634233477E-01  0.12947856907E-01  0.00000000000E+00 0. -1.
     999901    1    3    3    0    0  0.10017528517E+00  0.31999264536E-01  0.71199369727E-01  0.88911663517E+00  0.88000000000E+00 0. -1.
        -11    1    4    4    0    0 -0.43689910807E-01 -0.24234232287E-01 -0.11829108431E-01  0.51344865840E-01  0.51100000000E-03 0.  1.
         11    1    4    4    0    0 -0.55372171384E-01 -0.15067145365E-01 -0.70004494773E-01  0.90520642081E-01  0.51100000000E-03 0. -1.
</event>
<event>
 8    1  0.2928569E+004  0.1043930E+01  0.7957747E-01            NaN
         13   -1    0    0    0    0  0.00000000000E+00  0.00000000000E+00  0.74505805969E-08  0.10566000000E+00  0.10566000000E+00 0. -1.
     999900   -1    0    0    0    0 -0.00000000000E+00 -0.00000000000E+00 -0.74505805969E-08  0.93827000000E+00  0.93827000000E+00 0.  1.
     999902    2    1    2    0    0  0.11778365371E-01 -0.44126219615E-02  0.22267200551E-03  0.10313502263E+01  0.10312735033E+01 0.  0.
     999903    2    3    3    0    0  0.42607528177E-01  0.12285837801E+00  0.29627353113E-01  0.14117441222E+00  0.46290950608E-01 0.  0.
         14    1    1    2    0    0 -0.11778365371E-01  0.44126219615E-02 -0.22267200551E-03  0.12579773695E-01  0.00000000000E+00 0.  1.
     999901    1    3    3    0    0 -0.30829162807E-01 -0.12727099997E+00 -0.29404681107E-01  0.89017581409E+00  0.88000000000E+00 0. -1.
        -11    1    4    4    0    0  0.33824142780E-01  0.40157136008E-01  0.24241314446E-01  0.57832263091E-01  0.51100000000E-03 0.  1.
         11    1    4    4    0    0  0.87833853972E-02  0.82701242002E-01  0.53860386670E-02  0.83342149128E-01  0.51100000000E-03 0. -1.
</event>
<event>
 8    1  0.2928569E+004  0.1043930E+01  0.7957747E-01            NaN
         13   -1    0    0    0    0  0.00000000000E+00  0.00000000000E+00  0.74505805969E-08  0.10566000000E+00  0.10566000000E+00 0. -1.
     999900   -1    0    0    0    0 -0.00000000000E+00 -0.00000000000E+00 -0.74505805969E-08  0.93827000000E+00  0.93827000000E+00 0.  1.
     999902    2    1    2    0    0  0.96413355473E-02 -0.42572430744E-02  0.21773667259E-01  0.10197396702E+01  0.10194527076E+01 0.  0.
     999903    2    3    3    0    0  0.11817803440E+00  0.29102495581E-01  0.26381051650E-01  0.13243233047E+00  0.45048409544E-01 0.  0.
         14    1    1    2    0    0 -0.96413355473E-02  0.42572430744E-02 -0.21773667259E-01  0.24190329796E-01  0.00000000000E+00 0.  1.
     999901    1    3    3    0    0 -0.10853669885E+00 -0.33359738656E-01 -0.46073843908E-02  0.88730733974E+00  0.88000000000E+00 0.  1.
        -11    1    4    4    0    0  0.99374688024E-01  0.54264352664E-02  0.19371586458E-01  0.10139178617E+00  0.51100000000E-03 0.  1.
         11    1    4    4    0    0  0.18803346378E-01  0.23676060315E-01  0.70094651916E-02  0.31040544298E-01  0.51100000000E-03 0. -1.
</event>
<event>
 8    1  0.2928569E+004  0.1043930E+01  0.7957747E-01            NaN
         13   -1    0    0    0    0  0.00000000000E+00  0.00000000000E+00  0.74505805969E-08  0.10566000000E+00  0.10566000000E+00 0. -1.
     999900   -1    0    0    0    0 -0.00000000000E+00 -0.00000000000E+00 -0.74505805969E-08  0.93827000000E+00  0.93827000000E+00 0.  1.
     999902    2    1    2    0    0  0.12393394038E-01  0.17174412841E-02 -0.59902174013E-02  0.10300581391E+01  0.10299647282E+01 0.  0.
     999903    2    3    3    0    0 -0.10315081957E+00 -0.99325138175E-02 -0.81239958823E-01  0.13924462868E+00  0.45281224589E-01 0.  0.
         14    1    1    2    0    0 -0.12393394038E-01 -0.17174412841E-02  0.59902174013E-02  0.13871860902E-01  0.00000000000E+00 0. -1.
     999901    1    3    3    0    0  0.11554421360E+00  0.11649955102E-01  0.75249741421E-01  0.89081351041E+00  0.88000000000E+00 0.  1.
        -11    1    4    4    0    0 -0.30200982484E-01  0.16065613793E-01 -0.35490547585E-01  0.49295470161E-01  0.51100000000E-03 0. -1.
         11    1    4    4    0    0 -0.72949837082E-01 -0.25998127611E-01 -0.45749411238E-01  0.89949158524E-01  0.51100000000E-03 0.  1.
</event>
<event>
 8    1  0.2928569E+004  0.1043930E+01  0.7957747E-01            NaN
         13   -1    0    0    0    0  0.00000000000E+00  0.00000000000E+00  0.74505805969E-08  0.10566000000E+00  0.10566000000E+00 0.  1.
     999900   -1    0    0    0    0 -0.00000000000E+00 -0.00000000000E+00 -0.74505805969E-08  0.93827000000E+00  0.93827000000E+00 0.  1.
     999902    2    1    2    0    0 -0.10573061610E-01 -0.24584295827E-03  0.94645663376E-02  0.10297374637E+01  0.10296396535E+01 0.  0.
     999903    2    3    3    0    0  0.82224225581E-01 -0.34494950942E-01  0.97854879050E-01  0.13979522665E+00  0.44904377601E-01 0.  0.
         14    1    1    2    0    0  0.10573061610E-01  0.24584295827E-03 -0.94645663376E-02  0.14192536296E-01  0.00000000000E+00 0. -1.
     999901    1    3    3    0    0 -0.92797287191E-01  0.34249107984E-01 -0.88390312713E-01  0.88994223705E+00  0.88000000000E+00 0.  1.
        -11    1    4    4    0    0  0.40361181240E-01 -0.20790413333E-01  0.18490664874E-01  0.49024810516E-01  0.51100000000E-03 0.  1.
         11    1    4    4    0    0  0.41863044342E-01 -0.13704537609E-01  0.79364214177E-01  0.90770416136E-01  0.51100000000E-03 0. -1.
</event>
<event>
 8    1  0.2928569E+004  0.1043930E+01  0.7957747E-01            NaN
         13   -1    0    0    0    0  0.00000000000E+00  0.00000000000E+00  0.74505805969E-08  0.10566000000E+00  0.10566000000E+00 0.  1.
     999900   -1    0    0    0    0 -0.00000000000E+00 -0.00000000000E+00 -0.74505805969E-08  0.93827000000E+00  0.93827000000E+00 0.  1.
     999902    2    1    2    0    0 -0.13406427764E-01 -0.37545286079E-02  0.13983814894E-02  0.10299377071E+01  0.10298426560E+01 0.  0.
     999903    2    3    3    0    0  0.76455501499E-01  0.71309233607E-01 -0.79095325005E-01  0.13854050520E+00  0.44799002627E-01 0.  0.
         14    1    1    2    0    0  0.13406427764E-01  0.37545286079E-02 -0.13983814894E-02  0.13992292923E-01  0.00000000000E+00 0.  1.
     999901    1    3    3    0    0 -0.89861929263E-01 -0.75063762215E-01  0.80493706494E-01  0.89139720188E+00  0.88000000000E+00 0. -1.
        -11    1    4    4    0    0  0.25026247109E-01  0.39688457347E-01 -0.57960990067E-01  0.74573615854E-01  0.51100000000E-03 0. -1.
         11    1    4    4    0    0  0.51429254390E-01  0.31620776260E-01 -0.21134334938E-01  0.63966889346E-01  0.51100000000E-03 0.  1.
</event>
<event>
 8    1  0.2928569E+004  0.1043930E+01  0.7957747E-01            NaN
         13   -1    0    0    0    0  0.00000000000E+00  0.00000000000E+00  0.74505805969E-08  0.10566000000E+00  0.10566000000E+00 0.  1.
     999900   -1    0    0    0    0 -0.00000000000E+00 -0.00000000000E+00 -0.74505805969E-08  0.93827000000E+00  0.93827000000E+00 0. -1.
     999902    2    1    2    0    0  0.75273065158E-02  0.61331952159E-02 -0.73882114652E-02  0.10317290945E+01  0.10316569499E+01 0.  0.
     999903    2    3    3    0    0  0.65494312826E-01 -0.11485289154E+00 -0.23772009500E-01  0.14141104128E+00  0.44173322859E-01 0.  0.
         14    1    1    2    0    0 -0.75273065158E-02 -0.61331952159E-02  0.73882114652E-02  0.12200905524E-01  0.00000000000E+00 0.  1.
     999901    1    3    3    0    0 -0.57967006310E-01  0.12098608676E+00  0.16383798035E-01  0.89031805320E+00  0.88000000000E+00 0.  1.
        -11    1    4    4    0    0  0.59010800186E-01 -0.66190519743E-01 -0.25546169976E-01  0.92283949655E-01  0.51100000000E-03 0. -1.
         11    1    4    4    0    0  0.64835126399E-02 -0.48662371798E-01  0.17741604766E-02  0.49127091625E-01  0.51100000000E-03 0.  1.
</event>
<event>
 8    1  0.2928569E+004  0.1043930E+01  0.7957747E-01            NaN
         13   -1    0    0    0    0  0.00000000000E+00  0.00000000000E+00  0.74505805969E-08  0.10566000000E+00  0.10566000000E+00 0.  1.
     999900   -1    0    0    0    0 -0.00000000000E+00 -0.00000000000E+00 -0.74505805969E-08  0.93827000000E+00  0.93827000000E+00 0. -1.
     999902    2    1    2    0    0 -0.13418452165E-03  0.69968706090E-03  0.14343281025E-01  0.10295690363E+01  0.10294688743E+01 0.  0.
     999903    2    3    3    0    0 -0.92010270378E-01  0.57938062798E-01 -0.73139713939E-01  0.13863092330E+00  0.45237221005E-01 0.  0.
         14    1    1    2    0    0  0.13418452165E-03 -0.69968706090E-03 -0.14343281025E-01  0.14360963688E-01  0.00000000000E+00 0. -1.
     999901    1    3    3    0    0  0.91876085856E-01 -0.57238375737E-01  0.87482994964E-01  0.89093811301E+00  0.88000000000E+00 0. -1.
        -11    1    4    4    0    0 -0.48572539379E-02  0.23515695257E-01 -0.13415645182E-01  0.27510388872E-01  0.51100000000E-03 0.  1.
         11    1    4    4    0    0 -0.87153016440E-01  0.34422367541E-01 -0.59724068758E-01  0.11112053443E+00  0.51100000000E-03 0. -1.
</event>
<event>
 8    1  0.2928569E+004  0.1043930E+01  0.7957747E-01            NaN
         13   -1    0    0    0    0  0.00000000000E+00  0.00000000000E+00  0.74505805969E-08  0.10566000000E+00  0.10566000000E+00 0. -1.
     999900   -1    0    0    0    0 -0.00000000000E+00 -0.00000000000E+00 -0.74505805969E-08  0.93827000000E+00  0.93827000000E+00 0. -1.
     999902    2    1    2    0    0 -0.84536153526E-02 -0.24014947110E-02 -0.15055394870E-01  0.10264973954E+01  0.10263493591E+01 0.  0.
     999903    2    3    3    0    0 -0.10821058480E+00 -0.20679123352E-01 -0.71368152273E-01  0.13888450041E+00  0.45368871362E-01 0.  0.
         14    1    1    2    0    0  0.84536153526E-02  0.24014947110E-02  0.15055394870E-01  0.17432604626E-01  0.00000000000E+00 0. -1.
     999901    1    3    3    0    0  0.99756969451E-01  0.18277628641E-01  0.56312757404E-01  0.88761289497E+00  0.88000000000E+00 0.  1.
        -11    1    4    4    0    0 -0.75462991427E-01 -0.99767321628E-02 -0.23041120624E-01  0.79532085478E-01  0.51100000000E-03 0.  1.
         11    1    4    4    0    0 -0.32747593376E-01 -0.10702391190E-01 -0.48327031649E-01  0.59352414931E-01  0.51100000000E-03 0. -1.
</event>
<event>
 8    1  0.2928569E+004  0.1043930E+01  0.7957747E-01            NaN
         13   -1    0    0    0    0  0.00000000000E+00  0.00000000000E+00  0.74505805969E-08  0.10566000000E+00  0.10566000000E+00 0.  1.
     999900   -1    0    0    0    0 -0.00000000000E+00 -0.00000000000E+00 -0.74505805969E-08  0.93827000000E+00  0.93827000000E+00 0.  1.
     999902    2    1    2    0    0 -0.13340273521E-01 -0.64211921386E-02  0.47504393456E-02  0.10283813255E+01  0.10282637742E+01 0.  0.
     999903    2    3    3    0    0 -0.48995877885E-01 -0.31815997638E-01  0.11871640436E+00  0.13995324201E+00  0.45612186198E-01 0.  0.
         14    1    1    2    0    0  0.13340273521E-01  0.64211921386E-02 -0.47504393456E-02  0.15548674544E-01  0.00000000000E+00 0. -1.
     999901    1    3    3    0    0  0.35655604364E-01  0.25394805499E-01 -0.11396596502E+00  0.88842808344E+00  0.88000000000E+00 0.  1.
        -11    1    4    4    0    0 -0.37031705159E-02 -0.27077316847E-01  0.32663238902E-01  0.42591581986E-01  0.51100000000E-03 0. -1.
         11    1    4    4    0    0 -0.45292707369E-01 -0.47386807910E-02  0.86053165460E-01  0.97361660026E-01  0.51100000000E-03 0.  1.
</event>
<event>
 8    1  0.2928569E+004  0.1043930E+01  0.7957747E-01            NaN
         13   -1    0    0    0    0  0.00000000000E+00  0.00000000000E+00  0.74505805969E-08  0.10566000000E+00  0.10566000000E+00 0. -1.
     999900   -1    0    0    0    0 -0.00000000000E+00 -0.00000000000E+00 -0.74505805969E-08  0.93827000000E+00  0.93827000000E+00 0. -1.
     999902    2    1    2    0    0  0.11580383599E-01 -0.48560963219E-02 -0.19975119087E-01  0.10203356715E+01  0.10200628364E+01 0.  0.
     999903    2    3    3    0    0  0.48329185811E-02  0.97912383477E-01  0.69470559223E-01  0.12982603195E+00  0.49177718870E-01 0.  0.
         14    1    1    2    0    0 -0.11580383599E-01  0.48560963219E-02  0.19975119087E-01  0.23594328521E-01  0.00000000000E+00 0. -1.
     999901    1    3    3    0    0  0.67474650179E-02 -0.10276847980E+00 -0.89445678310E-01  0.89050963953E+00  0.88000000000E+00 0. -1.
        -11    1    4    4    0    0  0.25309354107E-01  0.34232659958E-01  0.30930755763E-01  0.52625195356E-01  0.51100000000E-03 0.  1.
         11    1    4    4    0    0 -0.20476435526E-01  0.63679723519E-01  0.38539803459E-01  0.77200836595E-01  0.51100000000E-03 0. -1.
</event>
<event>
 8    1  0.2928569E+004  0.1043930E+01  0.7957747E-01            NaN
         13   -1    0    0    0    0  0.00000000000E+00  0.00000000000E+00  0.74505805969E-08  0.10566000000E+00  0.10566000000E+00 0.  1.
     999900   -1    0    0    0    0 -0.00000000000E+00 -0.00000000000E+00 -0.74505805969E-08  0.93827000000E+00  0.93827000000E+00 0.  1.
     999902    2    1    2    0    0 -0.78326454326E-02  0.49800956802E-02  0.12703941857E-01  0.10281965380E+01  0.10280761543E+01 0.  0.
     999903    2    3    3    0    0  0.49286485757E-01 -0.41804820236E-01  0.11475504346E+00  0.13922755608E+00  0.45152981062E-01 0.  0.
         14    1    1    2    0    0  0.78326454326E-02 -0.49800956802E-02 -0.12703941857E-01  0.15733461989E-01  0.00000000000E+00 0. -1.
     999901    1    3    3    0    0 -0.57119131189E-01  0.46784915916E-01 -0.10205110160E+00  0.88896898194E+00  0.88000000000E+00 0.  1.
        -11    1    4    4    0    0  0.31741493808E-01 -0.40995603773E-02  0.75636626187E-01  0.82130926979E-01  0.51100000000E-03 0.  1.
         11    1    4    4    0    0  0.17544991948E-01 -0.37705259859E-01  0.39118417270E-01  0.57096629097E-01  0.51100000000E-03 0. -1.
</event>
<event>
 8    1  0.2928569E+004  0.1043930E+01  0.7957747E-01            NaN
         13   -1    0    0    0    0  0.00000000000E+00  0.00000000000E+00  0.74505805969E-08  0.10566000000E+00  0.10566000000E+00 0.  1.
     999900   -1    0    0    0    0 -0.00000000000E+00 -0.00000000000E+00 -0.74505805969E-08  0.93827000000E+00  0.93827000000E+00 0. -1.
     999902    2    1    2    0    0  0.11912533412E-01  0.27445341678E-02  0.16233119931E-02  0.10315980877E+01  0.10315243761E+01 0.  0.
     999903    2    3    3    0    0 -0.70052170324E-01  0.58741377671E-01  0.97659371103E-01  0.14082494943E+00  0.44005199702E-01 0.  0.
         14    1    1    2    0    0 -0.11912533412E-01 -0.27445341678E-02 -0.16233119931E-02  0.12331912338E-01  0.00000000000E+00 0.  1.
     999901    1    3    3    0    0  0.81964703736E-01 -0.55996843503E-01 -0.96036059110E-01  0.89077313823E+00  0.88000000000E+00 0. -1.
        -11    1    4    4    0    0 -0.85911007561E-02  0.34059392506E-01  0.30942824170E-01  0.46814193560E-01  0.51100000000E-03 0. -1.
         11    1    4    4    0    0 -0.61461069568E-01  0.24681985165E-01  0.66716546933E-01  0.94010755873E-01  0.51100000000E-03 0.  1.
</event>
<event>
 8    1  0.2928569E+004  0.1043930E+01  0.7957747E-01            NaN
         13   -1    0    0    0    0  0.00000000000E+00  0.00000000000E+00  0.74505805969E-08  0.10566000000E+00  0.10566000000E+00 0.  1.
     999900   -1    0    0    0    0 -0.00000000000E+00 -0.00000000000E+00 -0.74505805969E-08  0.93827000000E+00  0.93827000000E+00 0.  1.
     999902    2    1    2    0    0  0.11367782085E-01 -0.49630693462E-02  0.36932228614E-03  0.10315205308E+01  0.10314458835E+01 0.  0.
     999903    2    3    3    0    0  0.71421943981E-01  0.11134922976E+00  0.22189892775E-01  0.14157042513E+00  0.45277465473E-01 0.  0.
         14    1    1    2    0    0 -0.11367782085E-01  0.49630693462E-02 -0.36932228614E-03  0.12409469199E-01  0.00000000000E+00 0.  1.
     999901    1    3    3    0    0 -0.60054161897E-01 -0.11631229911E+00 -0.21820570489E-01  0.88995010567E+00  0.88000000000E+00 0. -1.
        -11    1    4    4    0    0  0.44555600522E-01  0.45837485155E-01 -0.83263538024E-02  0.64466005553E-01  0.51100000000E-03 0. -1.
         11    1    4    4    0    0  0.26866343459E-01  0.65511744607E-01  0.30516246578E-01  0.77104419578E-01  0.51100000000E-03 0.  1.
</event>
<event>
 8    1  0.2928569E+004  0.1043930E+01  0.7957747E-01            NaN
         13   -1    0    0    0    0  0.00000000000E+00  0.00000000000E+00  0.74505805969E-08  0.10566000000E+00  0.10566000000E+00 0. -1.
     999900   -1    0    0    0    0 -0.00000000000E+00 -0.00000000000E+00 -0.74505805969E-08  0.93827000000E+00  0.93827000000E+00 0. -1.
     999902    2    1    2    0    0 -0.93274502530E-02  0.90437644384E-03 -0.10370844757E-01  0.10299523877E+01  0.10298575374E+01 0.  0.
     999903    2    3    3    0    0  0.91347667619E-01 -0.76361731944E-01  0.54749252782E-01  0.13846702159E+00  0.44722755983E-01 0.  0.
         14    1    1    2    0    0  0.93274502530E-02 -0.90437644384E-03  0.10370844757E-01  0.13977612312E-01  0.00000000000E+00 0. -1.
     999901    1    3    3    0    0 -0.10067511787E+00  0.77266108387E-01 -0.65120097539E-01  0.89148536610E+00  0.88000000000E+00 0.  1.
        -11    1    4    4    0    0  0.68959833224E-01 -0.38043213579E-01  0.51209771215E-01  0.93943847519E-01  0.51100000000E-03 0. -1.
         11    1    4    4    0    0  0.22387834396E-01 -0.38318518365E-01  0.35394815666E-02  0.44523174071E-01  0.51100000000E-03 0.  1.
</event>
<event>
 8    1  0.2928569E+004  0.1043930E+01  0.7957747E-01            NaN
         13   -1    0    0    0    0  0.00000000000E+00  0.00000000000E+00  0.74505805969E-08  0.10566000000E+00  0.10566000000E+00 0.  1.
     999900   -1    0    0    0    0 -0.00000000000E+00 -0.00000000000E+00 -0.74505805969E-08  0.93827000000E+00  0.93827000000E+00 0. -1.
     999902    2    1    2    0    0 -0.42809876617E-02 -0.10519164295E-01  0.81491035814E-02  0.10299518899E+01  0.10298570328E+01 0.  0.
     999903    2    3    3    0    0  0.12050987332E+00 -0.28799223966E-02 -0.53077420469E-01  0.13900867945E+00  0.44444087083E-01 0.  0.
         14    1    1    2    0    0  0.42809876617E-02  0.10519164295E-01 -0.81491035814E-02  0.13978110101E-01  0.00000000000E+00 0.  1.
     999901    1    3    3    0    0 -0.12479086099E+00 -0.76392418983E-02  0.61226524050E-01  0.89094321045E+00  0.88000000000E+00 0.  1.
        -11    1    4    4    0    0  0.60934011557E-01 -0.16538992430E-01 -0.44590456211E-01  0.77298524832E-01  0.51100000000E-03 0.  1.
         11    1    4    4    0    0  0.59575861766E-01  0.13659070034E-01 -0.84869642583E-02  0.61710154616E-01  0.51100000000E-03 0. -1.
</event>
<event>
 8    1  0.2928569E+004  0.1043930E+01  0.7957747E-01            NaN
         13   -1    0    0    0    0  0.00000000000E+00  0.00000000000E+00  0.74505805969E-08  0.10566000000E+00  0.10566000000E+00 0.  1.
     999900   -1    0    0    0    0 -0.00000000000E+00 -0.00000000000E+00 -0.74505805969E-08  0.93827000000E+00  0.93827000000E+00 0. -1.
     999902    2    1    2    0    0  0.16694662916E-02 -0.58711381383E-02 -0.13270419239E-01  0.10293231041E+01  0.10292194573E+01 0.  0.
     999903    2    3    3    0    0 -0.11288589445E+00 -0.48344917090E-01 -0.50132092967E-01  0.14011798966E+00  0.45159363442E-01 0.  0.
         14    1    1    2    0    0 -0.16694662916E-02  0.58711381383E-02  0.13270419239E-01  0.14606895889E-01  0.00000000000E+00 0.  1.
     999901    1    3    3    0    0  0.11455536074E+00  0.42473778951E-01  0.36861673728E-01  0.88920511445E+00  0.88000000000E+00 0. -1.
        -11    1    4    4    0    0 -0.56945907846E-01 -0.21757633538E-01 -0.48924831877E-01  0.78167329063E-01  0.51100000000E-03 0. -1.
         11    1    4    4    0    0 -0.55939986607E-01 -0.26587283552E-01 -0.12072610899E-02  0.61950660599E-01  0.51100000000E-03 0.  1.
</event>
<event>
 8    1  0.2928569E+004  0.1043930E+01  0.7957747E-01            NaN
         13   -1    0    0    0    0  0.00000000000E+00  0.00000000000E+00  0.74505805969E-08  0.10566000000E+00  0.10566000000E+00 0.  1.
     999900   -1    0    0    0    0 -0.00000000000E+00 -0.00000000000E+00 -0.74505805969E-08  0.93827000000E+00  0.93827000000E+00 0. -1.
     999902    2    1    2    0    0  0.16893673577E-02  0.16602083059E-02  0.13565911989E-01  0.10301588627E+01  0.10300668125E+01 0.  0.
     999903    2    3    3    0    0 -0.88744484342E-01 -0.45078479877E-01 -0.85645047647E-01  0.13875233313E+00  0.44827256352E-01 0.  0.
         14    1    1    2    0    0 -0.16893673577E-02 -0.16602083059E-02 -0.13565911989E-01  0.13771137272E-01  0.00000000000E+00 0. -1.
     999901    1    3    3    0    0  0.90433851699E-01  0.46738688183E-01  0.99210959636E-01  0.89140652960E+00  0.88000000000E+00 0.  1.
        -11    1    4    4    0    0 -0.65025165417E-01 -0.38686039657E-01 -0.36939964061E-01  0.84200379261E-01  0.51100000000E-03 0. -1.
         11    1    4    4    0    0 -0.23719318924E-01 -0.63924402206E-02 -0.48705083587E-01  0.54551953864E-01  0.51100000000E-03 0.  1.
</event>
<event>
 8    1  0.2928569E+004  0.1043930E+01  0.7957747E-01            NaN
         13   -1    0    0    0    0  0.00000000000E+00  0.00000000000E+00  0.74505805969E-08  0.10566000000E+00  0.10566000000E+00 0.  1.
     999900   -1    0    0    0    0 -0.00000000000E+00 -0.00000000000E+00 -0.74505805969E-08  0.93827000000E+00  0.93827000000E+00 0.  1.
     999902    2    1    2    0    0 -0.73449919081E-02 -0.13134339871E-01 -0.20975270616E-02  0.10287359416E+01  0.10286237301E+01 0.  0.
     999903    2    3    3    0    0 -0.16606322721E-02 -0.17441413578E-01 -0.13085985778E+00  0.13933693070E+00  0.44536695799E-01 0.  0.
         14    1    1    2    0    0  0.73449919081E-02  0.13134339871E-01  0.20975270616E-02  0.15194058370E-01  0.00000000000E+00 0.  1.
     999901    1    3    3    0    0 -0.56843596360E-02  0.43070737065E-02  0.12876233072E+00  0.88939901093E+00  0.88000000000E+00 0. -1.
        -11    1    4    4    0    0 -0.60406032240E-02  0.11670149250E-01 -0.75474232367E-01  0.76611370848E-01  0.51100000000E-03 0. -1.
         11    1    4    4    0    0  0.43799709519E-02 -0.29111562828E-01 -0.55385625410E-01  0.62725559854E-01  0.51100000000E-03 0.  1.
</event>
<event>
 8    1  0.2928569E+004  0.1043930E+01  0.7957747E-01            NaN
         13   -1    0    0    0    0  0.00000000000E+00  0.00000000000E+00  0.74505805969E-08  0.10566000000E+00  0.10566000000E+00 0.  1.
     999900   -1    0    0    0    0 -0.00000000000E+00 -0.00000000000E+00 -0.74505805969E-08  0.93827000000E+00  0.93827000000E+00 0. -1.
     999902    2    1    2    0    0  0.63731824141E-02  0.14999450126E-01  0.15567420277E-01  0.10213923530E+01  0.10211436692E+01 0.  0.
     999903    2    3    3    0    0  0.11304340612E+00 -0.39502966063E-01  0.37340291960E-01  0.13301005470E+00  0.44250211885E-01 0.  0.
         14    1    1    2    0    0 -0.63731824141E-02 -0.14999450126E-01 -0.15567420277E-01  0.22537646999E-01  0.00000000000E+00 0. -1.
     999901    1    3    3    0    0 -0.10667022371E+00  0.54502416189E-01 -0.21772871683E-01  0.88838229830E+00  0.88000000000E+00 0. -1.
        -11    1    4    4    0    0  0.98157872927E-01 -0.42894128920E-01  0.44675372857E-01  0.11606474217E+00  0.51100000000E-03 0.  1.
         11    1    4    4    0    0  0.14885533195E-01  0.33911628569E-02 -0.73350808977E-02  0.16945312531E-01  0.51100000000E-03 0. -1.
</event>
<event>
 8    1  0.2928569E+004  0.1043930E+01  0.7957747E-01            NaN
         13   -1    0    0    0    0  0.00000000000E+00  0.00000000000E+00  0.74505805969E-08  0.10566000000E+00  0.10566000000E+00 0.  1.
     999900   -1    0    0    0    0 -0.00000000000E+00 -0.00000000000E+00 -0.74505805969E-08  0.93827000000E+00  0.93827000000E+00 0.  1.
     999902    2    1    2    0    0  0.16993394291E-01 -0.21227008171E-02 -0.11351446971E-01  0.10233840355E+01  0.10231777693E+01 0.  0.
     999903    2    3    3    0    0 -0.96005262365E-01  0.38396407294E-01 -0.72156694028E-01  0.13315497926E+00  0.42806138744E-01 0.  0.
         14    1    1    2    0    0 -0.16993394291E-01  0.21227008171E-02  0.11351446971E-01  0.20545964485E-01  0.00000000000E+00 0.  1.
     999901    1    3    3    0    0  0.11299865666E+00 -0.40519108112E-01  0.60805247056E-01  0.89022905625E+00  0.88000000000E+00 0. -1.
        -11    1    4    4    0    0 -0.54126939210E-01 -0.12682793654E-02 -0.37482597035E-01  0.65852412881E-01  0.51100000000E-03 0. -1.
         11    1    4    4    0    0 -0.41878323155E-01  0.39664686660E-01 -0.34674096993E-01  0.67302566380E-01  0.51100000000E-03 0.  1.
</event>
<event>
 7    1  0.2928569E+004  0.1043930E+01  0.7957747E-01            NaN
         13   -1    0    0    0    0  0.00000000000E+00  0.00000000000E+00  0.74505805969E-08  0.10566000000E+00  0.10566000000E+00 0.  1.
     999900   -1    0    0    0    0 -0.00000000000E+00 -0.00000000000E+00 -0.74505805969E-08  0.93827000000E+00  0.93827000000E+00 0.  1.
     999903    2    1    2    0    0  0.76840127156E-01 -0.11942048702E-01  0.88296959874E-01  0.12579767345E+00  0.44516107798E-01 0.  0.
         14    1    1    2    0    0 -0.21564625354E-01 -0.13327652726E-01  0.15867335406E-01  0.29907051455E-01  0.00000000000E+00 0.  1.
     999901    1    1    2    0    0 -0.55275501802E-01  0.25269701429E-01 -0.10416429528E+00  0.88822527510E+00  0.88000000000E+00 0.  1.
        -11    1    3    3    0    0  0.54390864674E-01 -0.28509824474E-01  0.55952557299E-01  0.83079034905E-01  0.51100000000E-03 0.  1.
         11    1    3    3    0    0  0.22449262482E-01  0.16567775772E-01  0.32344402575E-01  0.42718638543E-01  0.51100000000E-03 0. -1.
</event>
<event>
 8    1  0.2928569E+004  0.1043930E+01  0.7957747E-01            NaN
         13   -1    0    0    0    0  0.00000000000E+00  0.00000000000E+00  0.74505805969E-08  0.10566000000E+00  0.10566000000E+00 0. -1.
     999900   -1    0    0    0    0 -0.00000000000E+00 -0.00000000000E+00 -0.74505805969E-08  0.93827000000E+00  0.93827000000E+00 0.  1.
     999902    2    1    2    0    0 -0.45533819293E-02  0.79303560974E-02  0.10469018497E-01  0.10300294898E+01  0.10299356901E+01 0.  0.
     999903    2    3    3    0    0  0.36913507329E-01  0.12071999278E+00  0.45352451445E-01  0.14117750049E+00  0.44026334325E-01 0.  0.
         14    1    1    2    0    0  0.45533819293E-02 -0.79303560974E-02 -0.10469018497E-01  0.13900510174E-01  0.00000000000E+00 0.  1.
     999901    1    3    3    0    0 -0.41466889258E-01 -0.11278963668E+00 -0.34883432948E-01  0.88885198933E+00  0.88000000000E+00 0. -1.
        -11    1    4    4    0    0  0.28248047035E-01  0.11309276111E+00  0.27265845630E-01  0.11971471186E+00  0.51100000000E-03 0.  1.
         11    1    4    4    0    0  0.86654602937E-02  0.76272316670E-02  0.18086605816E-01  0.21462788634E-01  0.51100000000E-03 0. -1.
</event>
<event>
 8    1  0.2928569E+004  0.1043930E+01  0.7957747E-01            NaN
         13   -1    0    0    0    0  0.00000000000E+00  0.00000000000E+00  0.74505805969E-08  0.10566000000E+00  0.10566000000E+00 0. -1.
     999900   -1    0    0    0    0 -0.00000000000E+00 -0.00000000000E+00 -0.74505805969E-08  0.93827000000E+00  0.93827000000E+00 0. -1.
     999902    2    1    2    0    0 -0.10207872599E-01 -0.67261507761E-03  0.94182553357E-02  0.10300247273E+01  0.10299308629E+01 0.  0.
     999903    2    3    3    0    0 -0.30325846982E-01  0.11036893552E+00 -0.65534627920E-01  0.13965800876E+00  0.45919636667E-01 0.  0.
         14    1    1    2    0    0  0.10207872599E-01  0.67261507761E-03 -0.94182553357E-02  0.13905272655E-01  0.00000000000E+00 0.  1.
     999901    1    3    3    0    0  0.20117974384E-01 -0.11104155060E+00  0.74952883255E-01  0.89036671858E+00  0.88000000000E+00 0. -1.
        -11    1    4    4    0    0 -0.34841295623E-01  0.72775993013E-01 -0.61745478506E-01  0.10160229464E+00  0.51100000000E-03 0. -1.
         11    1    4    4    0    0  0.45154486410E-02  0.37592942508E-01 -0.37891494133E-02  0.38055714119E-01  0.51100000000E-03 0.  1.
</event>
<event>
 8    1  0.2928569E+004  0.1043930E+01  0.7957747E-01            NaN
         13   -1    0    0    0    0  0.00000000000E+00  0.00000000000E+00  0.74505805969E-08  0.10566000000E+00  0.10566000000E+00 0.  1.
     999900   -1    0    0    0    0 -0.00000000000E+00 -0.00000000000E+00 -0.74505805969E-08  0.93827000000E+00  0.93827000000E+00 0.  1.
     999902    2    1    2    0    0 -0.10760956369E-02 -0.27784053727E-02 -0.17915493405E-01  0.10257684356E+01  0.10256076448E+01 0.  0.
     999903    2    3    3    0    0 -0.43402958087E-01  0.15748543488E-01  0.11777910146E+00  0.13416996418E+00  0.44697082178E-01 0.  0.
         14    1    1    2    0    0  0.10760956369E-02  0.27784053727E-02  0.17915493405E-01  0.18161564420E-01  0.00000000000E+00 0.  1.
     999901    1    3    3    0    0  0.42326862450E-01 -0.18526948861E-01 -0.13569459487E+00  0.89159847140E+00  0.88000000000E+00 0.  1.
        -11    1    4    4    0    0 -0.35782131537E-01 -0.96468844645E-02  0.78051574478E-01  0.86404471625E-01  0.51100000000E-03 0. -1.
         11    1    4    4    0    0 -0.76208265499E-02  0.25395427952E-01  0.39727526984E-01  0.47765492559E-01  0.51100000000E-03 0.  1.
</event>
<event>
 8    1  0.2928569E+004  0.1043930E+01  0.7957747E-01            NaN
         13   -1    0    0    0    0  0.00000000000E+00  0.00000000000E+00  0.74505805969E-08  0.10566000000E+00  0.10566000000E+00 0.  1.
     999900   -1    0    0    0    0 -0.00000000000E+00 -0.00000000000E+00 -0.74505805969E-08  0.93827000000E+00  0.93827000000E+00 0.  1.
     999902    2    1    2    0    0 -0.59267765520E-02 -0.11330666366E-01 -0.41501497338E-02  0.10304862497E+01  0.10303985522E+01 0.  0.
     999903    2    3    3    0    0  0.30938705858E-01 -0.12973733467E+00 -0.14871406970E-01  0.14172635618E+00  0.45565576524E-01 0.  0.
         14    1    1    2    0    0  0.59267765520E-02  0.11330666366E-01  0.41501497338E-02  0.13443750347E-01  0.00000000000E+00 0. -1.
     999901    1    3    3    0    0 -0.36865482410E-01  0.11840666830E+00  0.10721257236E-01  0.88875989347E+00  0.88000000000E+00 0. -1.
        -11    1    4    4    0    0  0.22284248952E-01 -0.79820372725E-01 -0.31113590788E-01  0.88522292706E-01  0.51100000000E-03 0. -1.
         11    1    4    4    0    0  0.86544569060E-02 -0.49916961941E-01  0.16242183818E-01  0.53204063472E-01  0.51100000000E-03 0.  1.
</event>
<event>
 8    1  0.2928569E+004  0.1043930E+01  0.7957747E-01            NaN
         13   -1    0    0    0    0  0.00000000000E+00  0.00000000000E+00  0.74505805969E-08  0.10566000000E+00  0.10566000000E+00 0.  1.
     999900   -1    0    0    0    0 -0.00000000000E+00 -0.00000000000E+00 -0.74505805969E-08  0.93827000000E+00  0.93827000000E+00 0.  1.
     999902    2    1    2    0    0 -0.12200556721E-01  0.63876492835E-02 -0.25475485611E-02  0.10299247991E+01  0.10298295714E+01 0.  0.
     999903    2    3    3    0    0 -0.12437478835E+00 -0.33779107746E-01 -0.38684057837E-01  0.14116033432E+00  0.42657561558E-01 0.  0.
         14    1    1    2    0    0  0.12200556721E-01 -0.63876492835E-02  0.25475485611E-02  0.14005200868E-01  0.00000000000E+00 0.  1.
     999901    1    3    3    0    0  0.11217423163E+00  0.40166757030E-01  0.36136509276E-01  0.88876446481E+00  0.88000000000E+00 0. -1.
        -11    1    4    4    0    0 -0.91906516574E-01 -0.19707332767E-01 -0.46571855950E-01  0.10490179046E+00  0.51100000000E-03 0. -1.
         11    1    4    4    0    0 -0.32468271773E-01 -0.14071774979E-01  0.78877981121E-02  0.36258543862E-01  0.51100000000E-03 0.  1.
</event>
<event>
 8    1  0.2928569E+004  0.1043930E+01  0.7957747E-01            NaN
         13   -1    0    0    0    0  0.00000000000E+00  0.00000000000E+00  0.74505805969E-08  0.10566000000E+00  0.10566000000E+00 0. -1.
     999900   -1    0    0    0    0 -0.00000000000E+00 -0.00000000000E+00 -0.74505805969E-08  0.93827000000E+00  0.93827000000E+00 0.  1.
     999902    2    1    2    0    0  0.12717118308E-01 -0.25807455909E-02 -0.44541019037E-02  0.10302105113E+01  0.10301191549E+01 0.  0.
     999903    2    3    3    0    0  0.83166196696E-01 -0.10071340877E+00 -0.30103239168E-01  0.14158743573E+00  0.45617868960E-01 0.  0.
         14    1    1    2    0    0 -0.12717118308E-01  0.25807455909E-02  0.44541019037E-02  0.13719488680E-01  0.00000000000E+00 0. -1.
     999901    1    3    3    0    0 -0.70449078388E-01  0.98132663183E-01  0.25649137264E-01  0.88862307559E+00  0.88000000000E+00 0. -1.
        -11    1    4    4    0    0  0.35756297097E-01 -0.65416525684E-01  0.14855352901E-02  0.74567436262E-01  0.51100000000E-03 0.  1.
         11    1    4    4    0    0  0.47409899599E-01 -0.35296883090E-01 -0.31588774458E-01  0.67019999468E-01  0.51100000000E-03 0. -1.
</event>
<event>
 8    1  0.2928569E+004  0.1043930E+01  0.7957747E-01            NaN
         13   -1    0    0    0    0  0.00000000000E+00  0.00000000000E+00  0.74505805969E-08  0.10566000000E+00  0.10566000000E+00 0.  1.
     999900   -1    0    0    0    0 -0.00000000000E+00 -0.00000000000E+00 -0.74505805969E-08  0.93827000000E+00  0.93827000000E+00 0.  1.
     999902    2    1    2    0    0  0.17807914454E-02  0.36531280325E-02 -0.12528224085E-01  0.10307590865E+01  0.10306749349E+01 0.  0.
     999903    2    3    3    0    0  0.37734276788E-01 -0.11285317040E+00 -0.60001539015E-01  0.14108494040E+00  0.46314814136E-01 0.  0.
         14    1    1    2    0    0 -0.17807914454E-02 -0.36531280325E-02  0.12528224085E-01  0.13170913458E-01  0.00000000000E+00 0.  1.
     999901    1    3    3    0    0 -0.35953485343E-01  0.11650629844E+00  0.47473314930E-01  0.88967414614E+00  0.88000000000E+00 0. -1.
        -11    1    4    4    0    0 -0.21420197484E-02 -0.53173199446E-01 -0.11472976768E-01  0.54441415346E-01  0.51100000000E-03 0.  1.
         11    1    4    4    0    0  0.39876296536E-01 -0.59679970958E-01 -0.48528562247E-01  0.86643525054E-01  0.51100000000E-03 0. -1.
</event>
<event>
 8    1  0.2928569E+004  0.1043930E+01  0.7957747E-01            NaN
         13   -1    0    0    0    0  0.00000000000E+00  0.00000000000E+00  0.74505805969E-08  0.10566000000E+00  0.10566000000E+00 0.  1.
     999900   -1    0    0    0    0 -0.00000000000E+00 -0.00000000000E+00 -0.74505805969E-08  0.93827000000E+00  0.93827000000E+00 0.  1.
     999902    2    1    2    0    0 -0.13470672758E-01 -0.19197504195E-02  0.14842953837E-02  0.10302425021E+01  0.10301515740E+01 0.  0.
     999903    2    3    3    0    0  0.18429744350E-01  0.10637305944E+00 -0.76337050534E-01  0.13962410392E+00  0.44862700108E-01 0.  0.
         14    1    1    2    0    0  0.13470672758E-01  0.19197504195E-02 -0.14842953837E-02  0.13687497909E-01  0.00000000000E+00 0.  1.
     999901    1    3    3    0    0 -0.31900417108E-01 -0.10829280986E+00  0.77821345917E-01  0.89061839817E+00  0.88000000000E+00 0. -1.
        -11    1    4    4    0    0 -0.11243995076E-01  0.61372726755E-01 -0.33844304928E-01  0.70984062378E-01  0.51100000000E-03 0.  1.
         11    1    4    4    0    0  0.29673739426E-01  0.45000332681E-01 -0.42492745606E-01  0.68640041544E-01  0.51100000000E-03 0. -1.
</event>
<event>
 8    1  0.2928569E+004  0.1043930E+01  0.7957747E-01            NaN
         13   -1    0    0    0    0  0.00000000000E+00  0.00000000000E+00  0.74505805969E-08  0.10566000000E+00  0.10566000000E+00 0. -1.
     999900   -1    0    0    0    0 -0.00000000000E+00 -0.00000000000E+00 -0.74505805969E-08  0.93827000000E+00  0.93827000000E+00 0.  1.
     999902    2    1    2    0    0  0.48473178882E-03 -0.15043682921E-01 -0.69194003497E-03  0.10288626133E+01  0.10287522787E+01 0.  0.
     999903    2    3    3    0    0 -0.10373872323E+00 -0.78553876490E-01  0.25302886873E-01  0.14005903304E+00  0.45209096927E-01 0.  0.
         14    1    1    2    0    0 -0.48473178882E-03  0.15043682921E-01  0.69194003497E-03  0.15067386692E-01  0.00000000000E+00 0. -1.
     999901    1    3    3    0    0  0.10422345502E+00  0.63510193569E-01 -0.25994826908E-01  0.88880358026E+00  0.88000000000E+00 0. -1.
        -11    1    4    4    0    0 -0.52973040084E-01 -0.13549424275E-01  0.16468798047E-01  0.57107024998E-01  0.51100000000E-03 0. -1.
         11    1    4    4    0    0 -0.50765683143E-01 -0.65004452214E-01  0.88340888264E-02  0.82952008047E-01  0.51100000000E-03 0.  1.
</event>
<event>
 8    1  0.2928569E+004  0.1043930E+01  0.7957747E-01            NaN
         13   -1    0    0    0    0  0.00000000000E+00  0.00000000000E+00  0.74505805969E-08  0.10566000000E+00  0.10566000000E+00 0. -1.
     999900   -1    0    0    0    0 -0.00000000000E+00 -0.00000000000E+00 -0.74505805969E-08  0.93827000000E+00  0.93827000000E+00 0. -1.
     999902    2    1    2    0    0 -0.11676293841E-01 -0.51711101490E-02 -0.78122519092E-02  0.10289597796E+01  0.10288508738E+01 0.  0.
     999903    2    3    3    0    0 -0.11483312675E+00  0.50862843671E-01 -0.43117892256E-01  0.14046238267E+00  0.45791401456E-01 0.  0.
         14    1    1    2    0    0  0.11676293841E-01  0.51711101490E-02  0.78122519092E-02  0.14970220370E-01  0.00000000000E+00 0. -1.
     999901    1    3    3    0    0  0.10315683291E+00 -0.56033953820E-01  0.35305640347E-01  0.88849739696E+00  0.88000000000E+00 0. -1.
        -11    1    4    4    0    0 -0.45876664084E-01  0.11909344411E-01 -0.38608629865E-01  0.61134182033E-01  0.51100000000E-03 0. -1.
         11    1    4    4    0    0 -0.68956462670E-01  0.38953499260E-01 -0.45092623912E-02  0.79328200641E-01  0.51100000000E-03 0.  1.
</event>
<event>
 8    1  0.2928569E+004  0.1043930E+01  0.7957747E-01            NaN
         13   -1    0    0    0    0  0.00000000000E+00  0.00000000000E+00  0.74505805969E-08  0.10566000000E+00  0.10566000000E+00 0. -1.
     999900   -1    0    0    0    0 -0.00000000000E+00 -0.00000000000E+00 -0.74505805969E-08  0.93827000000E+00  0.93827000000E+00 0.  1.
     999902    2    1    2    0    0 -0.27760281576E-04 -0.12964764553E-02 -0.12717888474E-01  0.10311461700E+01  0.10310669220E+01 0.  0.
     999903    2    3    3    0    0 -0.11663907553E+00  0.55989593543E-01  0.31346073270E-01  0.14051632244E+00  0.44975015708E-01 0.  0.
         14    1    1    2    0    0  0.27760281576E-04  0.12964764553E-02  0.12717888474E-01  0.12783829984E-01  0.00000000000E+00 0. -1.
     999901    1    3    3    0    0  0.11661131525E+00 -0.57286069998E-01 -0.44063961744E-01  0.89062984757E+00  0.88000000000E+00 0.  1.
        -11    1    4    4    0    0 -0.65559047458E-01  0.48426071621E-01  0.28954315064E-02  0.81558063739E-01  0.51100000000E-03 0.  1.
         11    1    4    4    0    0 -0.51080028073E-01  0.75635219221E-02  0.28450641764E-01  0.58958258706E-01  0.51100000000E-03 0. -1.
</event>
<event>
 8    1  0.2928569E+004  0.1043930E+01  0.7957747E-01            NaN
         13   -1    0    0    0    0  0.00000000000E+00  0.00000000000E+00  0.74505805969E-08  0.10566000000E+00  0.10566000000E+00 0. -1.
     999900   -1    0    0    0    0 -0.00000000000E+00 -0.00000000000E+00 -0.74505805969E-08  0.93827000000E+00  0.93827000000E+00 0. -1.
     999902    2    1    2    0    0  0.10312230621E-02 -0.12397090662E-01  0.51169709301E-02  0.10304788042E+01  0.10303910089E+01 0.  0.
     999903    2    3    3    0    0 -0.66453209434E-01 -0.80695236650E-01 -0.82858660592E-01  0.14089547636E+00  0.45367690707E-01 0.  0.
         14    1    1    2    0    0 -0.10312230621E-02  0.12397090662E-01 -0.51169709301E-02  0.13451195835E-01  0.00000000000E+00 0. -1.
     999901    1    3    3    0    0  0.67484432496E-01  0.68298145988E-01  0.87975631523E-01  0.88958332781E+00  0.88000000000E+00 0.  1.
        -11    1    4    4    0    0 -0.34882250757E-01 -0.14010336773E-01 -0.14438388658E-01  0.40271443262E-01  0.51100000000E-03 0.  1.
         11    1    4    4    0    0 -0.31570958677E-01 -0.66684899877E-01 -0.68420271934E-01  0.10062403309E+00  0.51100000000E-03 0. -1.
</event>
<event>
 8    1  0.2928569E+004  0.1043930E+01  0.7957747E-01            NaN
         13   -1    0    0    0    0  0.00000000000E+00  0.00000000000E+00  0.74505805969E-08  0.10566000000E+00  0.10566000000E+00 0. -1.
     999900   -1    0    0    0    0 -0.00000000000E+00 -0.00000000000E+00 -0.74505805969E-08  0.93827000000E+00  0.93827000000E+00 0. -1.
     999902    2    1    2    0    0 -0.80029089152E-03 -0.59254102111E-02  0.99950190118E-02  0.10322830538E+01  0.10322173471E+01 0.  0.
     999903    2    3    3    0    0 -0.91675140145E-01 -0.77607675465E-01 -0.61394639579E-01  0.14183762099E+00  0.43832936801E-01 0.  0.
         14    1    1    2    0    0  0.80029089152E-03  0.59254102111E-02 -0.99950190118E-02  0.11646946240E-01  0.00000000000E+00 0.  1.
     999901    1    3    3    0    0  0.90874849254E-01  0.71682265254E-01  0.71389658591E-01  0.89044543277E+00  0.88000000000E+00 0.  1.
        -11    1    4    4    0    0 -0.59959054922E-01 -0.23604643091E-01 -0.39008256425E-01  0.75327104238E-01  0.51100000000E-03 0.  1.
         11    1    4    4    0    0 -0.31716085224E-01 -0.54003032374E-01 -0.22386383154E-01  0.66510516756E-01  0.51100000000E-03 0. -1.
</event>
<event>
 8    1  0.2928569E+004  0.1043930E+01  0.7957747E-01            NaN
         13   -1    0    0    0    0  0.00000000000E+00  0.00000000000E+00  0.74505805969E-08  0.10566000000E+00  0.10566000000E+00 0.  1.
     999900   -1    0    0    0    0 -0.00000000000E+00 -0.00000000000E+00 -0.74505805969E-08  0.93827000000E+00  0.93827000000E+00 0.  1.
     999902    2    1    2    0    0  0.13850713011E-01  0.19491941449E-02 -0.99587347883E-03  0.10299073978E+01  0.10298119317E+01 0.  0.
     999903    2    3    3    0    0  0.75911945796E-01  0.55513347387E-01  0.94825815523E-01  0.14091779650E+00  0.44961481592E-01 0.  0.
         14    1    1    2    0    0 -0.13850713011E-01 -0.19491941449E-02  0.99587347883E-03  0.14022602209E-01  0.00000000000E+00 0. -1.
     999901    1    3    3    0    0 -0.62061232785E-01 -0.53564153242E-01 -0.95821689002E-01  0.88898960129E+00  0.88000000000E+00 0. -1.
        -11    1    4    4    0    0  0.34095817838E-01  0.28183356393E-01  0.14933165499E-01  0.46691400969E-01  0.51100000000E-03 0. -1.
         11    1    4    4    0    0  0.41816127958E-01  0.27329990994E-01  0.79892650024E-01  0.94226395527E-01  0.51100000000E-03 0.  1.
</event>
<event>
 8    1  0.2928569E+004  0.1043930E+01  0.7957747E-01            NaN
         13   -1    0    0    0    0  0.00000000000E+00  0.00000000000E+00  0.74505805969E-08  0.10566000000E+00  0.10566000000E+00 0.  1.
     999900   -1    0    0    0    0 -0.00000000000E+00 -0.00000000000E+00 -0.74505805969E-08  0.93827000000E+00  0.93827000000E+00 0. -1.
     999902    2    1    2    0    0 -0.24387536061E-02 -0.13742289605E-02  0.13368013904E-01  0.10302720419E+01  0.10301815085E+01 0.  0.
     999903    2    3    3    0    0 -0.94166004638E-01 -0.93769539736E-01  0.63807678049E-02  0.14066560999E+00  0.45674244666E-01 0.  0.
         14    1    1    2    0    0  0.24387536061E-02  0.13742289605E-02 -0.13368013904E-01  0.13657958125E-01  0.00000000000E+00 0. -1.
     999901    1    3    3    0    0  0.91727251032E-01  0.92395310775E-01  0.69872460995E-02  0.88960643188E+00  0.88000000000E+00 0. -1.
        -11    1    4    4    0    0 -0.32404987170E-01 -0.63361681846E-01 -0.27367139354E-02  0.71221742776E-01  0.51100000000E-03 0. -1.
         11    1    4    4    0    0 -0.61761017468E-01 -0.30407857890E-01  0.91174817402E-02  0.69443867219E-01  0.51100000000E-03 0.  1.
</event>
<event>
 8    1  0.2928569E+004  0.1043930E+01  0.7957747E-01            NaN
         13   -1    0    0    0    0  0.00000000000E+00  0.00000000000E+00  0.74505805969E-08  0.10566000000E+00  0.10566000000E+00 0. -1.
     999900   -1    0    0    0    0 -0.00000000000E+00 -0.00000000000E+00 -0.74505805969E-08  0.93827000000E+00  0.93827000000E+00 0.  1.
     999902    2    1    2    0    0 -0.87982710789E-02  0.11003049405E-01  0.65070374940E-02  0.10284116816E+01  0.10282945923E+01 0.  0.
     999903    2    3    3    0    0 -0.68524947312E-01 -0.24053999676E-01 -0.10843529724E+00  0.13823865745E+00  0.45579045863E-01 0.  0.
         14    1    1    2    0    0  0.87982710789E-02 -0.11003049405E-01 -0.65070374940E-02  0.15518318438E-01  0.00000000000E+00 0.  1.
     999901    1    3    3    0    0  0.59726676233E-01  0.35057049081E-01  0.11494233473E+00  0.89017302411E+00  0.88000000000E+00 0. -1.
        -11    1    4    4    0    0 -0.17527323331E-01  0.87001343490E-02 -0.51438887360E-01  0.55037438664E-01  0.51100000000E-03 0.  1.
         11    1    4    4    0    0 -0.50997623982E-01 -0.32754134025E-01 -0.56996409878E-01  0.83201218786E-01  0.51100000000E-03 0. -1.
</event>
<event>
 8    1  0.2928569E+004  0.1043930E+01  0.7957747E-01            NaN
         13   -1    0    0    0    0  0.00000000000E+00  0.00000000000E+00  0.74505805969E-08  0.10566000000E+00  0.10566000000E+00 0.  1.
     999900   -1    0    0    0    0 -0.00000000000E+00 -0.00000000000E+00 -0.74505805969E-08  0.93827000000E+00  0.93827000000E+00 0.  1.
     999902    2    1    2    0    0 -0.40572492418E-02 -0.10120986647E-01 -0.86128412835E-02  0.10300347966E+01  0.10299410690E+01 0.  0.
     999903    2    3    3    0    0  0.11211277521E+00  0.33190280870E-01 -0.62179375812E-01  0.13973107648E+00  0.44582842525E-01 0.  0.
         14    1    1    2    0    0  0.40572492418E-02  0.10120986647E-01  0.86128412835E-02  0.13895203385E-01  0.00000000000E+00 0. -1.
     999901    1    3    3    0    0 -0.11617002445E+00 -0.43311267517E-01  0.53566534529E-01  0.89030372014E+00  0.88000000000E+00 0. -1.
        -11    1    4    4    0    0  0.85693285553E-01  0.22489263017E-01 -0.66658259925E-01  0.11087240810E+00  0.51100000000E-03 0.  1.
         11    1    4    4    0    0  0.26419489654E-01  0.10701017854E-01  0.44788841129E-02  0.28858668378E-01  0.51100000000E-03 0. -1.
</event>
<event>
 8    1  0.2928569E+004  0.1043930E+01  0.7957747E-01            NaN
         13   -1    0    0    0    0  0.00000000000E+00  0.00000000000E+00  0.74505805969E-08  0.10566000000E+00  0.10566000000E+00 0.  1.
     999900   -1    0    0    0    0 -0.00000000000E+00 -0.00000000000E+00 -0.74505805969E-08  0.93827000000E+00  0.93827000000E+00 0.  1.
     999902    2    1    2    0    0 -0.12441179287E-01  0.99904463309E-02 -0.71868872129E-02  0.10264301912E+01  0.10262810015E+01 0.  0.
     999903    2    3    3    0    0 -0.21415906615E-01  0.61460655816E-02  0.12664476810E+00  0.13625816460E+00  0.45066339474E-01 0.  0.
         14    1    1    2    0    0  0.12441179287E-01 -0.99904463309E-02  0.71868872129E-02  0.17499808792E-01  0.00000000000E+00 0. -1.
     999901    1    3    3    0    0  0.89747273277E-02  0.38443807493E-02 -0.13383165532E+00  0.89017202661E+00  0.88000000000E+00 0.  1.
        -11    1    4    4    0    0 -0.15260185704E-01  0.25537838163E-01  0.69673422456E-01  0.75760816809E-01  0.51100000000E-03 0. -1.
         11    1    4    4    0    0 -0.61557209107E-02 -0.19391772581E-01  0.56971345647E-01  0.60497347790E-01  0.51100000000E-03 0.  1.
</event>
<event>
 8    1  0.2928569E+004  0.1043930E+01  0.7957747E-01            NaN
         13   -1    0    0    0    0  0.00000000000E+00  0.00000000000E+00  0.74505805969E-08  0.10566000000E+00  0.10566000000E+00 0. -1.
     999900   -1    0    0    0    0 -0.00000000000E+00 -0.00000000000E+00 -0.74505805969E-08  0.93827000000E+00  0.93827000000E+00 0. -1.
     999902    2    1    2    0    0 -0.10284084716E-01 -0.22921890647E-02 -0.88862572272E-02  0.10301466007E+01  0.10300543854E+01 0.  0.
     999903    2    3    3    0    0 -0.98264441129E-01  0.14108528850E-01  0.88194559329E-01  0.14029593254E+00  0.45273804946E-01 0.  0.
         14    1    1    2    0    0  0.10284084716E-01  0.22921890647E-02  0.88862572272E-02  0.13783399315E-01  0.00000000000E+00 0. -1.
     999901    1    3    3    0    0  0.87980356412E-01 -0.16400717915E-01 -0.97080816556E-01  0.88985066815E+00  0.88000000000E+00 0. -1.
        -11    1    4    4    0    0 -0.93147535344E-01  0.67543525648E-02  0.91487067214E-01  0.13073725256E+00  0.51100000000E-03 0.  1.
         11    1    4    4    0    0 -0.51169057846E-02  0.73541762854E-02 -0.32925078858E-02  0.95586799728E-02  0.51100000000E-03 0. -1.
</event>
<event>
 8    1  0.2928569E+004  0.1043930E+01  0.7957747E-01            NaN
         13   -1    0    0    0    0  0.00000000000E+00  0.00000000000E+00  0.74505805969E-08  0.10566000000E+00  0.10566000000E+00 0.  1.
     999900   -1    0    0    0    0 -0.00000000000E+00 -0.00000000000E+00 -0.74505805969E-08  0.93827000000E+00  0.93827000000E+00 0.  1.
     999902    2    1    2    0    0  0.42161902737E-02 -0.66145366479E-02  0.11870336990E-01  0.10297020959E+01  0.10296037942E+01 0.  0.
     999903    2    3    3    0    0 -0.37936490646E-01  0.11778033931E+00  0.45524793522E-01  0.13931815840E+00  0.45007297021E-01 0.  0.
         14    1    1    2    0    0 -0.42161902737E-02  0.66145366479E-02 -0.11870336990E-01  0.14227904124E-01  0.00000000000E+00 0. -1.
     999901    1    3    3    0    0  0.42152680919E-01 -0.12439487595E+00 -0.33654456532E-01  0.89038393748E+00  0.88000000000E+00 0. -1.
        -11    1    4    4    0    0 -0.99967044001E-03  0.67376951036E-01  0.12147980542E-01  0.68472530435E-01  0.51100000000E-03 0.  1.
         11    1    4    4    0    0 -0.36936820206E-01  0.50403388270E-01  0.33376812981E-01  0.70845627965E-01  0.51100000000E-03 0. -1.
</event>
<event>
 8    1  0.2928569E+004  0.1043930E+01  0.7957747E-01            NaN
         13   -1    0    0    0    0  0.00000000000E+00  0.00000000000E+00  0.74505805969E-08  0.10566000000E+00  0.10566000000E+00 0.  1.
     999900   -1    0    0    0    0 -0.00000000000E+00 -0.00000000000E+00 -0.74505805969E-08  0.93827000000E+00  0.93827000000E+00 0. -1.
     999902    2    1    2    0    0  0.70786409750E-02  0.11248531106E-01  0.38100620146E-03  0.10306340692E+01  0.10305483020E+01 0.  0.
     999903    2    3    3    0    0 -0.11784130236E+00  0.61064046480E-01 -0.11027448746E-01  0.14034381841E+00  0.44265024858E-01 0.  0.
         14    1    1    2    0    0 -0.70786409750E-02 -0.11248531106E-01 -0.38100620146E-03  0.13295930799E-01  0.00000000000E+00 0. -1.
     999901    1    3    3    0    0  0.12491994333E+00 -0.49815515374E-01  0.11408454947E-01  0.89029025079E+00  0.88000000000E+00 0. -1.
        -11    1    4    4    0    0 -0.60200366615E-01  0.95929003755E-02 -0.15611238678E-01  0.62929164720E-01  0.51100000000E-03 0.  1.
         11    1    4    4    0    0 -0.57640935741E-01  0.51471146104E-01  0.45837899326E-02  0.77414653687E-01  0.51100000000E-03 0. -1.
</event>
<event>
 8    1  0.2928569E+004  0.1043930E+01  0.7957747E-01            NaN
         13   -1    0    0    0    0  0.00000000000E+00  0.00000000000E+00  0.74505805969E-08  0.10566000000E+00  0.10566000000E+00 0.  1.
     999900   -1    0    0    0    0 -0.00000000000E+00 -0.00000000000E+00 -0.74505805969E-08  0.93827000000E+00  0.93827000000E+00 0.  1.
     999902    2    1    2    0    0  0.92659993263E-02 -0.22090955953E-02 -0.92494686639E-02  0.10306525184E+01  0.10305669906E+01 0.  0.
     999903    2    3    3    0    0  0.11946679533E+00 -0.12861092164E-01 -0.61354912482E-01  0.14218605436E+00  0.44885698058E-01 0.  0.
         14    1    1    2    0    0 -0.92659993263E-02  0.22090955953E-02  0.92494686639E-02  0.13277481592E-01  0.00000000000E+00 0.  1.
     999901    1    3    3    0    0 -0.11020079600E+00  0.10651996569E-01  0.52105443818E-01  0.88846646405E+00  0.88000000000E+00 0.  1.
        -11    1    4    4    0    0  0.20047361985E-01  0.32812830788E-02 -0.30857693495E-01  0.36947556212E-01  0.51100000000E-03 0. -1.
         11    1    4    4    0    0  0.99419433343E-01 -0.16142375243E-01 -0.30497218987E-01  0.10523849814E+00  0.51100000000E-03 0.  1.
</event>
<event>
 8    1  0.2928569E+004  0.1043930E+01  0.7957747E-01            NaN
         13   -1    0    0    0    0  0.00000000000E+00  0.00000000000E+00  0.74505805969E-08  0.10566000000E+00  0.10566000000E+00 0.  1.
     999900   -1    0    0    0    0 -0.00000000000E+00 -0.00000000000E+00 -0.74505805969E-08  0.93827000000E+00  0.93827000000E+00 0.  1.
     999902    2    1    2    0    0 -0.13673071405E-01 -0.45838678577E-03  0.15772260554E-02  0.10301586296E+01  0.10300665763E+01 0.  0.
     999903    2    3    3    0    0 -0.79792993202E-01 -0.87074535158E-01  0.63260333491E-01  0.14129474411E+00  0.44871354822E-01 0.  0.
         14    1    1    2    0    0  0.13673071405E-01  0.45838678577E-03 -0.15772260554E-02  0.13771370379E-01  0.00000000000E+00 0. -1.
     999901    1    3    3    0    0  0.66119921797E-01  0.86616148372E-01 -0.61683107435E-01  0.88886388551E+00  0.88000000000E+00 0.  1.
        -11    1    4    4    0    0 -0.18777554801E-01 -0.14125305300E-01  0.34856510263E-01  0.42039960071E-01  0.51100000000E-03 0. -1.
         11    1    4    4    0    0 -0.61015438401E-01 -0.72949229858E-01  0.28403823228E-01  0.99254784042E-01  0.51100000000E-03 0.  1.
</event>
<event>
 8    1  0.2928569E+004  0.1043930E+01  0.7957747E-01            NaN
         13   -1    0    0    0    0  0.00000000000E+00  0.00000000000E+00  0.74505805969E-08  0.10566000000E+00  0.10566000000E+00 0. -1.
     999900   -1    0    0    0    0 -0.00000000000E+00 -0.00000000000E+00 -0.74505805969E-08  0.93827000000E+00  0.93827000000E+00 0. -1.
     999902    2    1    2    0    0  0.63604102181E-02 -0.61015907716E-02  0.11359750427E-01  0.10295519557E+01  0.10294515537E+01 0.  0.
     999903    2    3    3    0    0  0.13049797487E+00  0.67128847086E-02 -0.23103840624E-01  0.14007903040E+00  0.44872742728E-01 0.  0.
         14    1    1    2    0    0 -0.63604102181E-02  0.61015907716E-02 -0.11359750427E-01  0.14378044299E-01  0.00000000000E+00 0.  1.
     999901    1    3    3    0    0 -0.12413756465E+00 -0.12814475480E-01  0.34463591051E-01  0.88947292530E+00  0.88000000000E+00 0.  1.
        -11    1    4    4    0    0  0.75139356897E-01 -0.18395850955E-01 -0.12037206831E-01  0.78291032414E-01  0.51100000000E-03 0.  1.
         11    1    4    4    0    0  0.55358617971E-01  0.25108735664E-01 -0.11066633793E-01  0.61787997984E-01  0.51100000000E-03 0. -1.
</event>
<event>
 8    1  0.2928569E+004  0.1043930E+01  0.7957747E-01            NaN
         13   -1    0    0    0    0  0.00000000000E+00  0.00000000000E+00  0.74505805969E-08  0.10566000000E+00  0.10566000000E+00 0. -1.
     999900   -1    0    0    0    0 -0.00000000000E+00 -0.00000000000E+00 -0.74505805969E-08  0.93827000000E+00  0.93827000000E+00 0.  1.
     999902    2    1    2    0    0  0.23538257594E-02 -0.18461552049E-02  0.13530621812E-01  0.10300726369E+01  0.10299794225E+01 0.  0.
     999903    2    3    3    0    0 -0.51814089861E-01 -0.53716978455E-01  0.11128271990E+00  0.14148937236E+00  0.45444307223E-01 0.  0.
         14    1    1    2    0    0 -0.23538257594E-02  0.18461552049E-02 -0.13530621812E-01  0.13857363075E-01  0.00000000000E+00 0.  1.
     999901    1    3    3    0    0  0.54167915621E-01  0.51870823250E-01 -0.97752098090E-01  0.88858326457E+00  0.88000000000E+00 0. -1.
        -11    1    4    4    0    0 -0.39848459106E-01 -0.31226665187E-01  0.36304819484E-01  0.62300123199E-01  0.51100000000E-03 0. -1.
         11    1    4    4    0    0 -0.11965630755E-01 -0.22490313269E-01  0.74977900419E-01  0.79189249160E-01  0.51100000000E-03 0.  1.
</event>
<event>
 8    1  0.2928569E+004  0.1043930E+01  0.7957747E-01            NaN
         13   -1    0    0    0    0  0.00000000000E+00  0.00000000000E+00  0.74505805969E-08  0.10566000000E+00  0.10566000000E+00 0.  1.
     999900   -1    0    0    0    0 -0.00000000000E+00 -0.00000000000E+00 -0.74505805969E-08  0.93827000000E+00  0.93827000000E+00 0.  1.
     999902    2    1    2    0    0  0.12105007280E-01 -0.78108849738E-02  0.47763652557E-02  0.10287525565E+01  0.10286405921E+01 0.  0.
     999903    2    3    3    0    0  0.71906177680E-01 -0.62503972685E-01 -0.91833884115E-01  0.13976377476E+00  0.44980056396E-01 0.  0.
         14    1    1    2    0    0 -0.12105007280E-01  0.78108849738E-02 -0.47763652557E-02  0.15177443473E-01  0.00000000000E+00 0.  1.
     999901    1    3    3    0    0 -0.59801170401E-01  0.54693087711E-01  0.96610249371E-01  0.88898878177E+00  0.88000000000E+00 0. -1.
        -11    1    4    4    0    0  0.16610235495E-01 -0.42636816903E-01 -0.31563517816E-01  0.55590600436E-01  0.51100000000E-03 0.  1.
         11    1    4    4    0    0  0.55295942185E-01 -0.19867155782E-01 -0.60270366299E-01  0.84173174324E-01  0.51100000000E-03 0. -1.
</event>
<event>
 8    1  0.2928569E+004  0.1043930E+01  0.7957747E-01            NaN
         13   -1    0    0    0    0  0.00000000000E+00  0.00000000000E+00  0.74505805969E-08  0.10566000000E+00  0.10566000000E+00 0.  1.
     999900   -1    0    0    0    0 -0.00000000000E+00 -0.00000000000E+00 -0.74505805969E-08  0.93827000000E+00  0.93827000000E+00 0. -1.
     999902    2    1    2    0    0 -0.65603520652E-02  0.87849433734E-02 -0.65028421757E-02  0.10311824353E+01  0.10311036391E+01 0.  0.
     999903    2    3    3    0    0  0.14171126262E-01 -0.11994173265E+00  0.53151588401E-01  0.13957770091E+00  0.45497287710E-01 0.  0.
         14    1    1    2    0    0  0.65603520652E-02 -0.87849433734E-02  0.65028421757E-02  0.12747564695E-01  0.00000000000E+00 0.  1.
     999901    1    3    3    0    0 -0.20731478328E-01  0.12872667603E+00 -0.59654430576E-01  0.89160473440E+00  0.88000000000E+00 0. -1.
        -11    1    4    4    0    0  0.14090965032E-01 -0.55626205691E-01  0.48424228062E-01  0.75086596937E-01  0.51100000000E-03 0. -1.
         11    1    4    4    0    0  0.80161230051E-04 -0.64315526963E-01  0.47273603389E-02  0.64491103969E-01  0.51100000000E-03 0.  1.
</event>
<event>
 8    1  0.2928569E+004  0.1043930E+01  0.7957747E-01            NaN
         13   -1    0    0    0    0  0.00000000000E+00  0.00000000000E+00  0.74505805969E-08  0.10566000000E+00  0.10566000000E+00 0.  1.
     999900   -1    0    0    0    0 -0.00000000000E+00 -0.00000000000E+00 -0.74505805969E-08  0.93827000000E+00  0.93827000000E+00 0. -1.
     999902    2    1    2    0    0  0.82468587337E-02 -0.13046782508E-01  0.43272954916E-04  0.10284952637E+01  0.10283794418E+01 0.  0.
     999903    2    3    3    0    0 -0.44368747467E-01  0.10555074016E+00 -0.60242299271E-01  0.13694149378E+00  0.44880882306E-01 0.  0.
         14    1    1    2    0    0 -0.82468587337E-02  0.13046782508E-01 -0.43272954916E-04  0.15434736322E-01  0.00000000000E+00 0.  1.
     999901    1    3    3    0    0  0.52615606200E-01 -0.11859752267E+00  0.60285572226E-01  0.89155376990E+00  0.88000000000E+00 0. -1.
        -11    1    4    4    0    0 -0.24668822041E-01  0.39364178098E-01 -0.48010876206E-01  0.66808642055E-01  0.51100000000E-03 0. -1.
         11    1    4    4    0    0 -0.19699925426E-01  0.66186562067E-01 -0.12231423065E-01  0.70132851726E-01  0.51100000000E-03 0.  1.
</event>
<event>
 8    1  0.2928569E+004  0.1043930E+01  0.7957747E-01            NaN
         13   -1    0    0    0    0  0.00000000000E+00  0.00000000000E+00  0.74505805969E-08  0.10566000000E+00  0.10566000000E+00 0. -1.
     999900   -1    0    0    0    0 -0.00000000000E+00 -0.00000000000E+00 -0.74505805969E-08  0.93827000000E+00  0.93827000000E+00 0.  1.
     999902    2    1    2    0    0 -0.12471280948E-01 -0.50945686918E-02 -0.24745394993E-02  0.10302328899E+01  0.10301418333E+01 0.  0.
     999903    2    3    3    0    0 -0.33944443957E-01 -0.71113302725E-01 -0.10787485459E+00  0.14122850501E+00  0.45816801235E-01 0.  0.
         14    1    1    2    0    0  0.12471280948E-01  0.50945686918E-02  0.24745394993E-02  0.13697110074E-01  0.00000000000E+00 0.  1.
     999901    1    3    3    0    0  0.21473163009E-01  0.66018734033E-01  0.10540031509E+00  0.88900438491E+00  0.88000000000E+00 0. -1.
        -11    1    4    4    0    0 -0.28557624627E-01 -0.19518828422E-01 -0.22307081283E-01  0.41162963738E-01  0.51100000000E-03 0.  1.
         11    1    4    4    0    0 -0.53868193306E-02 -0.51594474303E-01 -0.85567773307E-01  0.10006554128E+00  0.51100000000E-03 0. -1.
</event>
<event>
 8    1  0.2928569E+004  0.1043930E+01  0.7957747E-01            NaN
         13   -1    0    0    0    0  0.00000000000E+00  0.00000000000E+00  0.74505805969E-08  0.10566000000E+00  0.10566000000E+00 0.  1.
     999900   -1    0    0    0    0 -0.00000000000E+00 -0.00000000000E+00 -0.74505805969E-08  0.93827000000E+00  0.93827000000E+00 0.  1.
     999902    2    1    2    0    0 -0.22450766020E-02 -0.13163487800E-01 -0.70875274831E-03  0.10305576363E+01  0.10304708738E+01 0.  0.
     999903    2    3    3    0    0 -0.87584145184E-01  0.93231211012E-01  0.33453493696E-01  0.13939567144E+00  0.44147205813E-01 0.  0.
         14    1    1    2    0    0  0.22450766020E-02  0.13163487800E-01  0.70875274831E-03  0.13372363683E-01  0.00000000000E+00 0.  1.
     999901    1    3    3    0    0  0.85339068582E-01 -0.10639469881E+00 -0.34162246445E-01  0.89116196488E+00  0.88000000000E+00 0. -1.
        -11    1    4    4    0    0 -0.18643433456E-01  0.47497662970E-01  0.23116718701E-01  0.56020080357E-01  0.51100000000E-03 0. -1.
         11    1    4    4    0    0 -0.68940711728E-01  0.45733548042E-01  0.10336774995E-01  0.83375591083E-01  0.51100000000E-03 0.  1.
</event>
<event>
 8    1  0.2928569E+004  0.1043930E+01  0.7957747E-01            NaN
         13   -1    0    0    0    0  0.00000000000E+00  0.00000000000E+00  0.74505805969E-08  0.10566000000E+00  0.10566000000E+00 0.  1.
     999900   -1    0    0    0    0 -0.00000000000E+00 -0.00000000000E+00 -0.74505805969E-08  0.93827000000E+00  0.93827000000E+00 0. -1.
     999902    2    1    2    0    0 -0.44248999458E-02 -0.83256534042E-02 -0.98638335589E-02  0.10302848010E+01  0.10301944378E+01 0.  0.
     999903    2    3    3    0    0 -0.95123820832E-01  0.15689113144E-01 -0.93111458970E-01  0.14139044819E+00  0.45020278623E-01 0.  0.
         14    1    1    2    0    0  0.44248999458E-02  0.83256534042E-02  0.98638335589E-02  0.13645199032E-01  0.00000000000E+00 0.  1.
     999901    1    3    3    0    0  0.90698920886E-01 -0.24014766549E-01  0.83247625411E-01  0.88889435278E+00  0.88000000000E+00 0. -1.
        -11    1    4    4    0    0 -0.20766210923E-01 -0.12183277472E-01 -0.89841752678E-02  0.25703001620E-01  0.51100000000E-03 0.  1.
         11    1    4    4    0    0 -0.74357609909E-01  0.27872390616E-01 -0.84127283702E-01  0.11568744657E+00  0.51100000000E-03 0. -1.
</event>
<event>
 8    1  0.2928569E+004  0.1043930E+01  0.7957747E-01            NaN
         13   -1    0    0    0    0  0.00000000000E+00  0.00000000000E+00  0.74505805969E-08  0.10566000000E+00  0.10566000000E+00 0. -1.
     999900   -1    0    0    0    0 -0.00000000000E+00 -0.00000000000E+00 -0.74505805969E-08  0.93827000000E+00  0.93827000000E+00 0. -1.
     999902    2    1    2    0    0  0.54033898503E-02 -0.10537261484E-01  0.55715532319E-02  0.10308428801E+01  0.10307598027E+01 0.  0.
     999903    2    3    3    0    0 -0.62628468579E-01  0.49780035120E-01  0.10613121149E+00  0.14046163879E+00  0.45445142165E-01 0.  0.
         14    1    1    2    0    0 -0.54033898503E-02  0.10537261484E-01 -0.55715532319E-02  0.13087119885E-01  0.00000000000E+00 0.  1.
     999901    1    3    3    0    0  0.68031858429E-01 -0.60317296605E-01 -0.10055965826E+00  0.89038124132E+00  0.88000000000E+00 0.  1.
        -11    1    4    4    0    0 -0.23170254383E-01  0.32519864163E-01  0.81716747140E-01  0.90952131022E-01  0.51100000000E-03 0. -1.
         11    1    4    4    0    0 -0.39458214197E-01  0.17260170958E-01  0.24414464351E-01  0.49509507770E-01  0.51100000000E-03 0.  1.
</event>
<event>
 8    1  0.2928569E+004  0.1043930E+01  0.7957747E-01            NaN
         13   -1    0    0    0    0  0.00000000000E+00  0.00000000000E+00  0.74505805969E-08  0.10566000000E+00  0.10566000000E+00 0.  1.
     999900   -1    0    0    0    0 -0.00000000000E+00 -0.00000000000E+00 -0.74505805969E-08  0.93827000000E+00  0.93827000000E+00 0. -1.
     999902    2    1    2    0    0 -0.11848143222E-01 -0.56361077369E-02 -0.53469767207E-02  0.10297619243E+01  0.10296644533E+01 0.  0.
     999903    2    3    3    0    0 -0.16516009659E-01 -0.10469562885E+00 -0.81307053755E-01  0.14093994496E+00  0.44936375249E-01 0.  0.
         14    1    1    2    0    0  0.11848143222E-01  0.56361077369E-02  0.53469767207E-02  0.14168075673E-01  0.00000000000E+00 0.  1.
     999901    1    3    3    0    0  0.46678664376E-02  0.99059521111E-01  0.75960077034E-01  0.88882197937E+00  0.88000000000E+00 0.  1.
        -11    1    4    4    0    0 -0.80111039687E-02 -0.34421977640E-02 -0.21086960234E-01  0.22824274910E-01  0.51100000000E-03 0. -1.
         11    1    4    4    0    0 -0.85049056904E-02 -0.10125343108E+00 -0.60220093521E-01  0.11811567005E+00  0.51100000000E-03 0.  1.
</event>
<event>
 8    1  0.2928569E+004  0.1043930E+01  0.7957747E-01            NaN
         13   -1    0    0    0    0  0.00000000000E+00  0.00000000000E+00  0.74505805969E-08  0.10566000000E+00  0.10566000000E+00 0. -1.
     999900   -1    0    0    0    0 -0.00000000000E+00 -0.00000000000E+00 -0.74505805969E-08  0.93827000000E+00  0.93827000000E+00 0.  1.
     999902    2    1    2    0    0 -0.44707389916E-02 -0.28102679452E-03  0.28473835564E-02  0.10386220742E+01  0.10386085109E+01 0.  0.
     999903    2    3    3    0    0 -0.68526306095E-01  0.75035643860E-01  0.98307033265E-01  0.14795476186E+00  0.43590552759E-01 0.  0.
         14    1    1    2    0    0  0.44707389916E-02  0.28102679452E-03 -0.28473835564E-02  0.53079258009E-02  0.00000000000E+00 0.  1.
     999901    1    3    3    0    0  0.64055567103E-01 -0.75316670654E-01 -0.95459649709E-01  0.89066731234E+00  0.88000000000E+00 0.  1.
        -11    1    4    4    0    0 -0.51699285745E-01  0.25503440810E-01  0.43773587381E-01  0.72385286578E-01  0.51100000000E-03 0. -1.
         11    1    4    4    0    0 -0.16827020350E-01  0.49532203049E-01  0.54533445884E-01  0.75569475278E-01  0.51100000000E-03 0.  1.
</event>
<event>
 8    1  0.2928569E+004  0.1043930E+01  0.7957747E-01            NaN
         13   -1    0    0    0    0  0.00000000000E+00  0.00000000000E+00  0.74505805969E-08  0.10566000000E+00  0.10566000000E+00 0. -1.
     999900   -1    0    0    0    0 -0.00000000000E+00 -0.00000000000E+00 -0.74505805969E-08  0.93827000000E+00  0.93827000000E+00 0.  1.
     999902    2    1    2    0    0 -0.42638300697E-02  0.42078414586E-02  0.12844287847E-01  0.10297574241E+01  0.10296598908E+01 0.  0.
     999903    2    3    3    0    0 -0.45549618534E-01 -0.66141063435E-01  0.10699111580E+00  0.14098461291E+00  0.44498923535E-01 0.  0.
         14    1    1    2    0    0  0.42638300697E-02 -0.42078414586E-02 -0.12844287847E-01  0.14172575874E-01  0.00000000000E+00 0.  1.
     999901    1    3    3    0    0  0.41285788465E-01  0.70348904894E-01 -0.94146827952E-01  0.88877281122E+00  0.88000000000E+00 0.  1.
        -11    1    4    4    0    0 -0.44679998724E-01 -0.45471169362E-01  0.52133721815E-01  0.82353601017E-01  0.51100000000E-03 0. -1.
         11    1    4    4    0    0 -0.86961981027E-03 -0.20669894073E-01  0.54857393984E-01  0.58631011890E-01  0.51100000000E-03 0.  1.
</event>
<event>
 8    1  0.2928569E+004  0.1043930E+01  0.7957747E-01            NaN
         13   -1    0    0    0    0  0.00000000000E+00  0.00000000000E+00  0.74505805969E-08  0.10566000000E+00  0.10566000000E+00 0. -1.
     999900   -1    0    0    0    0 -0.00000000000E+00 -0.00000000000E+00 -0.74505805969E-08  0.93827000000E+00  0.93827000000E+00 0.  1.
     999902    2    1    2    0    0  0.67721455633E-02 -0.69252430839E-02 -0.87201869189E-02  0.10308968650E+01  0.10308144759E+01 0.  0.
     999903    2    3    3    0    0 -0.97072039262E-01 -0.21698652079E-01 -0.89227013788E-01  0.14101866128E+00  0.45066512298E-01 0.  0.
         14    1    1    2    0    0 -0.67721455633E-02  0.69252430839E-02  0.87201869189E-02  0.13033134972E-01  0.00000000000E+00 0. -1.
     999901    1    3    3    0    0  0.10384418483E+00  0.14773408996E-01  0.80506826869E-01  0.88987820375E+00  0.88000000000E+00 0. -1.
        -11    1    4    4    0    0 -0.68048173497E-01 -0.30375236357E-01 -0.43877160755E-01  0.86479334277E-01  0.51100000000E-03 0. -1.
         11    1    4    4    0    0 -0.29023865765E-01  0.86765842776E-02 -0.45349853033E-01  0.54539327002E-01  0.51100000000E-03 0.  1.
</event>
<event>
 8    1  0.2928569E+004  0.1043930E+01  0.7957747E-01            NaN
         13   -1    0    0    0    0  0.00000000000E+00  0.00000000000E+00  0.74505805969E-08  0.10566000000E+00  0.10566000000E+00 0. -1.
     999900   -1    0    0    0    0 -0.00000000000E+00 -0.00000000000E+00 -0.74505805969E-08  0.93827000000E+00  0.93827000000E+00 0. -1.
     999902    2    1    2    0    0  0.17531666957E-02 -0.11259720651E-01  0.76607127820E-02  0.10301989613E+01  0.10301074500E+01 0.  0.
     999903    2    3    3    0    0  0.48088915271E-01  0.53592604558E-01 -0.10965577462E+00  0.13884270040E+00  0.45477417618E-01 0.  0.
         14    1    1    2    0    0 -0.17531666957E-02  0.11259720651E-01 -0.76607127820E-02  0.13731038669E-01  0.00000000000E+00 0. -1.
     999901    1    3    3    0    0 -0.46335748575E-01 -0.64852325210E-01  0.11731648740E+00  0.89135626093E+00  0.88000000000E+00 0.  1.
        -11    1    4    4    0    0  0.31268071555E-02  0.34273006670E-01 -0.31668618255E-01  0.46771555590E-01  0.51100000000E-03 0.  1.
         11    1    4    4    0    0  0.44962108115E-01  0.19319597889E-01 -0.77987156360E-01  0.92071144812E-01  0.51100000000E-03 0. -1.
</event>
<event>
 8    1  0.2928569E+004  0.1043930E+01  0.7957747E-01            NaN
         13   -1    0    0    0    0  0.00000000000E+00  0.00000000000E+00  0.74505805969E-08  0.10566000000E+00  0.10566000000E+00 0. -1.
     999900   -1    0    0    0    0 -0.00000000000E+00 -0.00000000000E+00 -0.74505805969E-08  0.93827000000E+00  0.93827000000E+00 0. -1.
     999902    2    1    2    0    0  0.29338692915E-02  0.34672952218E-02 -0.13625972745E-01  0.10295669621E+01  0.10294667710E+01 0.  0.
     999903    2    3    3    0    0  0.97286504815E-01  0.85574758050E-01  0.20044959028E-01  0.14008521019E+00  0.49339259200E-01 0.  0.
         14    1    1    2    0    0 -0.29338692915E-02 -0.34672952218E-02  0.13625972745E-01  0.14363037925E-01  0.00000000000E+00 0. -1.
     999901    1    3    3    0    0 -0.94352635524E-01 -0.82107462828E-01 -0.33670931773E-01  0.88948175188E+00  0.88000000000E+00 0. -1.
        -11    1    4    4    0    0  0.18822939705E-01  0.48067224216E-01  0.93017789185E-02  0.52455174340E-01  0.51100000000E-03 0. -1.
         11    1    4    4    0    0  0.78463565110E-01  0.37507533834E-01  0.10743180110E-01  0.87630035855E-01  0.51100000000E-03 0.  1.
</event>
<event>
 8    1  0.2928569E+004  0.1043930E+01  0.7957747E-01            NaN
         13   -1    0    0    0    0  0.00000000000E+00  0.00000000000E+00  0.74505805969E-08  0.10566000000E+00  0.10566000000E+00 0. -1.
     999900   -1    0    0    0    0 -0.00000000000E+00 -0.00000000000E+00 -0.74505805969E-08  0.93827000000E+00  0.93827000000E+00 0. -1.
     999902    2    1    2    0    0 -0.11094886573E-01 -0.53589560816E-02 -0.65547456130E-02  0.10299736535E+01  0.10298790935E+01 0.  0.
     999903    2    3    3    0    0  0.10104831822E+00  0.48897913297E-01 -0.68055396565E-01  0.13907397544E+00  0.45915848050E-01 0.  0.
         14    1    1    2    0    0  0.11094886573E-01  0.53589560816E-02  0.65547456130E-02  0.13956346528E-01  0.00000000000E+00 0. -1.
     999901    1    3    3    0    0 -0.11214320479E+00 -0.54256869378E-01  0.61500650952E-01  0.89089967804E+00  0.88000000000E+00 0.  1.
        -11    1    4    4    0    0  0.63984113886E-01  0.53992435285E-01 -0.43845453393E-01  0.94508384824E-01  0.51100000000E-03 0. -1.
         11    1    4    4    0    0  0.37064204335E-01 -0.50945219884E-02 -0.24209943172E-01  0.44565590613E-01  0.51100000000E-03 0.  1.
</event>
<event>
 8    1  0.2928569E+004  0.1043930E+01  0.7957747E-01            NaN
         13   -1    0    0    0    0  0.00000000000E+00  0.00000000000E+00  0.74505805969E-08  0.10566000000E+00  0.10566000000E+00 0.  1.
     999900   -1    0    0    0    0 -0.00000000000E+00 -0.00000000000E+00 -0.74505805969E-08  0.93827000000E+00  0.93827000000E+00 0.  1.
     999902    2    1    2    0    0 -0.97234783529E-02 -0.46316772725E-02 -0.78928776164E-02  0.10305772481E+01  0.10304907415E+01 0.  0.
     999903    2    3    3    0    0 -0.53051283286E-01 -0.26270167780E-01  0.12119754723E+00  0.13984167527E+00  0.36909190137E-01 0.  0.
         14    1    1    2    0    0  0.97234783529E-02  0.46316772725E-02  0.78928776164E-02  0.13352751878E-01  0.00000000000E+00 0.  1.
     999901    1    3    3    0    0  0.43327804934E-01  0.21638490508E-01 -0.12909042484E+00  0.89073557285E+00  0.88000000000E+00 0.  1.
        -11    1    4    4    0    0 -0.86091407435E-03 -0.16327902459E-01  0.34031361497E-01  0.37758922894E-01  0.51100000000E-03 0.  1.
         11    1    4    4    0    0 -0.52190369212E-01 -0.99422653216E-02  0.87166185728E-01  0.10208275238E+00  0.51100000000E-03 0. -1.
</event>
<event>
 8    1  0.2928569E+004  0.1043930E+01  0.7957747E-01            NaN
         13   -1    0    0    0    0  0.00000000000E+00  0.00000000000E+00  0.74505805969E-08  0.10566000000E+00  0.10566000000E+00 0.  1.
     999900   -1    0    0    0    0 -0.00000000000E+00 -0.00000000000E+00 -0.74505805969E-08  0.93827000000E+00  0.93827000000E+00 0. -1.
     999902    2    1    2    0    0  0.65762782081E-02 -0.11090383440E-01  0.52671292942E-02  0.10300020895E+01  0.10299079171E+01 0.  0.
     999903    2    3    3    0    0 -0.12045672270E+00 -0.11693363944E-01 -0.52005724504E-01  0.13903748488E+00  0.44500224895E-01 0.  0.
         14    1    1    2    0    0 -0.65762782081E-02  0.11090383440E-01 -0.52671292942E-02  0.13927910500E-01  0.00000000000E+00 0. -1.
     999901    1    3    3    0    0  0.12703300091E+00  0.60298050459E-03  0.57272853799E-01  0.89096460462E+00  0.88000000000E+00 0.  1.
        -11    1    4    4    0    0 -0.66611606067E-01 -0.17914814896E-01 -0.49257559001E-01  0.84762107662E-01  0.51100000000E-03 0.  1.
         11    1    4    4    0    0 -0.53845116635E-01  0.62214509519E-02 -0.27481655038E-02  0.54275377216E-01  0.51100000000E-03 0. -1.
</event>
<event>
 8    1  0.2928569E+004  0.1043930E+01  0.7957747E-01            NaN
         13   -1    0    0    0    0  0.00000000000E+00  0.00000000000E+00  0.74505805969E-08  0.10566000000E+00  0.10566000000E+00 0.  1.
     999900   -1    0    0    0    0 -0.00000000000E+00 -0.00000000000E+00 -0.74505805969E-08  0.93827000000E+00  0.93827000000E+00 0. -1.
     999902    2    1    2    0    0  0.39537767036E-02 -0.36609629440E-02 -0.12685692654E-01  0.10301473370E+01  0.10300551316E+01 0.  0.
     999903    2    3    3    0    0  0.11841012038E+00 -0.39945482666E-01  0.46095148785E-01  0.14005070842E+00  0.43276321389E-01 0.  0.
         14    1    1    2    0    0 -0.39537767036E-02  0.36609629440E-02  0.12685692654E-01  0.13782662951E-01  0.00000000000E+00 0.  1.
     999901    1    3    3    0    0 -0.11445634368E+00  0.36284519722E-01 -0.58780841439E-01  0.89009662863E+00  0.88000000000E+00 0.  1.
        -11    1    4    4    0    0  0.32492353152E-01 -0.23683379948E-01 -0.19843547620E-02  0.40259834624E-01  0.51100000000E-03 0. -1.
         11    1    4    4    0    0  0.85917767229E-01 -0.16262102718E-01  0.48079503547E-01  0.99790873795E-01  0.51100000000E-03 0.  1.
</event>
<event>
 8    1  0.2928569E+004  0.1043930E+01  0.7957747E-01            NaN
         13   -1    0    0    0    0  0.00000000000E+00  0.00000000000E+00  0.74505805969E-08  0.10566000000E+00  0.10566000000E+00 0.  1.
     999900   -1    0    0    0    0 -0.00000000000E+00 -0.00000000000E+00 -0.74505805969E-08  0.93827000000E+00  0.93827000000E+00 0. -1.
     999902    2    1    2    0    0 -0.14005538181E-01 -0.39975119519E-02 -0.27278414079E-03  0.10293625839E+01  0.10292595005E+01 0.  0.
     999903    2    3    3    0    0 -0.75812901632E-02 -0.96506849927E-01 -0.90656449564E-01  0.13988607741E+00  0.44480049021E-01 0.  0.
         14    1    1    2    0    0  0.14005538181E-01  0.39975119519E-02  0.27278414079E-03  0.14567416131E-01  0.00000000000E+00 0. -1.
     999901    1    3    3    0    0 -0.64242480173E-02  0.92509337975E-01  0.90383665423E-01  0.88947650646E+00  0.88000000000E+00 0.  1.
        -11    1    4    4    0    0  0.85427481953E-02 -0.59657188331E-01 -0.30570408430E-01  0.67577878472E-01  0.51100000000E-03 0. -1.
         11    1    4    4    0    0 -0.16124038359E-01 -0.36849661597E-01 -0.60086041135E-01  0.72308198934E-01  0.51100000000E-03 0.  1.
</event>
<event>
 8    1  0.2928569E+004  0.1043930E+01  0.7957747E-01            NaN
         13   -1    0    0    0    0  0.00000000000E+00  0.00000000000E+00  0.74505805969E-08  0.10566000000E+00  0.10566000000E+00 0. -1.
     999900   -1    0    0    0    0 -0.00000000000E+00 -0.00000000000E+00 -0.74505805969E-08  0.93827000000E+00  0.93827000000E+00 0.  1.
     999902    2    1    2    0    0  0.13084060954E-01  0.43977825339E-02 -0.89417701598E-02  0.10274834686E+01  0.10273518335E+01 0.  0.
     999903    2    3    3    0    0 -0.11622279087E+00  0.44678946679E-01 -0.34968917597E-01  0.13674206586E+00  0.44402950150E-01 0.  0.
         14    1    1    2    0    0 -0.13084060954E-01 -0.43977825339E-02  0.89417701598E-02  0.16446531423E-01  0.00000000000E+00 0. -1.
     999901    1    3    3    0    0  0.12930685183E+00 -0.40281164145E-01  0.26027147437E-01  0.89074140272E+00  0.88000000000E+00 0. -1.
        -11    1    4    4    0    0 -0.19774490488E-01  0.18622946813E-01  0.74980722938E-02  0.28183804413E-01  0.51100000000E-03 0.  1.
         11    1    4    4    0    0 -0.96448300387E-01  0.26055999866E-01 -0.42466989891E-01  0.10855826144E+00  0.51100000000E-03 0. -1.
</event>
<event>
 8    1  0.2928569E+004  0.1043930E+01  0.7957747E-01            NaN
         13   -1    0    0    0    0  0.00000000000E+00  0.00000000000E+00  0.74505805969E-08  0.10566000000E+00  0.10566000000E+00 0. -1.
     999900   -1    0    0    0    0 -0.00000000000E+00 -0.00000000000E+00 -0.74505805969E-08  0.93827000000E+00  0.93827000000E+00 0. -1.
     999902    2    1    2    0    0  0.46538110390E-02  0.12676977018E-01  0.50231058910E-02  0.10295218323E+01  0.10294210061E+01 0.  0.
     999903    2    3    3    0    0 -0.66397631368E-01  0.78031293758E-01  0.85269543024E-01  0.14061295910E+00  0.44761378929E-01 0.  0.
         14    1    1    2    0    0 -0.46538110390E-02 -0.12676977018E-01 -0.50231058910E-02  0.14408167694E-01  0.00000000000E+00 0. -1.
     999901    1    3    3    0    0  0.71051442407E-01 -0.65354316741E-01 -0.80246437133E-01  0.88890887320E+00  0.88000000000E+00 0. -1.
        -11    1    4    4    0    0 -0.38740514921E-02 -0.10355497503E-02  0.20275193352E-01  0.20674264792E-01  0.51100000000E-03 0.  1.
         11    1    4    4    0    0 -0.62523579876E-01  0.79066843509E-01  0.64994349672E-01  0.11993869431E+00  0.51100000000E-03 0. -1.
</event>
<event>
 7    1  0.2928569E+004  0.1043930E+01  0.7957747E-01            NaN
         13   -1    0    0    0    0  0.00000000000E+00  0.00000000000E+00  0.74505805969E-08  0.10566000000E+00  0.10566000000E+00 0.  1.
     999900   -1    0    0    0    0 -0.00000000000E+00 -0.00000000000E+00 -0.74505805969E-08  0.93827000000E+00  0.93827000000E+00 0. -1.
     999903    2    1    2    0    0  0.17005814642E-01 -0.57877432428E-01 -0.87465536920E-01  0.11534713948E+00  0.44897076983E-01 0.  0.
         14    1    1    2    0    0  0.33275034255E-01 -0.15884171430E-01  0.18845781244E-01  0.41408915434E-01  0.00000000000E+00 0.  1.
     999901    1    1    2    0    0 -0.50280848897E-01  0.73761603858E-01  0.68619755676E-01  0.88717394509E+00  0.88000000000E+00 0.  1.
        -11    1    3    3    0    0 -0.59423051054E-02 -0.47890074724E-01 -0.69169070430E-01  0.84340925251E-01  0.51100000000E-03 0. -1.
         11    1    3    3    0    0  0.22948119747E-01 -0.99873577045E-02 -0.18296466490E-01  0.31006214230E-01  0.51100000000E-03 0.  1.
</event>
<event>
 8    1  0.2928569E+004  0.1043930E+01  0.7957747E-01            NaN
         13   -1    0    0    0    0  0.00000000000E+00  0.00000000000E+00  0.74505805969E-08  0.10566000000E+00  0.10566000000E+00 0.  1.
     999900   -1    0    0    0    0 -0.00000000000E+00 -0.00000000000E+00 -0.74505805969E-08  0.93827000000E+00  0.93827000000E+00 0.  1.
     999902    2    1    2    0    0 -0.13170855899E-01  0.16087325877E-02 -0.41849689328E-02  0.10300169331E+01  0.10299229627E+01 0.  0.
     999903    2    3    3    0    0  0.11863002282E+00 -0.45144047033E-01  0.28964789818E-01  0.13835769295E+00  0.46827607813E-01 0.  0.
         14    1    1    2    0    0  0.13170855899E-01 -0.16087325877E-02  0.41849689328E-02  0.13913066902E-01  0.00000000000E+00 0.  1.
     999901    1    3    3    0    0 -0.13180087872E+00  0.46752779620E-01 -0.33149758750E-01  0.89165924015E+00  0.88000000000E+00 0. -1.
        -11    1    4    4    0    0  0.40950662494E-01 -0.31699204363E-01 -0.59633095752E-02  0.52130782634E-01  0.51100000000E-03 0. -1.
         11    1    4    4    0    0  0.77679360324E-01 -0.13444842670E-01  0.34928099393E-01  0.86226910318E-01  0.51100000000E-03 0.  1.
</event>
<event>
 8    1  0.2928569E+004  0.1043930E+01  0.7957747E-01            NaN
         13   -1    0    0    0    0  0.00000000000E+00  0.00000000000E+00  0.74505805969E-08  0.10566000000E+00  0.10566000000E+00 0. -1.
     999900   -1    0    0    0    0 -0.00000000000E+00 -0.00000000000E+00 -0.74505805969E-08  0.93827000000E+00  0.93827000000E+00 0. -1.
     999902    2    1    2    0    0 -0.10016550781E-01  0.55314706986E-02  0.70024200955E-02  0.10305149955E+01  0.10304276751E+01 0.  0.
     999903    2    3    3    0    0  0.41154114666E-01  0.11839417470E+00  0.46193342037E-01  0.14096884422E+00  0.45028307049E-01 0.  0.
         14    1    1    2    0    0  0.10016550781E-01 -0.55314706986E-02 -0.70024200955E-02  0.13415004466E-01  0.00000000000E+00 0.  1.
     999901    1    3    3    0    0 -0.51170665447E-01 -0.11286270400E+00 -0.39190921942E-01  0.88954615131E+00  0.88000000000E+00 0.  1.
        -11    1    4    4    0    0  0.88529228906E-02  0.88621810945E-01  0.34445471525E-01  0.95493200011E-01  0.51100000000E-03 0. -1.
         11    1    4    4    0    0  0.32301191776E-01  0.29772363753E-01  0.11747870512E-01  0.45475644208E-01  0.51100000000E-03 0.  1.
</event>
<event>
 8    1  0.2928569E+004  0.1043930E+01  0.7957747E-01            NaN
         13   -1    0    0    0    0  0.00000000000E+00  0.00000000000E+00  0.74505805969E-08  0.10566000000E+00  0.10566000000E+00 0.  1.
     999900   -1    0    0    0    0 -0.00000000000E+00 -0.00000000000E+00 -0.74505805969E-08  0.93827000000E+00  0.93827000000E+00 0.  1.
     999902    2    1    2    0    0  0.98468700462E-02  0.49799850080E-02  0.70620489737E-02  0.10308290979E+01  0.10307458442E+01 0.  0.
     999903    2    3    3    0    0  0.34699153880E-01 -0.12728129358E+00 -0.51690560624E-02  0.14051438850E+00  0.48093817262E-01 0.  0.
         14    1    1    2    0    0 -0.98468700462E-02 -0.49799850080E-02 -0.70620489737E-02  0.13100902110E-01  0.00000000000E+00 0. -1.
     999901    1    3    3    0    0 -0.24852283834E-01  0.13226127859E+00  0.12231105036E-01  0.89031470939E+00  0.88000000000E+00 0. -1.
        -11    1    4    4    0    0  0.10397496253E-01 -0.10396825574E+00 -0.14687577502E-01  0.10551536468E+00  0.51100000000E-03 0. -1.
         11    1    4    4    0    0  0.24301657627E-01 -0.23313037845E-01  0.95185214400E-02  0.34999023821E-01  0.51100000000E-03 0.  1.
</event>
<event>
 8    1  0.2928569E+004  0.1043930E+01  0.7957747E-01            NaN
         13   -1    0    0    0    0  0.00000000000E+00  0.00000000000E+00  0.74505805969E-08  0.10566000000E+00  0.10566000000E+00 0.  1.
     999900   -1    0    0    0    0 -0.00000000000E+00 -0.00000000000E+00 -0.74505805969E-08  0.93827000000E+00  0.93827000000E+00 0.  1.
     999902    2    1    2    0    0 -0.63243424660E-02  0.12261080299E-01  0.42072755822E-02  0.10295066659E+01  0.10294056259E+01 0.  0.
     999903    2    3    3    0    0 -0.17256279955E-01  0.11384398578E+00  0.68413914492E-01  0.14127185102E+00  0.44933727860E-01 0.  0.
         14    1    1    2    0    0  0.63243424660E-02 -0.12261080299E-01 -0.42072755822E-02  0.14423334065E-01  0.00000000000E+00 0. -1.
     999901    1    3    3    0    0  0.10931937489E-01 -0.10158290548E+00 -0.64206638910E-01  0.88823481491E+00  0.88000000000E+00 0.  1.
        -11    1    4    4    0    0 -0.22478969333E-01  0.30584541564E-01  0.94671286117E-02  0.39122958606E-01  0.51100000000E-03 0. -1.
         11    1    4    4    0    0  0.52226893784E-02  0.83259444214E-01  0.58946785881E-01  0.10214889242E+00  0.51100000000E-03 0.  1.
</event>
<event>
 8    1  0.2928569E+004  0.1043930E+01  0.7957747E-01            NaN
         13   -1    0    0    0    0  0.00000000000E+00  0.00000000000E+00  0.74505805969E-08  0.10566000000E+00  0.10566000000E+00 0. -1.
     999900   -1    0    0    0    0 -0.00000000000E+00 -0.00000000000E+00 -0.74505805969E-08  0.93827000000E+00  0.93827000000E+00 0.  1.
     999902    2    1    2    0    0  0.77803369098E-02 -0.11594170245E-02 -0.11534001469E-01  0.10299689442E+01  0.10298743199E+01 0.  0.
     999903    2    3    3    0    0 -0.38284619088E-01  0.91230360710E-01  0.85988156307E-01  0.13858326868E+00  0.44974087628E-01 0.  0.
         14    1    1    2    0    0 -0.77803369098E-02  0.11594170245E-02  0.11534001469E-01  0.13961055840E-01  0.00000000000E+00 0. -1.
     999901    1    3    3    0    0  0.46064955998E-01 -0.92389777734E-01 -0.97522157776E-01  0.89138567548E+00  0.88000000000E+00 0.  1.
        -11    1    4    4    0    0 -0.43657017982E-01  0.50146440363E-01  0.60763098370E-01  0.90072281778E-01  0.51100000000E-03 0.  1.
         11    1    4    4    0    0  0.53723988942E-02  0.41083920346E-01  0.25225057937E-01  0.48510986898E-01  0.51100000000E-03 0. -1.
</event>
<event>
 8    1  0.2928569E+004  0.1043930E+01  0.7957747E-01            NaN
         13   -1    0    0    0    0  0.00000000000E+00  0.00000000000E+00  0.74505805969E-08  0.10566000000E+00  0.10566000000E+00 0.  1.
     999900   -1    0    0    0    0 -0.00000000000E+00 -0.00000000000E+00 -0.74505805969E-08  0.93827000000E+00  0.93827000000E+00 0.  1.
     999902    2    1    2    0    0 -0.16767570082E-01  0.19346936425E-02 -0.30244771220E-03  0.10270484740E+01  0.10269097244E+01 0.  0.
     999903    2    3    3    0    0 -0.44825809356E-02 -0.10864244150E+00  0.70532975925E-01  0.13721934375E+00  0.45066328661E-01 0.  0.
         14    1    1    2    0    0  0.16767570082E-01 -0.19346936425E-02  0.30244771220E-03  0.16881526014E-01  0.00000000000E+00 0.  1.
     999901    1    3    3    0    0 -0.12284989146E-01  0.11057713514E+00 -0.70835423637E-01  0.88982913024E+00  0.88000000000E+00 0.  1.
        -11    1    4    4    0    0 -0.29114980504E-02 -0.12231441757E-01  0.30166426114E-01  0.32685767145E-01  0.51100000000E-03 0.  1.
         11    1    4    4    0    0 -0.15710828852E-02 -0.96410999744E-01  0.40366549811E-01  0.10453357660E+00  0.51100000000E-03 0. -1.
</event>
<event>
 8    1  0.2928569E+004  0.1043930E+01  0.7957747E-01            NaN
         13   -1    0    0    0    0  0.00000000000E+00  0.00000000000E+00  0.74505805969E-08  0.10566000000E+00  0.10566000000E+00 0.  1.
     999900   -1    0    0    0    0 -0.00000000000E+00 -0.00000000000E+00 -0.74505805969E-08  0.93827000000E+00  0.93827000000E+00 0. -1.
     999902    2    1    2    0    0 -0.12323950468E-02 -0.87695433774E-02  0.74362190442E-02  0.10323662185E+01  0.10323014521E+01 0.  0.
     999903    2    3    3    0    0 -0.12407962122E+00 -0.46803149679E-01 -0.26196363868E-01  0.14238355193E+00  0.44727387117E-01 0.  0.
         14    1    1    2    0    0  0.12323950468E-02  0.87695433774E-02 -0.74362190442E-02  0.11563781487E-01  0.00000000000E+00 0.  1.
     999901    1    3    3    0    0  0.12284722617E+00  0.38033606301E-01  0.33632582912E-01  0.88998266658E+00  0.88000000000E+00 0.  1.
        -11    1    4    4    0    0 -0.52993771924E-01 -0.68151820459E-03 -0.22457870837E-01  0.57562326337E-01  0.51100000000E-03 0.  1.
         11    1    4    4    0    0 -0.71085849296E-01 -0.46121631474E-01 -0.37384930315E-02  0.84821225593E-01  0.51100000000E-03 0. -1.
</event>
<event>
 8    1  0.2928569E+004  0.1043930E+01  0.7957747E-01            NaN
         13   -1    0    0    0    0  0.00000000000E+00  0.00000000000E+00  0.74505805969E-08  0.10566000000E+00  0.10566000000E+00 0. -1.
     999900   -1    0    0    0    0 -0.00000000000E+00 -0.00000000000E+00 -0.74505805969E-08  0.93827000000E+00  0.93827000000E+00 0. -1.
     999902    2    1    2    0    0  0.11872452749E-01  0.57627315119E-02 -0.33074699484E-02  0.10303247229E+01  0.10302348912E+01 0.  0.
     999903    2    3    3    0    0  0.11974048545E+00  0.40651254121E-01  0.45162320058E-01  0.14172917817E+00  0.45356548300E-01 0.  0.
         14    1    1    2    0    0 -0.11872452749E-01 -0.57627315119E-02  0.33074699484E-02  0.13605277146E-01  0.00000000000E+00 0.  1.
     999901    1    3    3    0    0 -0.10786803270E+00 -0.34888522610E-01 -0.48469790007E-01  0.88859554468E+00  0.88000000000E+00 0.  1.
        -11    1    4    4    0    0  0.46951542133E-01  0.39369131370E-01  0.16223701236E-01  0.63386476605E-01  0.51100000000E-03 0. -1.
         11    1    4    4    0    0  0.72788943319E-01  0.12821227513E-02  0.28938618822E-01  0.78342701566E-01  0.51100000000E-03 0.  1.
</event>
<event>
 8    1  0.2928569E+004  0.1043930E+01  0.7957747E-01            NaN
         13   -1    0    0    0    0  0.00000000000E+00  0.00000000000E+00  0.74505805969E-08  0.10566000000E+00  0.10566000000E+00 0.  1.
     999900   -1    0    0    0    0 -0.00000000000E+00 -0.00000000000E+00 -0.74505805969E-08  0.93827000000E+00  0.93827000000E+00 0. -1.
     999902    2    1    2    0    0 -0.14816009970E-02  0.86925447882E-02 -0.36239263196E-02  0.10343964635E+01  0.10343525295E+01 0.  0.
     999903    2    3    3    0    0  0.35360697282E-01  0.13311970891E+00  0.11637730266E-02  0.14486715190E+00  0.44876514109E-01 0.  0.
         14    1    1    2    0    0  0.14816009970E-02 -0.86925447882E-02  0.36239263196E-02  0.95335365096E-02  0.00000000000E+00 0.  1.
     999901    1    3    3    0    0 -0.36842298279E-01 -0.12442716412E+00 -0.47876993462E-02  0.88952931159E+00  0.88000000000E+00 0. -1.
        -11    1    4    4    0    0  0.17874823399E-01  0.91060220210E-01  0.21060182713E-01  0.95159158430E-01  0.51100000000E-03 0.  1.
         11    1    4    4    0    0  0.17485873883E-01  0.42059488703E-01 -0.19896409686E-01  0.49707993470E-01  0.51100000000E-03 0. -1.
</event>
<event>
 8    1  0.2928569E+004  0.1043930E+01  0.7957747E-01            NaN
         13   -1    0    0    0    0  0.00000000000E+00  0.00000000000E+00  0.74505805969E-08  0.10566000000E+00  0.10566000000E+00 0.  1.
     999900   -1    0    0    0    0 -0.00000000000E+00 -0.00000000000E+00 -0.74505805969E-08  0.93827000000E+00  0.93827000000E+00 0. -1.
     999902    2    1    2    0    0 -0.66072554828E-02  0.78449070229E-02 -0.12879806794E-01  0.10274652554E+01  0.10273333263E+01 0.  0.
     999903    2    3    3    0    0  0.12883702245E+00 -0.11745616809E-02 -0.12706346459E-01  0.13705718417E+00  0.44976244216E-01 0.  0.
         14    1    1    2    0    0  0.66072554828E-02 -0.78449070229E-02  0.12879806794E-01  0.16464744585E-01  0.00000000000E+00 0.  1.
     999901    1    3    3    0    0 -0.13544427794E+00  0.90194687038E-02 -0.17346033467E-03  0.89040807124E+00  0.88000000000E+00 0.  1.
        -11    1    4    4    0    0  0.10956730046E+00  0.37243043302E-03  0.65522684217E-02  0.10976486404E+00  0.51100000000E-03 0. -1.
         11    1    4    4    0    0  0.19269721989E-01 -0.15469921139E-02 -0.19258614881E-01  0.27292320133E-01  0.51100000000E-03 0.  1.
</event>
<event>
 8    1  0.2928569E+004  0.1043930E+01  0.7957747E-01            NaN
         13   -1    0    0    0    0  0.00000000000E+00  0.00000000000E+00  0.74505805969E-08  0.10566000000E+00  0.10566000000E+00 0. -1.
     999900   -1    0    0    0    0 -0.00000000000E+00 -0.00000000000E+00 -0.74505805969E-08  0.93827000000E+00  0.93827000000E+00 0. -1.
     999902    2    1    2    0    0  0.97638999242E-02  0.10250978771E-01 -0.35027561993E-02  0.10293462553E+01  0.10292429391E+01 0.  0.
     999903    2    3    3    0    0  0.89870323921E-02  0.12507885212E+00  0.45460345172E-01  0.14053613539E+00  0.44252416523E-01 0.  0.
         14    1    1    2    0    0 -0.97638999242E-02 -0.10250978771E-01  0.35027561993E-02  0.14583744666E-01  0.00000000000E+00 0.  1.
     999901    1    3    3    0    0  0.77686753204E-03 -0.11482787335E+00 -0.48963101371E-01  0.88881011995E+00  0.88000000000E+00 0. -1.
        -11    1    4    4    0    0  0.29899075734E-02  0.11345800414E+00  0.24953679734E-01  0.11620931763E+00  0.51100000000E-03 0.  1.
         11    1    4    4    0    0  0.59971248187E-02  0.11620847979E-01  0.20506665438E-01  0.24326817758E-01  0.51100000000E-03 0. -1.
</event>
<event>
 8    1  0.2928569E+004  0.1043930E+01  0.7957747E-01            NaN
         13   -1    0    0    0    0  0.00000000000E+00  0.00000000000E+00  0.74505805969E-08  0.10566000000E+00  0.10566000000E+00 0.  1.
     999900   -1    0    0    0    0 -0.00000000000E+00 -0.00000000000E+00 -0.74505805969E-08  0.93827000000E+00  0.93827000000E+00 0.  1.
     999902    2    1    2    0    0 -0.13454352779E-01 -0.17732119944E-02 -0.65517887691E-02  0.10288605002E+01  0.10287501344E+01 0.  0.
     999903    2    3    3    0    0  0.27984064094E-01  0.67445006332E-01  0.10787663465E+00  0.13779250711E+00  0.44916255314E-01 0.  0.
         14    1    1    2    0    0  0.13454352779E-01  0.17732119944E-02  0.65517887691E-02  0.15069499844E-01  0.00000000000E+00 0.  1.
     999901    1    3    3    0    0 -0.41438416872E-01 -0.69218218327E-01 -0.11442842342E+00  0.89106799304E+00  0.88000000000E+00 0.  1.
        -11    1    4    4    0    0 -0.85470059047E-03  0.69964424374E-02  0.46218816366E-01  0.46755971032E-01  0.51100000000E-03 0.  1.
         11    1    4    4    0    0  0.28838764684E-01  0.60448563895E-01  0.61657818280E-01  0.91036536080E-01  0.51100000000E-03 0. -1.
</event>
<event>
 8    1  0.2928569E+004  0.1043930E+01  0.7957747E-01            NaN
         13   -1    0    0    0    0  0.00000000000E+00  0.00000000000E+00  0.74505805969E-08  0.10566000000E+00  0.10566000000E+00 0.  1.
     999900   -1    0    0    0    0 -0.00000000000E+00 -0.00000000000E+00 -0.74505805969E-08  0.93827000000E+00  0.93827000000E+00 0. -1.
     999902    2    1    2    0    0  0.75218224418E-02  0.10178785989E-01 -0.40723946488E-02  0.10306345160E+01  0.10305487546E+01 0.  0.
     999903    2    3    3    0    0  0.63933078688E-02 -0.10832453079E+00  0.74940369548E-01  0.13918214679E+00  0.44503175628E-01 0.  0.
         14    1    1    2    0    0 -0.75218224418E-02 -0.10178785989E-01  0.40723946488E-02  0.13295484016E-01  0.00000000000E+00 0.  1.
     999901    1    3    3    0    0  0.11285145730E-02  0.11850331678E+00 -0.79012764197E-01  0.89145236919E+00  0.88000000000E+00 0. -1.
        -11    1    4    4    0    0 -0.16693849601E-01 -0.74276932866E-01  0.47675017263E-01  0.89827143796E-01  0.51100000000E-03 0.  1.
         11    1    4    4    0    0  0.23087157470E-01 -0.34047597924E-01  0.27265352286E-01  0.49355002995E-01  0.51100000000E-03 0. -1.
</event>
<event>
 8    1  0.2928569E+004  0.1043930E+01  0.7957747E-01            NaN
         13   -1    0    0    0    0  0.00000000000E+00  0.00000000000E+00  0.74505805969E-08  0.10566000000E+00  0.10566000000E+00 0.  1.
     999900   -1    0    0    0    0 -0.00000000000E+00 -0.00000000000E+00 -0.74505805969E-08  0.93827000000E+00  0.93827000000E+00 0. -1.
     999902    2    1    2    0    0 -0.70430739413E-02  0.11583036383E-01 -0.26062944181E-02  0.10301254937E+01  0.10300329939E+01 0.  0.
     999903    2    3    3    0    0 -0.51738055965E-01 -0.86643293559E-01  0.85008456503E-01  0.13921450049E+00  0.44388655276E-01 0.  0.
         14    1    1    2    0    0  0.70430739413E-02 -0.11583036383E-01  0.26062944181E-02  0.13804506257E-01  0.00000000000E+00 0. -1.
     999901    1    3    3    0    0  0.44694982024E-01  0.98226329942E-01 -0.87614750921E-01  0.89091099325E+00  0.88000000000E+00 0. -1.
        -11    1    4    4    0    0 -0.34255535810E-01 -0.35537295421E-01  0.64984959839E-01  0.81606661651E-01  0.51100000000E-03 0.  1.
         11    1    4    4    0    0 -0.17482520155E-01 -0.51105998137E-01  0.20023496663E-01  0.57607838844E-01  0.51100000000E-03 0. -1.
</event>
<event>
 8    1  0.2928569E+004  0.1043930E+01  0.7957747E-01            NaN
         13   -1    0    0    0    0  0.00000000000E+00  0.00000000000E+00  0.74505805969E-08  0.10566000000E+00  0.10566000000E+00 0.  1.
     999900   -1    0    0    0    0 -0.00000000000E+00 -0.00000000000E+00 -0.74505805969E-08  0.93827000000E+00  0.93827000000E+00 0. -1.
     999902    2    1    2    0    0 -0.57092319192E-02  0.11893594637E-01  0.54305685697E-02  0.10296631154E+01  0.10295642705E+01 0.  0.
     999903    2    3    3    0    0  0.48760076378E-01  0.92185111229E-02  0.12315045040E+00  0.14015087137E+00  0.44874350317E-01 0.  0.
         14    1    1    2    0    0  0.57092319192E-02 -0.11893594637E-01 -0.54305685697E-02  0.14266884645E-01  0.00000000000E+00 0.  1.
     999901    1    3    3    0    0 -0.54469308297E-01  0.26750835141E-02 -0.11771988183E+00  0.88951224398E+00  0.88000000000E+00 0. -1.
        -11    1    4    4    0    0  0.44852078334E-01 -0.82586524812E-03  0.12113325265E+00  0.12917397959E+00  0.51100000000E-03 0. -1.
         11    1    4    4    0    0  0.39079980440E-02  0.10044376371E-01  0.20171977489E-02  0.10976891780E-01  0.51100000000E-03 0.  1.
</event>
<event>
 8    1  0.2928569E+004  0.1043930E+01  0.7957747E-01            NaN
         13   -1    0    0    0    0  0.00000000000E+00  0.00000000000E+00  0.74505805969E-08  0.10566000000E+00  0.10566000000E+00 0.  1.
     999900   -1    0    0    0    0 -0.00000000000E+00 -0.00000000000E+00 -0.74505805969E-08  0.93827000000E+00  0.93827000000E+00 0.  1.
     999902    2    1    2    0    0 -0.11498366041E-01  0.10112138002E-02 -0.77345220802E-02  0.10300354757E+01  0.10299417572E+01 0.  0.
     999903    2    3    3    0    0  0.10816442357E+00  0.75924357523E-01  0.24968230984E-01  0.13818311547E+00  0.31735000397E-01 0.  0.
         14    1    1    2    0    0  0.11498366041E-01 -0.10112138002E-02  0.77345220802E-02  0.13894524345E-01  0.00000000000E+00 0. -1.
     999901    1    3    3    0    0 -0.11966278961E+00 -0.74913143722E-01 -0.32702753064E-01  0.89185236019E+00  0.88000000000E+00 0. -1.
        -11    1    4    4    0    0  0.52869477672E-01  0.20523304242E-01  0.26036782460E-02  0.56775240622E-01  0.51100000000E-03 0.  1.
         11    1    4    4    0    0  0.55294945896E-01  0.55401053281E-01  0.22364552738E-01  0.81407874843E-01  0.51100000000E-03 0. -1.
</event>
<event>
 8    1  0.2928569E+004  0.1043930E+01  0.7957747E-01            NaN
         13   -1    0    0    0    0  0.00000000000E+00  0.00000000000E+00  0.74505805969E-08  0.10566000000E+00  0.10566000000E+00 0. -1.
     999900   -1    0    0    0    0 -0.00000000000E+00 -0.00000000000E+00 -0.74505805969E-08  0.93827000000E+00  0.93827000000E+00 0.  1.
     999902    2    1    2    0    0 -0.47833461594E-02 -0.31294526644E-02  0.12724519438E-01  0.10299805459E+01  0.10298860800E+01 0.  0.
     999903    2    3    3    0    0  0.35928954214E-01  0.12488602061E+00  0.27387764906E-01  0.13966573442E+00  0.43232161744E-01 0.  0.
         14    1    1    2    0    0  0.47833461594E-02  0.31294526644E-02 -0.12724519438E-01  0.13949454089E-01  0.00000000000E+00 0.  1.
     999901    1    3    3    0    0 -0.40712300373E-01 -0.12801547327E+00 -0.14663245468E-01  0.89031481149E+00  0.88000000000E+00 0. -1.
        -11    1    4    4    0    0  0.19104197479E-01  0.99751799787E-01  0.36733979337E-01  0.10800480675E+00  0.51100000000E-03 0. -1.
         11    1    4    4    0    0  0.16824756735E-01  0.25134220821E-01 -0.93462144314E-02  0.31660927666E-01  0.51100000000E-03 0.  1.
</event>
<event>
 8    1  0.2928569E+004  0.1043930E+01  0.7957747E-01            NaN
         13   -1    0    0    0    0  0.00000000000E+00  0.00000000000E+00  0.74505805969E-08  0.10566000000E+00  0.10566000000E+00 0. -1.
     999900   -1    0    0    0    0 -0.00000000000E+00 -0.00000000000E+00 -0.74505805969E-08  0.93827000000E+00  0.93827000000E+00 0. -1.
     999902    2    1    2    0    0 -0.11283581003E-01  0.82375072066E-02 -0.19773783238E-02  0.10298202250E+01  0.10297235600E+01 0.  0.
     999903    2    3    3    0    0  0.42448980918E-01  0.10473143367E+00 -0.70111223474E-01  0.14030322860E+00  0.44708199663E-01 0.  0.
         14    1    1    2    0    0  0.11283581003E-01 -0.82375072066E-02  0.19773783238E-02  0.14109774990E-01  0.00000000000E+00 0. -1.
     999901    1    3    3    0    0 -0.53732561921E-01 -0.96493926467E-01  0.68133845150E-01  0.88951699641E+00  0.88000000000E+00 0.  1.
        -11    1    4    4    0    0  0.31584166232E-01  0.84335051302E-01 -0.74374486805E-01  0.11679805582E+00  0.51100000000E-03 0. -1.
         11    1    4    4    0    0  0.10864814687E-01  0.20396382371E-01  0.42632633312E-02  0.23505172776E-01  0.51100000000E-03 0.  1.
</event>
<event>
 8    1  0.2928569E+004  0.1043930E+01  0.7957747E-01            NaN
         13   -1    0    0    0    0  0.00000000000E+00  0.00000000000E+00  0.74505805969E-08  0.10566000000E+00  0.10566000000E+00 0.  1.
     999900   -1    0    0    0    0 -0.00000000000E+00 -0.00000000000E+00 -0.74505805969E-08  0.93827000000E+00  0.93827000000E+00 0.  1.
     999902    2    1    2    0    0  0.89402841161E-02 -0.44400827779E-03 -0.95042400612E-02  0.10308741047E+01  0.10307914257E+01 0.  0.
     999903    2    3    3    0    0  0.67367699980E-01 -0.72217756938E-01  0.89385302034E-01  0.14051216959E+00  0.44722770106E-01 0.  0.
         14    1    1    2    0    0 -0.89402841161E-02  0.44400827779E-03  0.95042400612E-02  0.13055895319E-01  0.00000000000E+00 0.  1.
     999901    1    3    3    0    0 -0.58427415864E-01  0.71773748660E-01 -0.98889542095E-01  0.89036193509E+00  0.88000000000E+00 0.  1.
        -11    1    4    4    0    0  0.31712810831E-01 -0.55541713931E-01  0.33634481461E-01  0.72264263791E-01  0.51100000000E-03 0. -1.
         11    1    4    4    0    0  0.35654889148E-01 -0.16676043007E-01  0.55750820573E-01  0.68247905800E-01  0.51100000000E-03 0.  1.
</event>
<event>
 8    1  0.2928569E+004  0.1043930E+01  0.7957747E-01            NaN
         13   -1    0    0    0    0  0.00000000000E+00  0.00000000000E+00  0.74505805969E-08  0.10566000000E+00  0.10566000000E+00 0. -1.
     999900   -1    0    0    0    0 -0.00000000000E+00 -0.00000000000E+00 -0.74505805969E-08  0.93827000000E+00  0.93827000000E+00 0.  1.
     999902    2    1    2    0    0 -0.46741366725E-02 -0.10670392166E-01 -0.34727969174E-02  0.10317741314E+01  0.10317025216E+01 0.  0.
     999903    2    3    3    0    0 -0.47314308731E-01  0.10442931876E+00 -0.68149709849E-01  0.14090420219E+00  0.45447605170E-01 0.  0.
         14    1    1    2    0    0  0.46741366725E-02  0.10670392166E-01  0.34727969174E-02  0.12155868585E-01  0.00000000000E+00 0. -1.
     999901    1    3    3    0    0  0.42640172058E-01 -0.11509971093E+00  0.64676912931E-01  0.89086992922E+00  0.88000000000E+00 0. -1.
        -11    1    4    4    0    0 -0.98854116043E-02  0.38483348860E-01 -0.12076731763E-02  0.39754359478E-01  0.51100000000E-03 0.  1.
         11    1    4    4    0    0 -0.37428897126E-01  0.65945969900E-01 -0.66942036672E-01  0.10114984271E+00  0.51100000000E-03 0. -1.
</event>
<event>
 8    1  0.2928569E+004  0.1043930E+01  0.7957747E-01            NaN
         13   -1    0    0    0    0  0.00000000000E+00  0.00000000000E+00  0.74505805969E-08  0.10566000000E+00  0.10566000000E+00 0.  1.
     999900   -1    0    0    0    0 -0.00000000000E+00 -0.00000000000E+00 -0.74505805969E-08  0.93827000000E+00  0.93827000000E+00 0. -1.
     999902    2    1    2    0    0 -0.56087136387E-04 -0.13725802606E-01 -0.20807467611E-02  0.10300472658E+01  0.10299537074E+01 0.  0.
     999903    2    3    3    0    0  0.12124127231E+00  0.44440654824E-01 -0.27948630443E-01  0.13944885256E+00  0.44614332062E-01 0.  0.
         14    1    1    2    0    0  0.56087136387E-04  0.13725802606E-01  0.20807467611E-02  0.13882734242E-01  0.00000000000E+00 0.  1.
     999901    1    3    3    0    0 -0.12129735945E+00 -0.58166457430E-01  0.25867883682E-01  0.89059841319E+00  0.88000000000E+00 0. -1.
        -11    1    4    4    0    0  0.36408179580E-01 -0.62448644495E-02 -0.74791727248E-03  0.36950972566E-01  0.51100000000E-03 0. -1.
         11    1    4    4    0    0  0.84833092729E-01  0.50685519274E-01 -0.27200713170E-01  0.10249788000E+00  0.51100000000E-03 0.  1.
</event>
<event>
 8    1  0.2928569E+004  0.1043930E+01  0.7957747E-01            NaN
         13   -1    0    0    0    0  0.00000000000E+00  0.00000000000E+00  0.74505805969E-08  0.10566000000E+00  0.10566000000E+00 0. -1.
     999900   -1    0    0    0    0 -0.00000000000E+00 -0.00000000000E+00 -0.74505805969E-08  0.93827000000E+00  0.93827000000E+00 0. -1.
     999902    2    1    2    0    0  0.86439140933E-02 -0.93144291390E-02  0.43505547057E-02  0.10304985754E+01  0.10304110397E+01 0.  0.
     999903    2    3    3    0    0 -0.55564814797E-01  0.94594880179E-01  0.71166444533E-01  0.13955285955E+00  0.48730870925E-01 0.  0.
         14    1    1    2    0    0 -0.86439140933E-02  0.93144291390E-02 -0.43505547057E-02  0.13431424619E-01  0.00000000000E+00 0.  1.
     999901    1    3    3    0    0  0.64208728890E-01 -0.10390930932E+00 -0.66815889827E-01  0.89094571583E+00  0.88000000000E+00 0. -1.
        -11    1    4    4    0    0 -0.24691142506E-01  0.10812869540E-01  0.32561267772E-01  0.42273726425E-01  0.51100000000E-03 0. -1.
         11    1    4    4    0    0 -0.30873672290E-01  0.83782010639E-01  0.38605176761E-01  0.97279133123E-01  0.51100000000E-03 0.  1.
</event>
<event>
 8    1  0.2928569E+004  0.1043930E+01  0.7957747E-01            NaN
         13   -1    0    0    0    0  0.00000000000E+00  0.00000000000E+00  0.74505805969E-08  0.10566000000E+00  0.10566000000E+00 0. -1.
     999900   -1    0    0    0    0 -0.00000000000E+00 -0.00000000000E+00 -0.74505805969E-08  0.93827000000E+00  0.93827000000E+00 0.  1.
     999902    2    1    2    0    0 -0.11103531156E-01 -0.64335685260E-02 -0.48713575310E-02  0.10302037721E+01  0.10301123253E+01 0.  0.
     999903    2    3    3    0    0  0.48661713371E-01 -0.12115265001E+00  0.25068135106E-01  0.14024381495E+00  0.44654107120E-01 0.  0.
         14    1    1    2    0    0  0.11103531156E-01  0.64335685260E-02  0.48713575310E-02  0.13726227898E-01  0.00000000000E+00 0.  1.
     999901    1    3    3    0    0 -0.59765244527E-01  0.11471908148E+00 -0.29939492637E-01  0.88995995715E+00  0.88000000000E+00 0.  1.
        -11    1    4    4    0    0  0.23983005457E-02 -0.57153533977E-01 -0.58930933639E-03  0.57209148727E-01  0.51100000000E-03 0.  1.
         11    1    4    4    0    0  0.46263412825E-01 -0.63999116032E-01  0.25657444442E-01  0.83034666226E-01  0.51100000000E-03 0. -1.
</event>
<event>
 8    1  0.2928569E+004  0.1043930E+01  0.7957747E-01            NaN
         13   -1    0    0    0    0  0.00000000000E+00  0.00000000000E+00  0.74505805969E-08  0.10566000000E+00  0.10566000000E+00 0. -1.
     999900   -1    0    0    0    0 -0.00000000000E+00 -0.00000000000E+00 -0.74505805969E-08  0.93827000000E+00  0.93827000000E+00 0.  1.
     999902    2    1    2    0    0  0.97336714538E-02  0.97662485770E-02 -0.19987358843E-02  0.10299973435E+01  0.10299031065E+01 0.  0.
     999903    2    3    3    0    0  0.70831690174E-01 -0.94323275301E-01 -0.59563838476E-01  0.13989547413E+00  0.45922589550E-01 0.  0.
         14    1    1    2    0    0 -0.97336714538E-02 -0.97662485770E-02  0.19987358843E-02  0.13932656472E-01  0.00000000000E+00 0. -1.
     999901    1    3    3    0    0 -0.61098018720E-01  0.10408952388E+00  0.57565102592E-01  0.89010186940E+00  0.88000000000E+00 0.  1.
        -11    1    4    4    0    0  0.53699172897E-01 -0.56014415525E-01 -0.15666500257E-01  0.79163857080E-01  0.51100000000E-03 0. -1.
         11    1    4    4    0    0  0.17132517277E-01 -0.38308859777E-01 -0.43897338219E-01  0.60731617048E-01  0.51100000000E-03 0.  1.
</event>
<event>
 8    1  0.2928569E+004  0.1043930E+01  0.7957747E-01            NaN
         13   -1    0    0    0    0  0.00000000000E+00  0.00000000000E+00  0.74505805969E-08  0.10566000000E+00  0.10566000000E+00 0. -1.
     999900   -1    0    0    0    0 -0.00000000000E+00 -0.00000000000E+00 -0.74505805969E-08  0.93827000000E+00  0.93827000000E+00 0.  1.
     999902    2    1    2    0    0  0.95506333058E-02 -0.52518178247E-02 -0.22407669445E-02  0.10328026812E+01  0.10327427371E+01 0.  0.
     999903    2    3    3    0    0  0.12411362048E+00  0.53239876213E-01  0.17669294269E-01  0.14322841964E+00  0.44311409651E-01 0.  0.
         14    1    1    2    0    0 -0.95506333058E-02  0.52518178247E-02  0.22407669445E-02  0.11127318792E-01  0.00000000000E+00 0.  1.
     999901    1    3    3    0    0 -0.11456298718E+00 -0.58491694038E-01 -0.19910061214E-01  0.88957426157E+00  0.88000000000E+00 0.  1.
        -11    1    4    4    0    0  0.83808905030E-01  0.57443484490E-01  0.12391317370E-01  0.10235962261E+00  0.51100000000E-03 0.  1.
         11    1    4    4    0    0  0.40304715451E-01 -0.42036082771E-02  0.52779768991E-02  0.40868797037E-01  0.51100000000E-03 0. -1.
</event>
<event>
 8    1  0.2928569E+004  0.1043930E+01  0.7957747E-01            NaN
         13   -1    0    0    0    0  0.00000000000E+00  0.00000000000E+00  0.74505805969E-08  0.10566000000E+00  0.10566000000E+00 0. -1.
     999900   -1    0    0    0    0 -0.00000000000E+00 -0.00000000000E+00 -0.74505805969E-08  0.93827000000E+00  0.93827000000E+00 0. -1.
     999902    2    1    2    0    0  0.15460024276E-01 -0.91329603592E-03  0.58241789478E-02  0.10273840784E+01  0.10272508346E+01 0.  0.
     999903    2    3    3    0    0 -0.12097251379E+00  0.40703605995E-01  0.11499826375E-01  0.13588084403E+00  0.45168851366E-01 0.  0.
         14    1    1    2    0    0 -0.15460024276E-01  0.91329603592E-03 -0.58241789478E-02  0.16545921572E-01  0.00000000000E+00 0. -1.
     999901    1    3    3    0    0  0.13643253806E+00 -0.41616902031E-01 -0.56756474271E-02  0.89150323440E+00  0.88000000000E+00 0.  1.
        -11    1    4    4    0    0 -0.66757612581E-01  0.30626866582E-02 -0.73668664713E-02  0.67234594739E-01  0.51100000000E-03 0.  1.
         11    1    4    4    0    0 -0.54214901205E-01  0.37640919337E-01  0.18866692846E-01  0.68646249287E-01  0.51100000000E-03 0. -1.
</event>
<event>
 8    1  0.2928569E+004  0.1043930E+01  0.7957747E-01            NaN
         13   -1    0    0    0    0  0.00000000000E+00  0.00000000000E+00  0.74505805969E-08  0.10566000000E+00  0.10566000000E+00 0. -1.
     999900   -1    0    0    0    0 -0.00000000000E+00 -0.00000000000E+00 -0.74505805969E-08  0.93827000000E+00  0.93827000000E+00 0.  1.
     999902    2    1    2    0    0  0.51070112799E-02  0.95490050214E-02  0.11369180450E-01  0.10282289387E+01  0.10281090541E+01 0.  0.
     999903    2    3    3    0    0  0.42642554424E-01  0.91409477626E-01 -0.83928618354E-01  0.13851453262E+00  0.44364205391E-01 0.  0.
         14    1    1    2    0    0 -0.51070112799E-02 -0.95490050214E-02 -0.11369180450E-01  0.15701061276E-01  0.00000000000E+00 0. -1.
     999901    1    3    3    0    0 -0.37535543145E-01 -0.81860472605E-01  0.95297798803E-01  0.88971440611E+00  0.88000000000E+00 0. -1.
        -11    1    4    4    0    0 -0.14687274879E-02  0.25824369872E-01 -0.41238166792E-01  0.48681647066E-01  0.51100000000E-03 0. -1.
         11    1    4    4    0    0  0.44111281912E-01  0.65585107754E-01 -0.42690451562E-01  0.89832885552E-01  0.51100000000E-03 0.  1.
</event>
<event>
 8    1  0.2928569E+004  0.1043930E+01  0.7957747E-01            NaN
         13   -1    0    0    0    0  0.00000000000E+00  0.00000000000E+00  0.74505805969E-08  0.10566000000E+00  0.10566000000E+00 0. -1.
     999900   -1    0    0    0    0 -0.00000000000E+00 -0.00000000000E+00 -0.74505805969E-08  0.93827000000E+00  0.93827000000E+00 0.  1.
     999902    2    1    2    0    0  0.74823433877E-02  0.12540996659E-01  0.12363580078E-02  0.10292742625E+01  0.10291699164E+01 0.  0.
     999903    2    3    3    0    0  0.76105545654E-01  0.42525077964E-01  0.10058782280E+00  0.14052294603E+00  0.45037228259E-01 0.  0.
         14    1    1    2    0    0 -0.74823433877E-02 -0.12540996659E-01 -0.12363580078E-02  0.14655737474E-01  0.00000000000E+00 0. -1.
     999901    1    3    3    0    0 -0.68623202266E-01 -0.29984081305E-01 -0.99351464794E-01  0.88875131650E+00  0.88000000000E+00 0.  1.
        -11    1    4    4    0    0  0.54967108007E-01  0.98821757617E-02  0.40671485636E-01  0.69090312094E-01  0.51100000000E-03 0. -1.
         11    1    4    4    0    0  0.21138437647E-01  0.32642902202E-01  0.59916337165E-01  0.71432633933E-01  0.51100000000E-03 0.  1.
</event>
<event>
 8    1  0.2928569E+004  0.1043930E+01  0.7957747E-01            NaN
         13   -1    0    0    0    0  0.00000000000E+00  0.00000000000E+00  0.74505805969E-08  0.10566000000E+00  0.10566000000E+00 0. -1.
     999900   -1    0    0    0    0 -0.00000000000E+00 -0.00000000000E+00 -0.74505805969E-08  0.93827000000E+00  0.93827000000E+00 0. -1.
     999902    2    1    2    0    0  0.13475074496E-01  0.18739318372E-02 -0.37917461884E-02  0.10298067358E+01  0.10297098846E+01 0.  0.
     999903    2    3    3    0    0 -0.87606317614E-01 -0.85735326857E-01  0.45731290191E-01  0.13832181657E+00  0.44901680138E-01 0.  0.
         14    1    1    2    0    0 -0.13475074496E-01 -0.18739318372E-02  0.37917461884E-02  0.14123264225E-01  0.00000000000E+00 0.  1.
     999901    1    3    3    0    0  0.10108139211E+00  0.87609258694E-01 -0.49523036379E-01  0.89148491921E+00  0.88000000000E+00 0.  1.
        -11    1    4    4    0    0 -0.31515395472E-01 -0.73786566842E-02  0.21806073483E-01  0.39031150226E-01  0.51100000000E-03 0.  1.
         11    1    4    4    0    0 -0.56090922142E-01 -0.78356670173E-01  0.23925216708E-01  0.99290666343E-01  0.51100000000E-03 0. -1.
</event>
<event>
 8    1  0.2928569E+004  0.1043930E+01  0.7957747E-01            NaN
         13   -1    0    0    0    0  0.00000000000E+00  0.00000000000E+00  0.74505805969E-08  0.10566000000E+00  0.10566000000E+00 0. -1.
     999900   -1    0    0    0    0 -0.00000000000E+00 -0.00000000000E+00 -0.74505805969E-08  0.93827000000E+00  0.93827000000E+00 0. -1.
     999902    2    1    2    0    0 -0.10764701072E-01  0.70439070136E-02  0.75662066029E-02  0.10290054264E+01  0.10288971886E+01 0.  0.
     999903    2    3    3    0    0  0.98632260637E-01 -0.82291687949E-01 -0.20729865652E-01  0.13729403167E+00  0.43814142227E-01 0.  0.
         14    1    1    2    0    0  0.10764701072E-01 -0.70439070136E-02 -0.75662066029E-02  0.14924573614E-01  0.00000000000E+00 0.  1.
     999901    1    3    3    0    0 -0.10939696171E+00  0.89335594962E-01  0.28296072255E-01  0.89171139471E+00  0.88000000000E+00 0. -1.
        -11    1    4    4    0    0  0.44968865482E-01 -0.12053057613E-01 -0.14121643862E-01  0.48653437771E-01  0.51100000000E-03 0. -1.
         11    1    4    4    0    0  0.53663395155E-01 -0.70238630335E-01 -0.66082217896E-02  0.88640593901E-01  0.51100000000E-03 0.  1.
</event>
<event>
 8    1  0.2928569E+004  0.1043930E+01  0.7957747E-01            NaN
         13   -1    0    0    0    0  0.00000000000E+00  0.00000000000E+00  0.74505805969E-08  0.10566000000E+00  0.10566000000E+00 0.  1.
     999900   -1    0    0    0    0 -0.00000000000E+00 -0.00000000000E+00 -0.74505805969E-08  0.93827000000E+00  0.93827000000E+00 0. -1.
     999902    2    1    2    0    0  0.81355910189E-02 -0.11007563504E-01  0.45917764403E-03  0.10302345577E+01  0.10301435234E+01 0.  0.
     999903    2    3    3    0    0 -0.53671508488E-01 -0.83013913010E-01 -0.91664070537E-01  0.14035157395E+00  0.39042565322E-01 0.  0.
         14    1    1    2    0    0 -0.81355910189E-02  0.11007563504E-01 -0.45917764403E-03  0.13695442294E-01  0.00000000000E+00 0.  1.
     999901    1    3    3    0    0  0.61807099507E-01  0.72006349506E-01  0.92123248181E-01  0.88988298375E+00  0.88000000000E+00 0.  1.
        -11    1    4    4    0    0 -0.39106598041E-01 -0.81188707371E-01 -0.69689081345E-01  0.11391997803E+00  0.51100000000E-03 0.  1.
         11    1    4    4    0    0 -0.14564910447E-01 -0.18252056386E-02 -0.21974989192E-01  0.26431595921E-01  0.51100000000E-03 0. -1.
</event>
<event>
 8    1  0.2928569E+004  0.1043930E+01  0.7957747E-01            NaN
         13   -1    0    0    0    0  0.00000000000E+00  0.00000000000E+00  0.74505805969E-08  0.10566000000E+00  0.10566000000E+00 0.  1.
     999900   -1    0    0    0    0 -0.00000000000E+00 -0.00000000000E+00 -0.74505805969E-08  0.93827000000E+00  0.93827000000E+00 0.  1.
     999902    2    1    2    0    0 -0.16501502462E-02 -0.17298760958E-01  0.98238400314E-04  0.10265524347E+01  0.10264053397E+01 0.  0.
     999903    2    3    3    0    0  0.51077206692E-01  0.99079120503E-01 -0.62120972116E-01  0.13515173036E+00  0.44513165234E-01 0.  0.
         14    1    1    2    0    0  0.16501502462E-02  0.17298760958E-01 -0.98238400314E-04  0.17377565345E-01  0.00000000000E+00 0. -1.
     999901    1    3    3    0    0 -0.52727356938E-01 -0.11637788146E+00  0.62219210516E-01  0.89140070430E+00  0.88000000000E+00 0. -1.
        -11    1    4    4    0    0  0.52134539126E-01  0.60319301544E-01 -0.51608825834E-01  0.94974524656E-01  0.51100000000E-03 0. -1.
         11    1    4    4    0    0 -0.10573324344E-02  0.38759818959E-01 -0.10512146282E-01  0.40177205703E-01  0.51100000000E-03 0.  1.
</event>
<event>
 8    1  0.2928569E+004  0.1043930E+01  0.7957747E-01            NaN
         13   -1    0    0    0    0  0.00000000000E+00  0.00000000000E+00  0.74505805969E-08  0.10566000000E+00  0.10566000000E+00 0.  1.
     999900   -1    0    0    0    0 -0.00000000000E+00 -0.00000000000E+00 -0.74505805969E-08  0.93827000000E+00  0.93827000000E+00 0. -1.
     999902    2    1    2    0    0 -0.65567751901E-02  0.12793295281E-01  0.38350931541E-02  0.10290515712E+01  0.10289440065E+01 0.  0.
     999903    2    3    3    0    0 -0.71351904459E-01  0.62385952826E-01  0.93821191568E-01  0.14070741580E+00  0.44867131570E-01 0.  0.
         14    1    1    2    0    0  0.65567751901E-02 -0.12793295281E-01 -0.38350931541E-02  0.14878428833E-01  0.00000000000E+00 0.  1.
     999901    1    3    3    0    0  0.64795129269E-01 -0.49592657545E-01 -0.89986098414E-01  0.88834415536E+00  0.88000000000E+00 0. -1.
        -11    1    4    4    0    0 -0.58281005660E-01  0.25730725740E-01  0.71796563024E-01  0.95988298510E-01  0.51100000000E-03 0.  1.
         11    1    4    4    0    0 -0.13070898799E-01  0.36655227085E-01  0.22024628544E-01  0.44719117294E-01  0.51100000000E-03 0. -1.
</event>
<event>
 8    1  0.2928569E+004  0.1043930E+01  0.7957747E-01            NaN
         13   -1    0    0    0    0  0.00000000000E+00  0.00000000000E+00  0.74505805969E-08  0.10566000000E+00  0.10566000000E+00 0.  1.
     999900   -1    0    0    0    0 -0.00000000000E+00 -0.00000000000E+00 -0.74505805969E-08  0.93827000000E+00  0.93827000000E+00 0.  1.
     999902    2    1    2    0    0  0.13090935820E-01  0.38016494435E-02 -0.14083606802E-02  0.10302256715E+01  0.10301345182E+01 0.  0.
     999903    2    3    3    0    0  0.73820546813E-01  0.10586605464E+00 -0.37393580168E-01  0.14151865317E+00  0.44408948414E-01 0.  0.
         14    1    1    2    0    0 -0.13090935820E-01 -0.38016494435E-02  0.14083606802E-02  0.13704328474E-01  0.00000000000E+00 0.  1.
     999901    1    3    3    0    0 -0.60729610993E-01 -0.10206440520E+00  0.35985219488E-01  0.88870701836E+00  0.88000000000E+00 0.  1.
        -11    1    4    4    0    0  0.28350029607E-02  0.27026128035E-01 -0.20610199982E-01  0.34109973654E-01  0.51100000000E-03 0. -1.
         11    1    4    4    0    0  0.70985543852E-01  0.78839926606E-01 -0.16783380186E-01  0.10740867951E+00  0.51100000000E-03 0.  1.
</event>
<event>
 8    1  0.2928569E+004  0.1043930E+01  0.7957747E-01            NaN
         13   -1    0    0    0    0  0.00000000000E+00  0.00000000000E+00  0.74505805969E-08  0.10566000000E+00  0.10566000000E+00 0.  1.
     999900   -1    0    0    0    0 -0.00000000000E+00 -0.00000000000E+00 -0.74505805969E-08  0.93827000000E+00  0.93827000000E+00 0. -1.
     999902    2    1    2    0    0  0.96936935183E-02  0.82218717092E-02 -0.21438549103E-02  0.10310395779E+01  0.10309589944E+01 0.  0.
     999903    2    3    3    0    0  0.76679012451E-01 -0.91704116524E-01  0.59789226820E-01  0.14069810256E+00  0.43953253364E-01 0.  0.
         14    1    1    2    0    0 -0.96936935183E-02 -0.82218717092E-02  0.21438549103E-02  0.12890422115E-01  0.00000000000E+00 0.  1.
     999901    1    3    3    0    0 -0.66985318933E-01  0.99925988233E-01 -0.61933081730E-01  0.89034147533E+00  0.88000000000E+00 0. -1.
        -11    1    4    4    0    0  0.37497612421E-01 -0.35265349603E-01  0.49145557647E-01  0.71170659526E-01  0.51100000000E-03 0. -1.
         11    1    4    4    0    0  0.39181400030E-01 -0.56438766921E-01  0.10643669173E-01  0.69527443030E-01  0.51100000000E-03 0.  1.
</event>
<event>
 8    1  0.2928569E+004  0.1043930E+01  0.7957747E-01            NaN
         13   -1    0    0    0    0  0.00000000000E+00  0.00000000000E+00  0.74505805969E-08  0.10566000000E+00  0.10566000000E+00 0. -1.
     999900   -1    0    0    0    0 -0.00000000000E+00 -0.00000000000E+00 -0.74505805969E-08  0.93827000000E+00  0.93827000000E+00 0. -1.
     999902    2    1    2    0    0 -0.96779588756E-02  0.10870354364E-01 -0.34401383761E-02  0.10289746650E+01  0.10288659773E+01 0.  0.
     999903    2    3    3    0    0  0.12867615538E+00  0.20851601129E-01 -0.91124497002E-03  0.13810549309E+00  0.45606519479E-01 0.  0.
         14    1    1    2    0    0  0.96779588756E-02 -0.10870354364E-01  0.34401383761E-02  0.14955334969E-01  0.00000000000E+00 0. -1.
     999901    1    3    3    0    0 -0.13835411426E+00 -0.99812467648E-02 -0.25288934061E-02  0.89086917194E+00  0.88000000000E+00 0. -1.
        -11    1    4    4    0    0  0.98611735851E-01 -0.44056810886E-02 -0.32706561938E-02  0.98765595155E-01  0.51100000000E-03 0. -1.
         11    1    4    4    0    0  0.30064419533E-01  0.25257282217E-01  0.23594112238E-02  0.39339897931E-01  0.51100000000E-03 0.  1.
</event>
<event>
 8    1  0.2928569E+004  0.1043930E+01  0.7957747E-01            NaN
         13   -1    0    0    0    0  0.00000000000E+00  0.00000000000E+00  0.74505805969E-08  0.10566000000E+00  0.10566000000E+00 0.  1.
     999900   -1    0    0    0    0 -0.00000000000E+00 -0.00000000000E+00 -0.74505805969E-08  0.93827000000E+00  0.93827000000E+00 0.  1.
     999902    2    1    2    0    0  0.51037500289E-02  0.19104378075E-03 -0.15121904648E-01  0.10279688985E+01  0.10278449783E+01 0.  0.
     999903    2    3    3    0    0  0.18347736704E-01  0.15084829545E-01 -0.13040090673E+00  0.14022655050E+00  0.45770049869E-01 0.  0.
         14    1    1    2    0    0 -0.51037500289E-02 -0.19104378075E-03  0.15121904648E-01  0.15961101537E-01  0.00000000000E+00 0.  1.
     999901    1    3    3    0    0 -0.13243986675E-01 -0.14893785764E-01  0.11527900208E+00  0.88774234796E+00  0.88000000000E+00 0. -1.
        -11    1    4    4    0    0  0.39638890145E-02  0.19149411428E-01 -0.12097888726E+00  0.12255025360E+00  0.51100000000E-03 0.  1.
         11    1    4    4    0    0  0.14383847689E-01 -0.40645818833E-02 -0.94220194723E-02  0.17676296902E-01  0.51100000000E-03 0. -1.
</event>
<event>
 8    1  0.2928569E+004  0.1043930E+01  0.7957747E-01            NaN
         13   -1    0    0    0    0  0.00000000000E+00  0.00000000000E+00  0.74505805969E-08  0.10566000000E+00  0.10566000000E+00 0. -1.
     999900   -1    0    0    0    0 -0.00000000000E+00 -0.00000000000E+00 -0.74505805969E-08  0.93827000000E+00  0.93827000000E+00 0. -1.
     999902    2    1    2    0    0 -0.10133295869E-01 -0.56697183162E-02 -0.19463937866E-02  0.10321563922E+01  0.10320892404E+01 0.  0.
     999903    2    3    3    0    0  0.23648257030E-01  0.12700598036E+00 -0.29895614151E-01  0.14113159278E+00  0.48317901713E-01 0.  0.
         14    1    1    2    0    0  0.10133295869E-01  0.56697183162E-02  0.19463937866E-02  0.11773607762E-01  0.00000000000E+00 0.  1.
     999901    1    3    3    0    0 -0.33781552899E-01 -0.13267569868E+00  0.27949220364E-01  0.89102479946E+00  0.88000000000E+00 0. -1.
        -11    1    4    4    0    0 -0.14293005211E-01  0.21670170430E-01 -0.59792016233E-02  0.26643915957E-01  0.51100000000E-03 0.  1.
         11    1    4    4    0    0  0.37941262241E-01  0.10533580993E+00 -0.23916412528E-01  0.11448767682E+00  0.51100000000E-03 0. -1.
</event>
<event>
 8    1  0.2928569E+004  0.1043930E+01  0.7957747E-01            NaN
         13   -1    0    0    0    0  0.00000000000E+00  0.00000000000E+00  0.74505805969E-08  0.10566000000E+00  0.10566000000E+00 0. -1.
     999900   -1    0    0    0    0 -0.00000000000E+00 -0.00000000000E+00 -0.74505805969E-08  0.93827000000E+00  0.93827000000E+00 0. -1.
     999902    2    1    2    0    0 -0.76308614584E-03  0.11846814461E-01 -0.10358246601E-01  0.10281749187E+01  0.10280542013E+01 0.  0.
     999903    2    3    3    0    0 -0.86198698885E-02  0.75966811810E-01 -0.10876311755E+00  0.14033674555E+00  0.44941381376E-01 0.  0.
         14    1    1    2    0    0  0.76308614584E-03 -0.11846814461E-01  0.10358246601E-01  0.15755081275E-01  0.00000000000E+00 0. -1.
     999901    1    3    3    0    0  0.78567837426E-02 -0.64119997349E-01  0.98404870950E-01  0.88783817317E+00  0.88000000000E+00 0.  1.
        -11    1    4    4    0    0  0.89612355092E-02  0.43854764794E-01 -0.86741624650E-01  0.97611037823E-01  0.51100000000E-03 0.  1.
         11    1    4    4    0    0 -0.17581105398E-01  0.32112047016E-01 -0.22021492901E-01  0.42725707731E-01  0.51100000000E-03 0. -1.
</event>
<event>
 8    1  0.2928569E+004  0.1043930E+01  0.7957747E-01            NaN
         13   -1    0    0    0    0  0.00000000000E+00  0.00000000000E+00  0.74505805969E-08  0.10566000000E+00  0.10566000000E+00 0.  1.
     999900   -1    0    0    0    0 -0.00000000000E+00 -0.00000000000E+00 -0.74505805969E-08  0.93827000000E+00  0.93827000000E+00 0.  1.
     999902    2    1    2    0    0 -0.11540182661E-01  0.71876137163E-02  0.57552663138E-02  0.10291665080E+01  0.10290606107E+01 0.  0.
     999903    2    3    3    0    0  0.50579727439E-01  0.20744349509E-01  0.12045000124E+00  0.13944882772E+00  0.44149019126E-01 0.  0.
         14    1    1    2    0    0  0.11540182661E-01 -0.71876137163E-02 -0.57552663138E-02  0.14763492037E-01  0.00000000000E+00 0.  1.
     999901    1    3    3    0    0 -0.62119910100E-01 -0.13556735793E-01 -0.11469473493E+00  0.88971768024E+00  0.88000000000E+00 0.  1.
        -11    1    4    4    0    0  0.12095904383E-01 -0.56656813143E-02  0.67722530738E-01  0.69029074586E-01  0.51100000000E-03 0.  1.
         11    1    4    4    0    0  0.38483823056E-01  0.26410030824E-01  0.52727470501E-01  0.70419753135E-01  0.51100000000E-03 0. -1.
</event>
<event>
 7    1  0.2928569E+004  0.1043930E+01  0.7957747E-01            NaN
         13   -1    0    0    0    0  0.00000000000E+00  0.00000000000E+00  0.74505805969E-08  0.10566000000E+00  0.10566000000E+00 0. -1.
     999900   -1    0    0    0    0 -0.00000000000E+00 -0.00000000000E+00 -0.74505805969E-08  0.93827000000E+00  0.93827000000E+00 0. -1.
     999903    2    1    2    0    0  0.17318492625E-01  0.88352440680E-01  0.38214877669E-01  0.10785417013E+00  0.45453945676E-01 0.  0.
         14    1    1    2    0    0  0.46375780758E-01 -0.19492841381E-01 -0.27078589971E-02  0.50378729702E-01  0.00000000000E+00 0.  1.
     999901    1    1    2    0    0 -0.63694273384E-01 -0.68859599299E-01 -0.35507018672E-01  0.88569710017E+00  0.88000000000E+00 0. -1.
        -11    1    3    3    0    0  0.16676500705E-01  0.69120148573E-01  0.73576866188E-02  0.71484944484E-01  0.51100000000E-03 0. -1.
         11    1    3    3    0    0  0.64199192013E-03  0.19232292106E-01  0.30857191050E-01  0.36369225642E-01  0.51100000000E-03 0.  1.
</event>
<event>
 8    1  0.2928569E+004  0.1043930E+01  0.7957747E-01            NaN
         13   -1    0    0    0    0  0.00000000000E+00  0.00000000000E+00  0.74505805969E-08  0.10566000000E+00  0.10566000000E+00 0.  1.
     999900   -1    0    0    0    0 -0.00000000000E+00 -0.00000000000E+00 -0.74505805969E-08  0.93827000000E+00  0.93827000000E+00 0. -1.
     999902    2    1    2    0    0  0.95059901540E-02 -0.89130216368E-03  0.10026244848E-01  0.10300850062E+01  0.10299919592E+01 0.  0.
     999903    2    3    3    0    0  0.13045165097E+00 -0.12379133989E-01  0.23571897144E-01  0.14163505944E+00  0.48311277454E-01 0.  0.
         14    1    1    2    0    0 -0.95059901540E-02  0.89130216368E-03 -0.10026244848E-01  0.13844993828E-01  0.00000000000E+00 0. -1.
     999901    1    3    3    0    0 -0.12094566081E+00  0.11487831825E-01 -0.13545652297E-01  0.88844994673E+00  0.88000000000E+00 0. -1.
        -11    1    4    4    0    0  0.10277538806E+00 -0.29678120609E-01  0.16585727835E-01  0.10825395477E+00  0.51100000000E-03 0. -1.
         11    1    4    4    0    0  0.27676262906E-01  0.17298986620E-01  0.69861693095E-02  0.33381104672E-01  0.51100000000E-03 0.  1.
</event>
<event>
 8    1  0.2928569E+004  0.1043930E+01  0.7957747E-01            NaN
         13   -1    0    0    0    0  0.00000000000E+00  0.00000000000E+00  0.74505805969E-08  0.10566000000E+00  0.10566000000E+00 0.  1.
     999900   -1    0    0    0    0 -0.00000000000E+00 -0.00000000000E+00 -0.74505805969E-08  0.93827000000E+00  0.93827000000E+00 0. -1.
     999902    2    1    2    0    0 -0.61384059217E-02  0.35980957433E-02 -0.12197419868E-01  0.10298089741E+01  0.10297121539E+01 0.  0.
     999903    2    3    3    0    0  0.54291949261E-01 -0.11261513539E+00 -0.42347947965E-01  0.13960315677E+00  0.45452262981E-01 0.  0.
         14    1    1    2    0    0  0.61384059217E-02 -0.35980957433E-02  0.12197419868E-01  0.14121025872E-01  0.00000000000E+00 0.  1.
     999901    1    3    3    0    0 -0.60430355182E-01  0.11621323113E+00  0.30150528097E-01  0.89020581736E+00  0.88000000000E+00 0.  1.
        -11    1    4    4    0    0  0.60375149130E-01 -0.86991073036E-01 -0.27660505369E-01  0.10944391303E+00  0.51100000000E-03 0.  1.
         11    1    4    4    0    0 -0.60831998698E-02 -0.25624062350E-01 -0.14687442596E-01  0.30159243740E-01  0.51100000000E-03 0. -1.
</event>
<event>
 8    1  0.2928569E+004  0.1043930E+01  0.7957747E-01            NaN
         13   -1    0    0    0    0  0.00000000000E+00  0.00000000000E+00  0.74505805969E-08  0.10566000000E+00  0.10566000000E+00 0. -1.
     999900   -1    0    0    0    0 -0.00000000000E+00 -0.00000000000E+00 -0.74505805969E-08  0.93827000000E+00  0.93827000000E+00 0.  1.
     999902    2    1    2    0    0 -0.28482586065E-02 -0.20534773340E-01  0.10645508940E-02  0.10231713208E+01  0.10229607172E+01 0.  0.
     999903    2    3    3    0    0  0.98719283313E-01  0.53711347764E-01 -0.52865725805E-01  0.13258896818E+00  0.46418140216E-01 0.  0.
         14    1    1    2    0    0  0.28482586065E-02  0.20534773340E-01 -0.10645508940E-02  0.20758679193E-01  0.00000000000E+00 0.  1.
     999901    1    3    3    0    0 -0.10156754192E+00 -0.74246121104E-01  0.53930276699E-01  0.89058235263E+00  0.88000000000E+00 0.  1.
        -11    1    4    4    0    0  0.10127578090E-01  0.24837626182E-01 -0.32528564803E-02  0.27024390994E-01  0.51100000000E-03 0. -1.
         11    1    4    4    0    0  0.88591705223E-01  0.28873721582E-01 -0.49612869324E-01  0.10556457718E+00  0.51100000000E-03 0.  1.
</event>
<event>
 7    1  0.2928569E+004  0.1043930E+01  0.7957747E-01            NaN
         13   -1    0    0    0    0  0.00000000000E+00  0.00000000000E+00  0.74505805969E-08  0.10566000000E+00  0.10566000000E+00 0. -1.
     999900   -1    0    0    0    0 -0.00000000000E+00 -0.00000000000E+00 -0.74505805969E-08  0.93827000000E+00  0.93827000000E+00 0. -1.
     999903    2    1    2    0    0 -0.87961564503E-01 -0.26290621114E-01  0.46418679002E-01  0.11225833195E+00  0.44931122216E-01 0.  0.
         14    1    1    2    0    0 -0.28248027826E-01 -0.25263580705E-01  0.14203846610E-01  0.40471580704E-01  0.00000000000E+00 0. -1.
     999901    1    1    2    0    0  0.11620959233E+00  0.51554201819E-01 -0.60622525612E-01  0.89120008735E+00  0.88000000000E+00 0. -1.
        -11    1    3    3    0    0 -0.66445859012E-02  0.10603563053E-01  0.90821087538E-02  0.15470355253E-01  0.51100000000E-03 0. -1.
         11    1    3    3    0    0 -0.81316978602E-01 -0.36894184167E-01  0.37336570248E-01  0.96787976697E-01  0.51100000000E-03 0.  1.
</event>
<event>
 8    1  0.2928569E+004  0.1043930E+01  0.7957747E-01            NaN
         13   -1    0    0    0    0  0.00000000000E+00  0.00000000000E+00  0.74505805969E-08  0.10566000000E+00  0.10566000000E+00 0. -1.
     999900   -1    0    0    0    0 -0.00000000000E+00 -0.00000000000E+00 -0.74505805969E-08  0.93827000000E+00  0.93827000000E+00 0.  1.
     999902    2    1    2    0    0 -0.42990880616E-02 -0.11017366757E-01 -0.78214491812E-02  0.10297511568E+01  0.10296535365E+01 0.  0.
     999903    2    3    3    0    0 -0.17535230368E-01  0.12746775702E+00 -0.25026191527E-01  0.13865670153E+00  0.45209039297E-01 0.  0.
         14    1    1    2    0    0  0.42990880616E-02  0.11017366757E-01  0.78214491812E-02  0.14178843243E-01  0.00000000000E+00 0. -1.
     999901    1    3    3    0    0  0.13236142307E-01 -0.13848512378E+00  0.17204742346E-01  0.89109445522E+00  0.88000000000E+00 0. -1.
        -11    1    4    4    0    0 -0.26495592723E-01  0.12373130144E+00 -0.21718208679E-01  0.12838766724E+00  0.51100000000E-03 0.  1.
         11    1    4    4    0    0  0.89603623544E-02  0.37364555788E-02 -0.33079828482E-02  0.10269034294E-01  0.51100000000E-03 0. -1.
</event>
<event>
 8    1  0.2928569E+004  0.1043930E+01  0.7957747E-01            NaN
         13   -1    0    0    0    0  0.00000000000E+00  0.00000000000E+00  0.74505805969E-08  0.10566000000E+00  0.10566000000E+00 0. -1.
     999900   -1    0    0    0    0 -0.00000000000E+00 -0.00000000000E+00 -0.74505805969E-08  0.93827000000E+00  0.93827000000E+00 0. -1.
     999902    2    1    2    0    0  0.33685936597E-02 -0.12312883318E-01  0.30256378636E-02  0.10308109679E+01  0.10307274822E+01 0.  0.
     999903    2    3    3    0    0 -0.38369821381E-01  0.11260186665E+00  0.57127227947E-01  0.13936676207E+00  0.44812393740E-01 0.  0.
         14    1    1    2    0    0 -0.33685936597E-02  0.12312883318E-01 -0.30256378636E-02  0.13119032103E-01  0.00000000000E+00 0.  1.
     999901    1    3    3    0    0  0.41738415041E-01 -0.12491474996E+00 -0.54101590083E-01  0.89144420582E+00  0.88000000000E+00 0. -1.
        -11    1    4    4    0    0 -0.47630280268E-01  0.79469711077E-01  0.43592040185E-01  0.10239436345E+00  0.51100000000E-03 0. -1.
         11    1    4    4    0    0  0.92604588868E-02  0.33132155569E-01  0.13535187762E-01  0.36972398627E-01  0.51100000000E-03 0.  1.
</event>
<event>
 8    1  0.2928569E+004  0.1043930E+01  0.7957747E-01            NaN
         13   -1    0    0    0    0  0.00000000000E+00  0.00000000000E+00  0.74505805969E-08  0.10566000000E+00  0.10566000000E+00 0.  1.
     999900   -1    0    0    0    0 -0.00000000000E+00 -0.00000000000E+00 -0.74505805969E-08  0.93827000000E+00  0.93827000000E+00 0. -1.
     999902    2    1    2    0    0  0.52779176065E-02  0.90596726138E-02  0.61905346501E-02  0.10317539250E+01  0.10316820756E+01 0.  0.
     999903    2    3    3    0    0  0.11660616009E+00  0.29319727600E-01 -0.60726267698E-01  0.14198861563E+00  0.44904836966E-01 0.  0.
         14    1    1    2    0    0 -0.52779176065E-02 -0.90596726138E-02 -0.61905346501E-02  0.12176074958E-01  0.00000000000E+00 0.  1.
     999901    1    3    3    0    0 -0.11132824248E+00 -0.20260054986E-01  0.66916802348E-01  0.88976530941E+00  0.88000000000E+00 0. -1.
        -11    1    4    4    0    0  0.79956239719E-01 -0.12229935715E-02 -0.30945547584E-01  0.85746043754E-01  0.51100000000E-03 0.  1.
         11    1    4    4    0    0  0.36649920366E-01  0.30542721171E-01 -0.29780720114E-01  0.56242571873E-01  0.51100000000E-03 0. -1.
</event>
<event>
 8    1  0.2928569E+004  0.1043930E+01  0.7957747E-01            NaN
         13   -1    0    0    0    0  0.00000000000E+00  0.00000000000E+00  0.74505805969E-08  0.10566000000E+00  0.10566000000E+00 0. -1.
     999900   -1    0    0    0    0 -0.00000000000E+00 -0.00000000000E+00 -0.74505805969E-08  0.93827000000E+00  0.93827000000E+00 0. -1.
     999902    2    1    2    0    0 -0.84500886633E-02  0.21748722838E-02 -0.10267844498E-01  0.10304554797E+01  0.10303673776E+01 0.  0.
     999903    2    3    3    0    0  0.76427772340E-02 -0.13104050647E+00  0.13124695031E-01  0.13997665993E+00  0.46810055824E-01 0.  0.
         14    1    1    2    0    0  0.84500886633E-02 -0.21748722838E-02  0.10267844498E-01  0.13474520344E-01  0.00000000000E+00 0. -1.
     999901    1    3    3    0    0 -0.16092865897E-01  0.13321537875E+00 -0.23392539529E-01  0.89047881972E+00  0.88000000000E+00 0.  1.
        -11    1    4    4    0    0 -0.37799923109E-03 -0.67376356575E-01  0.29801330446E-01  0.73675618260E-01  0.51100000000E-03 0. -1.
         11    1    4    4    0    0  0.80207764651E-02 -0.63664149896E-01 -0.16676635415E-01  0.66301041672E-01  0.51100000000E-03 0.  1.
</event>
<event>
 8    1  0.2928569E+004  0.1043930E+01  0.7957747E-01            NaN
         13   -1    0    0    0    0  0.00000000000E+00  0.00000000000E+00  0.74505805969E-08  0.10566000000E+00  0.10566000000E+00 0.  1.
     999900   -1    0    0    0    0 -0.00000000000E+00 -0.00000000000E+00 -0.74505805969E-08  0.93827000000E+00  0.93827000000E+00 0.  1.
     999902    2    1    2    0    0  0.11340069767E-01  0.27592975187E-02  0.67131951986E-02  0.10304660520E+01  0.10303780891E+01 0.  0.
     999903    2    3    3    0    0  0.30164960325E-02 -0.20002062529E-02  0.13364771650E+00  0.14130672578E+00  0.45746896658E-01 0.  0.
         14    1    1    2    0    0 -0.11340069767E-01 -0.27592975187E-02 -0.67131951986E-02  0.13463947968E-01  0.00000000000E+00 0. -1.
     999901    1    3    3    0    0  0.83235737340E-02  0.47595037715E-02 -0.12693452130E+00  0.88915932625E+00  0.88000000000E+00 0.  1.
        -11    1    4    4    0    0  0.19532105501E-02  0.20325078378E-01  0.38664075500E-01  0.43727516483E-01  0.51100000000E-03 0.  1.
         11    1    4    4    0    0  0.10632854824E-02 -0.22325284631E-01  0.94983640997E-01  0.97579209302E-01  0.51100000000E-03 0. -1.
</event>
<event>
 8    1  0.2928569E+004  0.1043930E+01  0.7957747E-01            NaN
         13   -1    0    0    0    0  0.00000000000E+00  0.00000000000E+00  0.74505805969E-08  0.10566000000E+00  0.10566000000E+00 0. -1.
     999900   -1    0    0    0    0 -0.00000000000E+00 -0.00000000000E+00 -0.74505805969E-08  0.93827000000E+00  0.93827000000E+00 0. -1.
     999902    2    1    2    0    0 -0.43323287448E-02 -0.12169172247E-01 -0.68633349074E-02  0.10293025193E+01  0.10291985780E+01 0.  0.
     999903    2    3    3    0    0  0.73381206287E-01  0.72732765541E-01  0.78977155394E-01  0.13766564123E+00  0.45161721411E-01 0.  0.
         14    1    1    2    0    0  0.43323287448E-02  0.12169172247E-01  0.68633349074E-02  0.14627480698E-01  0.00000000000E+00 0.  1.
     999901    1    3    3    0    0 -0.77713535032E-01 -0.84901937788E-01 -0.85840490302E-01  0.89163687807E+00  0.88000000000E+00 0.  1.
        -11    1    4    4    0    0  0.53319862078E-01  0.22186137848E-01  0.33456741760E-01  0.66744640945E-01  0.51100000000E-03 0. -1.
         11    1    4    4    0    0  0.20061344209E-01  0.50546627692E-01  0.45520413634E-01  0.70921000282E-01  0.51100000000E-03 0.  1.
</event>
<event>
 8    1  0.2928569E+004  0.1043930E+01  0.7957747E-01            NaN
         13   -1    0    0    0    0  0.00000000000E+00  0.00000000000E+00  0.74505805969E-08  0.10566000000E+00  0.10566000000E+00 0.  1.
     999900   -1    0    0    0    0 -0.00000000000E+00 -0.00000000000E+00 -0.74505805969E-08  0.93827000000E+00  0.93827000000E+00 0.  1.
     999902    2    1    2    0    0  0.45528916911E-02  0.11881455123E-02 -0.12507467681E-01  0.10305667197E+01  0.10304800757E+01 0.  0.
     999903    2    3    3    0    0  0.12129068601E+00 -0.87683536001E-02 -0.56880902708E-01  0.14169336189E+00  0.45312880861E-01 0.  0.
         14    1    1    2    0    0 -0.45528916911E-02 -0.11881455123E-02  0.12507467681E-01  0.13363280298E-01  0.00000000000E+00 0.  1.
     999901    1    3    3    0    0 -0.11673779432E+00  0.99564991124E-02  0.44373435026E-01  0.88887335782E+00  0.88000000000E+00 0. -1.
        -11    1    4    4    0    0  0.10885436279E+00 -0.74648636935E-03 -0.33280075566E-01  0.11383169195E+00  0.51100000000E-03 0.  1.
         11    1    4    4    0    0  0.12436323220E-01 -0.80218672307E-02 -0.23600827142E-01  0.27861669940E-01  0.51100000000E-03 0. -1.
</event>
<event>
 8    1  0.2928569E+004  0.1043930E+01  0.7957747E-01            NaN
         13   -1    0    0    0    0  0.00000000000E+00  0.00000000000E+00  0.74505805969E-08  0.10566000000E+00  0.10566000000E+00 0. -1.
     999900   -1    0    0    0    0 -0.00000000000E+00 -0.00000000000E+00 -0.74505805969E-08  0.93827000000E+00  0.93827000000E+00 0.  1.
     999902    2    1    2    0    0  0.11447205320E-01 -0.47352280360E-02  0.56208221698E-02  0.10303265249E+01  0.10302367171E+01 0.  0.
     999903    2    3    3    0    0 -0.10209516708E+00 -0.70884259515E-01 -0.43402940167E-01  0.13921996895E+00  0.45281156709E-01 0.  0.
         14    1    1    2    0    0 -0.11447205320E-01  0.47352280360E-02 -0.56208221698E-02  0.13603475147E-01  0.00000000000E+00 0.  1.
     999901    1    3    3    0    0  0.11354237240E+00  0.66149031479E-01  0.49023762337E-01  0.89110655590E+00  0.88000000000E+00 0. -1.
        -11    1    4    4    0    0 -0.84041928979E-01 -0.37021395788E-01 -0.19121930062E-01  0.93805857508E-01  0.51100000000E-03 0. -1.
         11    1    4    4    0    0 -0.18053238097E-01 -0.33862863728E-01 -0.24281010104E-01  0.45414111445E-01  0.51100000000E-03 0.  1.
</event>
<event>
 8    1  0.2928569E+004  0.1043930E+01  0.7957747E-01            NaN
         13   -1    0    0    0    0  0.00000000000E+00  0.00000000000E+00  0.74505805969E-08  0.10566000000E+00  0.10566000000E+00 0.  1.
     999900   -1    0    0    0    0 -0.00000000000E+00 -0.00000000000E+00 -0.74505805969E-08  0.93827000000E+00  0.93827000000E+00 0. -1.
     999902    2    1    2    0    0 -0.12441136872E-02 -0.10327447162E-01  0.90750749159E-02  0.10301256178E+01  0.10300331196E+01 0.  0.
     999903    2    3    3    0    0  0.12299753572E+00 -0.50197360774E-01  0.76613951218E-02  0.14050345307E+00  0.45103819422E-01 0.  0.
         14    1    1    2    0    0  0.12441136872E-02  0.10327447162E-01 -0.90750749159E-02  0.13804382220E-01  0.00000000000E+00 0. -1.
     999901    1    3    3    0    0 -0.12424164941E+00  0.39869913612E-01  0.14136797941E-02  0.88962216471E+00  0.88000000000E+00 0. -1.
        -11    1    4    4    0    0  0.71479622088E-01 -0.64625816844E-02 -0.41758090755E-02  0.71894365832E-01  0.51100000000E-03 0. -1.
         11    1    4    4    0    0  0.51517913632E-01 -0.43734779089E-01  0.11837204197E-01  0.68609087235E-01  0.51100000000E-03 0.  1.
</event>
<event>
 8    1  0.2928569E+004  0.1043930E+01  0.7957747E-01            NaN
         13   -1    0    0    0    0  0.00000000000E+00  0.00000000000E+00  0.74505805969E-08  0.10566000000E+00  0.10566000000E+00 0.  1.
     999900   -1    0    0    0    0 -0.00000000000E+00 -0.00000000000E+00 -0.74505805969E-08  0.93827000000E+00  0.93827000000E+00 0. -1.
     999902    2    1    2    0    0  0.13697184702E-01 -0.31981690091E-02  0.23870361017E-02  0.10296632872E+01  0.10295644447E+01 0.  0.
     999903    2    3    3    0    0 -0.35868962841E-01 -0.79780032536E-01 -0.98484824190E-01  0.13921580584E+00  0.45059337684E-01 0.  0.
         14    1    1    2    0    0 -0.13697184702E-01  0.31981690091E-02 -0.23870361017E-02  0.14266712835E-01  0.00000000000E+00 0.  1.
     999901    1    3    3    0    0  0.49566147543E-01  0.76581863526E-01  0.10087186029E+00  0.89044748133E+00  0.88000000000E+00 0. -1.
        -11    1    4    4    0    0 -0.42997597294E-01 -0.44839177912E-01 -0.54974100063E-01  0.82956362310E-01  0.51100000000E-03 0. -1.
         11    1    4    4    0    0  0.71286344531E-02 -0.34940854623E-01 -0.43510724128E-01  0.56259443528E-01  0.51100000000E-03 0.  1.
</event>
<event>
 7    1  0.2928569E+004  0.1043930E+01  0.7957747E-01            NaN
         13   -1    0    0    0    0  0.00000000000E+00  0.00000000000E+00  0.74505805969E-08  0.10566000000E+00  0.10566000000E+00 0.  1.
     999900   -1    0    0    0    0 -0.00000000000E+00 -0.00000000000E+00 -0.74505805969E-08  0.93827000000E+00  0.93827000000E+00 0. -1.
     999902    2    1    2    0    0 -0.11316255233E-01 -0.66763492136E-02  0.96159156323E-03  0.10307559372E+01  0.10306717451E+01 0.  0.
         14    1    1    2    0    0  0.11316255233E-01  0.66763492136E-02 -0.96159156323E-03  0.13174062762E-01  0.00000000000E+00 0. -1.
     999901    1    3    3    0    0  0.80596727706E-01  0.95874040107E-01 -0.14965390911E-01  0.88899472834E+00  0.88000000000E+00 0. -1.
        -11    1    3    3    0    0 -0.44798919409E-01 -0.65591530311E-01 -0.13239165544E-02  0.79443098535E-01  0.51100000000E-03 0.  1.
         11    1    3    3    0    0 -0.47114063530E-01 -0.36958859010E-01  0.17250899029E-01  0.62318110368E-01  0.51100000000E-03 0. -1.
</event>
<event>
 8    1  0.2928569E+004  0.1043930E+01  0.7957747E-01            NaN
         13   -1    0    0    0    0  0.00000000000E+00  0.00000000000E+00  0.74505805969E-08  0.10566000000E+00  0.10566000000E+00 0. -1.
     999900   -1    0    0    0    0 -0.00000000000E+00 -0.00000000000E+00 -0.74505805969E-08  0.93827000000E+00  0.93827000000E+00 0.  1.
     999902    2    1    2    0    0  0.10095413908E-01  0.52573402538E-02 -0.54166275904E-02  0.10313245701E+01  0.10312475319E+01 0.  0.
     999903    2    3    3    0    0 -0.24270767834E-01  0.83222921471E-01  0.10175006163E+00  0.14073804113E+00  0.44034036271E-01 0.  0.
         14    1    1    2    0    0 -0.10095413908E-01 -0.52573402538E-02  0.54166275904E-02  0.12605429901E-01  0.00000000000E+00 0.  1.
     999901    1    3    3    0    0  0.34366181743E-01 -0.77965581217E-01 -0.10716668922E+00  0.89058652897E+00  0.88000000000E+00 0. -1.
        -11    1    4    4    0    0 -0.26141044334E-01  0.24953480330E-01  0.55903031632E-01  0.66569065234E-01  0.51100000000E-03 0.  1.
         11    1    4    4    0    0  0.18702764993E-02  0.58269441140E-01  0.45847029997E-01  0.74168975897E-01  0.51100000000E-03 0. -1.
</event>
<event>
 8    1  0.2928569E+004  0.1043930E+01  0.7957747E-01            NaN
         13   -1    0    0    0    0  0.00000000000E+00  0.00000000000E+00  0.74505805969E-08  0.10566000000E+00  0.10566000000E+00 0.  1.
     999900   -1    0    0    0    0 -0.00000000000E+00 -0.00000000000E+00 -0.74505805969E-08  0.93827000000E+00  0.93827000000E+00 0.  1.
     999902    2    1    2    0    0  0.49210348034E-02  0.17765126444E-02 -0.12451399752E-01  0.10304240777E+01  0.10303355619E+01 0.  0.
     999903    2    3    3    0    0 -0.47376934376E-01  0.64231657813E-01 -0.10674371789E+00  0.14164583542E+00  0.47948322238E-01 0.  0.
         14    1    1    2    0    0 -0.49210348034E-02 -0.17765126444E-02  0.12451399752E-01  0.13505922275E-01  0.00000000000E+00 0.  1.
     999901    1    3    3    0    0  0.52297969179E-01 -0.62455145168E-01  0.94292318140E-01  0.88877824231E+00  0.88000000000E+00 0.  1.
        -11    1    4    4    0    0 -0.21223853184E-01  0.27394127625E-01 -0.84407887960E-01  0.91246056590E-01  0.51100000000E-03 0.  1.
         11    1    4    4    0    0 -0.26153081192E-01  0.36837530187E-01 -0.22335829933E-01  0.50399778828E-01  0.51100000000E-03 0. -1.
</event>
<event>
 8    1  0.2928569E+004  0.1043930E+01  0.7957747E-01            NaN
         13   -1    0    0    0    0  0.00000000000E+00  0.00000000000E+00  0.74505805969E-08  0.10566000000E+00  0.10566000000E+00 0.  1.
     999900   -1    0    0    0    0 -0.00000000000E+00 -0.00000000000E+00 -0.74505805969E-08  0.93827000000E+00  0.93827000000E+00 0. -1.
     999902    2    1    2    0    0  0.15465420300E-01 -0.13926023855E-01  0.94378937840E-02  0.10210785842E+01  0.10208228484E+01 0.  0.
     999903    2    3    3    0    0 -0.23583842227E-01  0.24419750316E-01  0.11978367297E+00  0.13250026221E+00  0.45339490024E-01 0.  0.
         14    1    1    2    0    0 -0.15465420300E-01  0.13926023855E-01 -0.94378937840E-02  0.22851415811E-01  0.00000000000E+00 0.  1.
     999901    1    3    3    0    0  0.39049262527E-01 -0.38345774171E-01 -0.11034577919E+00  0.88857832198E+00  0.88000000000E+00 0. -1.
        -11    1    4    4    0    0 -0.13461470823E-01 -0.11973458199E-01  0.28662025448E-01  0.33857757187E-01  0.51100000000E-03 0. -1.
         11    1    4    4    0    0 -0.10122371404E-01  0.36393208515E-01  0.91121647526E-01  0.98642505025E-01  0.51100000000E-03 0.  1.
</event>
<event>
 8    1  0.2928569E+004  0.1043930E+01  0.7957747E-01            NaN
         13   -1    0    0    0    0  0.00000000000E+00  0.00000000000E+00  0.74505805969E-08  0.10566000000E+00  0.10566000000E+00 0. -1.
     999900   -1    0    0    0    0 -0.00000000000E+00 -0.00000000000E+00 -0.74505805969E-08  0.93827000000E+00  0.93827000000E+00 0. -1.
     999902    2    1    2    0    0  0.11252722863E-01  0.50306122378E-02  0.90164954793E-03  0.10315710436E+01  0.10314970064E+01 0.  0.
     999903    2    3    3    0    0  0.90454745922E-01 -0.68122043651E-01 -0.71963416379E-01  0.14200171558E+00  0.46508924314E-01 0.  0.
         14    1    1    2    0    0 -0.11252722863E-01 -0.50306122378E-02 -0.90164954793E-03  0.12358956397E-01  0.00000000000E+00 0.  1.
     999901    1    3    3    0    0 -0.79202023059E-01  0.73152655889E-01  0.72865065927E-01  0.88956932802E+00  0.88000000000E+00 0.  1.
        -11    1    4    4    0    0  0.84029660980E-01 -0.59381600341E-01 -0.43823254941E-01  0.11183871055E+00  0.51100000000E-03 0. -1.
         11    1    4    4    0    0  0.64250849419E-02 -0.87404433099E-02 -0.28140161438E-01  0.30163005031E-01  0.51100000000E-03 0.  1.
</event>
<event>
 8    1  0.2928569E+004  0.1043930E+01  0.7957747E-01            NaN
         13   -1    0    0    0    0  0.00000000000E+00  0.00000000000E+00  0.74505805969E-08  0.10566000000E+00  0.10566000000E+00 0.  1.
     999900   -1    0    0    0    0 -0.00000000000E+00 -0.00000000000E+00 -0.74505805969E-08  0.93827000000E+00  0.93827000000E+00 0.  1.
     999902    2    1    2    0    0 -0.86073350198E-02 -0.98468631423E-02  0.28857204662E-02  0.10305369304E+01  0.10304498972E+01 0.  0.
     999903    2    3    3    0    0  0.40018680380E-01  0.85139671389E-01 -0.91987347541E-01  0.13902819231E+00  0.44909995826E-01 0.  0.
         14    1    1    2    0    0  0.86073350198E-02  0.98468631423E-02 -0.28857204662E-02  0.13393069570E-01  0.00000000000E+00 0. -1.
     999901    1    3    3    0    0 -0.48626015399E-01 -0.94986534531E-01  0.94873068007E-01  0.89150873812E+00  0.88000000000E+00 0. -1.
        -11    1    4    4    0    0 -0.85785650229E-02  0.52707288063E-02 -0.47055887259E-02  0.11125468361E-01  0.51100000000E-03 0.  1.
         11    1    4    4    0    0  0.48597245403E-01  0.79868942583E-01 -0.87281758815E-01  0.12790272395E+00  0.51100000000E-03 0. -1.
</event>
<event>
 8    1  0.2928569E+004  0.1043930E+01  0.7957747E-01            NaN
         13   -1    0    0    0    0  0.00000000000E+00  0.00000000000E+00  0.74505805969E-08  0.10566000000E+00  0.10566000000E+00 0. -1.
     999900   -1    0    0    0    0 -0.00000000000E+00 -0.00000000000E+00 -0.74505805969E-08  0.93827000000E+00  0.93827000000E+00 0. -1.
     999902    2    1    2    0    0  0.45497027801E-02  0.83408821500E-02  0.73425515590E-02  0.10319223702E+01  0.10318525064E+01 0.  0.
     999903    2    3    3    0    0 -0.10324101292E+00  0.85627123053E-01 -0.13628942083E-01  0.14173598241E+00  0.43733622038E-01 0.  0.
         14    1    1    2    0    0 -0.45497027801E-02 -0.83408821500E-02 -0.73425515590E-02  0.12007629817E-01  0.00000000000E+00 0.  1.
     999901    1    3    3    0    0  0.10779071570E+00 -0.77286240903E-01  0.20971493642E-01  0.89018638777E+00  0.88000000000E+00 0. -1.
        -11    1    4    4    0    0 -0.37579415975E-01  0.13704551984E-01  0.10588828555E-01  0.41381296031E-01  0.51100000000E-03 0. -1.
         11    1    4    4    0    0 -0.65661596949E-01  0.71922571070E-01 -0.24217770638E-01  0.10035468638E+00  0.51100000000E-03 0.  1.
</event>
<event>
 8    1  0.2928569E+004  0.1043930E+01  0.7957747E-01            NaN
         13   -1    0    0    0    0  0.00000000000E+00  0.00000000000E+00  0.74505805969E-08  0.10566000000E+00  0.10566000000E+00 0. -1.
     999900   -1    0    0    0    0 -0.00000000000E+00 -0.00000000000E+00 -0.74505805969E-08  0.93827000000E+00  0.93827000000E+00 0. -1.
     999902    2    1    2    0    0 -0.98567039656E-02 -0.65538310274E-02  0.72048183986E-02  0.10300729901E+01  0.10299797805E+01 0.  0.
     999903    2    3    3    0    0 -0.19216893090E-01  0.13024546960E+00 -0.72666219251E-02  0.13933673042E+00  0.45041639818E-01 0.  0.
         14    1    1    2    0    0  0.98567039656E-02  0.65538310274E-02 -0.72048183986E-02  0.13857009864E-01  0.00000000000E+00 0.  1.
     999901    1    3    3    0    0  0.93601891242E-02 -0.13679930063E+00  0.14471440324E-01  0.89073625972E+00  0.88000000000E+00 0.  1.
        -11    1    4    4    0    0 -0.25265079017E-01  0.89094757242E-01  0.12203039878E-01  0.93409717316E-01  0.51100000000E-03 0.  1.
         11    1    4    4    0    0  0.60481859276E-02  0.41150712359E-01 -0.19469661803E-01  0.45927013101E-01  0.51100000000E-03 0. -1.
</event>
<event>
 8    1  0.2928569E+004  0.1043930E+01  0.7957747E-01            NaN
         13   -1    0    0    0    0  0.00000000000E+00  0.00000000000E+00  0.74505805969E-08  0.10566000000E+00  0.10566000000E+00 0. -1.
     999900   -1    0    0    0    0 -0.00000000000E+00 -0.00000000000E+00 -0.74505805969E-08  0.93827000000E+00  0.93827000000E+00 0.  1.
     999902    2    1    2    0    0  0.44281698993E-02 -0.83998446883E-02  0.11645632350E-01  0.10289037951E+01  0.10287940673E+01 0.  0.
     999903    2    3    3    0    0  0.13094925422E+00  0.14368593952E-01 -0.67505524583E-02  0.13937335374E+00  0.45002201083E-01 0.  0.
         14    1    1    2    0    0 -0.44281698993E-02  0.83998446883E-02 -0.11645632350E-01  0.15026204853E-01  0.00000000000E+00 0. -1.
     999901    1    3    3    0    0 -0.12652108432E+00 -0.22768438641E-01  0.18396184809E-01  0.88953044141E+00  0.88000000000E+00 0. -1.
        -11    1    4    4    0    0  0.11015315206E+00  0.47028322260E-02  0.10383030759E-01  0.11074250308E+00  0.51100000000E-03 0. -1.
         11    1    4    4    0    0  0.20796102157E-01  0.96657617264E-02 -0.17133583218E-01  0.28630850661E-01  0.51100000000E-03 0.  1.
</event>
<event>
 8    1  0.2928569E+004  0.1043930E+01  0.7957747E-01            NaN
         13   -1    0    0    0    0  0.00000000000E+00  0.00000000000E+00  0.74505805969E-08  0.10566000000E+00  0.10566000000E+00 0. -1.
     999900   -1    0    0    0    0 -0.00000000000E+00 -0.00000000000E+00 -0.74505805969E-08  0.93827000000E+00  0.93827000000E+00 0.  1.
     999902    2    1    2    0    0 -0.87802001331E-02  0.55793180491E-02  0.95014614691E-02  0.10298410513E+01  0.10297446735E+01 0.  0.
     999903    2    3    3    0    0  0.15369414770E-01  0.66575802752E-01  0.11474462985E+00  0.14114543442E+00  0.45685305681E-01 0.  0.
         14    1    1    2    0    0  0.87802001331E-02 -0.55793180491E-02 -0.95014614691E-02  0.14088948659E-01  0.00000000000E+00 0. -1.
     999901    1    3    3    0    0 -0.24149614903E-01 -0.60996484703E-01 -0.10524316838E+00  0.88869561692E+00  0.88000000000E+00 0.  1.
        -11    1    4    4    0    0 -0.28854746954E-02  0.22494721640E-01  0.77103362978E-01  0.80371189921E-01  0.51100000000E-03 0.  1.
         11    1    4    4    0    0  0.18254889465E-01  0.44081081113E-01  0.37641266873E-01  0.60774244498E-01  0.51100000000E-03 0. -1.
</event>
<event>
 8    1  0.2928569E+004  0.1043930E+01  0.7957747E-01            NaN
         13   -1    0    0    0    0  0.00000000000E+00  0.00000000000E+00  0.74505805969E-08  0.10566000000E+00  0.10566000000E+00 0. -1.
     999900   -1    0    0    0    0 -0.00000000000E+00 -0.00000000000E+00 -0.74505805969E-08  0.93827000000E+00  0.93827000000E+00 0.  1.
     999902    2    1    2    0    0 -0.59912204089E-03 -0.12555937215E-01 -0.51311799940E-02  0.10303528311E+01  0.10302633727E+01 0.  0.
     999903    2    3    3    0    0  0.17235592465E-01 -0.98179577767E-01  0.88805294067E-01  0.14104211713E+00  0.45499488044E-01 0.  0.
         14    1    1    2    0    0  0.59912204089E-03  0.12555937215E-01  0.51311799940E-02  0.13577168877E-01  0.00000000000E+00 0. -1.
     999901    1    3    3    0    0 -0.17834714506E-01  0.85623640551E-01 -0.93936474061E-01  0.88931071399E+00  0.88000000000E+00 0.  1.
        -11    1    4    4    0    0  0.12859133141E-01 -0.51579665998E-01  0.17925978406E-01  0.56101881184E-01  0.51100000000E-03 0.  1.
         11    1    4    4    0    0  0.43764593244E-02 -0.46599911769E-01  0.70879315661E-01  0.84940235947E-01  0.51100000000E-03 0. -1.
</event>
<event>
 8    1  0.2928569E+004  0.1043930E+01  0.7957747E-01            NaN
         13   -1    0    0    0    0  0.00000000000E+00  0.00000000000E+00  0.74505805969E-08  0.10566000000E+00  0.10566000000E+00 0.  1.
     999900   -1    0    0    0    0 -0.00000000000E+00 -0.00000000000E+00 -0.74505805969E-08  0.93827000000E+00  0.93827000000E+00 0.  1.
     999902    2    1    2    0    0  0.60477910001E-02 -0.89690182435E-02  0.11051809578E-01  0.10284651509E+01  0.10283488732E+01 0.  0.
     999903    2    3    3    0    0 -0.38245872145E-01  0.11979859485E+00 -0.27415554685E-01  0.13716118200E+00  0.47403872678E-01 0.  0.
         14    1    1    2    0    0 -0.60477910001E-02  0.89690182435E-02 -0.11051809578E-01  0.15464849149E-01  0.00000000000E+00 0. -1.
     999901    1    3    3    0    0  0.44293663145E-01 -0.12876761309E+00  0.38467364264E-01  0.89130396885E+00  0.88000000000E+00 0. -1.
        -11    1    4    4    0    0 -0.30886540614E-01  0.74767836284E-01 -0.39400340881E-01  0.89982530062E-01  0.51100000000E-03 0.  1.
         11    1    4    4    0    0 -0.73593315306E-02  0.45030758565E-01  0.11984786196E-01  0.47178651938E-01  0.51100000000E-03 0. -1.
</event>
<event>
 8    1  0.2928569E+004  0.1043930E+01  0.7957747E-01            NaN
         13   -1    0    0    0    0  0.00000000000E+00  0.00000000000E+00  0.74505805969E-08  0.10566000000E+00  0.10566000000E+00 0. -1.
     999900   -1    0    0    0    0 -0.00000000000E+00 -0.00000000000E+00 -0.74505805969E-08  0.93827000000E+00  0.93827000000E+00 0. -1.
     999902    2    1    2    0    0  0.22049157074E-02 -0.10251275038E-01  0.10060663797E-01  0.10293984051E+01  0.10292958317E+01 0.  0.
     999903    2    3    3    0    0 -0.11283287185E+00 -0.55809512262E-01  0.42312238311E-01  0.14015748750E+00  0.44808896011E-01 0.  0.
         14    1    1    2    0    0 -0.22049157074E-02  0.10251275038E-01 -0.10060663797E-01  0.14531594861E-01  0.00000000000E+00 0.  1.
     999901    1    3    3    0    0  0.11503778756E+00  0.45558237224E-01 -0.32251574515E-01  0.88924091764E+00  0.88000000000E+00 0. -1.
        -11    1    4    4    0    0 -0.62611305886E-01 -0.61975003530E-02  0.22682396783E-01  0.66883008905E-01  0.51100000000E-03 0.  1.
         11    1    4    4    0    0 -0.50221565966E-01 -0.49612011909E-01  0.19629841529E-01  0.73274478594E-01  0.51100000000E-03 0. -1.
</event>
<event>
 8    1  0.2928569E+004  0.1043930E+01  0.7957747E-01            NaN
         13   -1    0    0    0    0  0.00000000000E+00  0.00000000000E+00  0.74505805969E-08  0.10566000000E+00  0.10566000000E+00 0.  1.
     999900   -1    0    0    0    0 -0.00000000000E+00 -0.00000000000E+00 -0.74505805969E-08  0.93827000000E+00  0.93827000000E+00 0. -1.
     999902    2    1    2    0    0 -0.12980424542E-01 -0.37946064888E-02  0.79312998229E-03  0.10303830625E+01  0.10302940047E+01 0.  0.
     999903    2    3    3    0    0  0.11719791625E+00 -0.24572589430E-01  0.53992580949E-01  0.13897501535E+00  0.45383833805E-01 0.  0.
         14    1    1    2    0    0  0.12980424542E-01  0.37946064888E-02 -0.79312998229E-03  0.13546937472E-01  0.00000000000E+00 0. -1.
     999901    1    3    3    0    0 -0.13017834079E+00  0.20777982942E-01 -0.53199450966E-01  0.89140804718E+00  0.88000000000E+00 0.  1.
        -11    1    4    4    0    0  0.66948117300E-01 -0.36491164411E-02  0.76477517121E-02  0.67484188430E-01  0.51100000000E-03 0. -1.
         11    1    4    4    0    0  0.50249798947E-01 -0.20923472989E-01  0.46344829236E-01  0.71490826923E-01  0.51100000000E-03 0.  1.
</event>
<event>
 8    1  0.2928569E+004  0.1043930E+01  0.7957747E-01            NaN
         13   -1    0    0    0    0  0.00000000000E+00  0.00000000000E+00  0.74505805969E-08  0.10566000000E+00  0.10566000000E+00 0. -1.
     999900   -1    0    0    0    0 -0.00000000000E+00 -0.00000000000E+00 -0.74505805969E-08  0.93827000000E+00  0.93827000000E+00 0. -1.
     999902    2    1    2    0    0 -0.84470136522E-03 -0.16214948067E-01 -0.32274321255E-02  0.10273754121E+01  0.10272420275E+01 0.  0.
     999903    2    3    3    0    0  0.14856269743E-01  0.28072050360E-01 -0.12595021684E+00  0.13761772568E+00  0.45458030497E-01 0.  0.
         14    1    1    2    0    0  0.84470136522E-03  0.16214948067E-01  0.32274321255E-02  0.16554587863E-01  0.00000000000E+00 0.  1.
     999901    1    3    3    0    0 -0.15700971108E-01 -0.44286998426E-01  0.12272278471E+00  0.88975768646E+00  0.88000000000E+00 0.  1.
        -11    1    4    4    0    0 -0.80987557999E-02 -0.52447546552E-02 -0.55836037938E-01  0.56665876421E-01  0.51100000000E-03 0.  1.
         11    1    4    4    0    0  0.22955025543E-01  0.33316805015E-01 -0.70114178902E-01  0.80951849257E-01  0.51100000000E-03 0. -1.
</event>
<event>
 8    1  0.2928569E+004  0.1043930E+01  0.7957747E-01            NaN
         13   -1    0    0    0    0  0.00000000000E+00  0.00000000000E+00  0.74505805969E-08  0.10566000000E+00  0.10566000000E+00 0.  1.
     999900   -1    0    0    0    0 -0.00000000000E+00 -0.00000000000E+00 -0.74505805969E-08  0.93827000000E+00  0.93827000000E+00 0.  1.
     999902    2    1    2    0    0 -0.10364569291E-01 -0.88960027653E-02  0.35540832945E-02  0.10298163658E+01  0.10297196476E+01 0.  0.
     999903    2    3    3    0    0  0.13865067016E-01  0.20337421892E-01 -0.12902315945E+00  0.13907600315E+00  0.45708950597E-01 0.  0.
         14    1    1    2    0    0  0.10364569291E-01  0.88960027653E-02 -0.35540832945E-02  0.14113634183E-01  0.00000000000E+00 0. -1.
     999901    1    3    3    0    0 -0.24229636307E-01 -0.29233424657E-01  0.13257724274E+00  0.89074036267E+00  0.88000000000E+00 0. -1.
        -11    1    4    4    0    0 -0.15937004789E-01  0.25022285941E-03 -0.41645432120E-01  0.44594325543E-01  0.51100000000E-03 0.  1.
         11    1    4    4    0    0  0.29802071805E-01  0.20087199033E-01 -0.87377727330E-01  0.94481677606E-01  0.51100000000E-03 0. -1.
</event>
<event>
 8    1  0.2928569E+004  0.1043930E+01  0.7957747E-01            NaN
         13   -1    0    0    0    0  0.00000000000E+00  0.00000000000E+00  0.74505805969E-08  0.10566000000E+00  0.10566000000E+00 0.  1.
     999900   -1    0    0    0    0 -0.00000000000E+00 -0.00000000000E+00 -0.74505805969E-08  0.93827000000E+00  0.93827000000E+00 0.  1.
     999902    2    1    2    0    0 -0.33922210731E-02  0.12636676710E-01  0.20921171836E-02  0.10306797277E+01  0.10305945524E+01 0.  0.
     999903    2    3    3    0    0  0.15653396983E-01 -0.59085647887E-01 -0.11711157718E+00  0.13954766780E+00  0.44969850509E-01 0.  0.
         14    1    1    2    0    0  0.33922210731E-02 -0.12636676710E-01 -0.20921171836E-02  0.13250272314E-01  0.00000000000E+00 0. -1.
     999901    1    3    3    0    0 -0.19045618056E-01  0.71722324598E-01  0.11920369436E+00  0.89113205989E+00  0.88000000000E+00 0. -1.
        -11    1    4    4    0    0 -0.75351202007E-02 -0.33821883564E-02 -0.43909975131E-01  0.44682930427E-01  0.51100000000E-03 0. -1.
         11    1    4    4    0    0  0.23188517184E-01 -0.55703459531E-01 -0.73201602047E-01  0.94864737369E-01  0.51100000000E-03 0.  1.
</event>
<event>
 8    1  0.2928569E+004  0.1043930E+01  0.7957747E-01            NaN
         13   -1    0    0    0    0  0.00000000000E+00  0.00000000000E+00  0.74505805969E-08  0.10566000000E+00  0.10566000000E+00 0. -1.
     999900   -1    0    0    0    0 -0.00000000000E+00 -0.00000000000E+00 -0.74505805969E-08  0.93827000000E+00  0.93827000000E+00 0.  1.
     999902    2    1    2    0    0  0.75332055611E-02 -0.63593349156E-02 -0.93680462657E-02  0.10303303450E+01  0.10302405880E+01 0.  0.
     999903    2    3    3    0    0  0.32350013986E-01  0.56231413774E-01  0.11449672960E+00  0.13910873474E+00  0.45091503565E-01 0.  0.
         14    1    1    2    0    0 -0.75332055611E-02  0.63593349156E-02  0.93680462657E-02  0.13599655048E-01  0.00000000000E+00 0. -1.
     999901    1    3    3    0    0 -0.24816808425E-01 -0.62590748689E-01 -0.12386477586E+00  0.89122161021E+00  0.88000000000E+00 0.  1.
        -11    1    4    4    0    0  0.14424065531E-01  0.33519315111E-01  0.22983245044E-01  0.43128747091E-01  0.51100000000E-03 0. -1.
         11    1    4    4    0    0  0.17925948454E-01  0.22712098663E-01  0.91513484554E-01  0.95979987653E-01  0.51100000000E-03 0.  1.
</event>
<event>
 8    1  0.2928569E+004  0.1043930E+01  0.7957747E-01            NaN
         13   -1    0    0    0    0  0.00000000000E+00  0.00000000000E+00  0.74505805969E-08  0.10566000000E+00  0.10566000000E+00 0. -1.
     999900   -1    0    0    0    0 -0.00000000000E+00 -0.00000000000E+00 -0.74505805969E-08  0.93827000000E+00  0.93827000000E+00 0. -1.
     999902    2    1    2    0    0  0.13562459535E-01  0.59931310728E-04 -0.74469152179E-02  0.10284574292E+01  0.10283410345E+01 0.  0.
     999903    2    3    3    0    0  0.11322075472E+00  0.50799118046E-01  0.44959272015E-01  0.13983340899E+00  0.46179610586E-01 0.  0.
         14    1    1    2    0    0 -0.13562459535E-01 -0.59931310728E-04  0.74469152179E-02  0.15472570784E-01  0.00000000000E+00 0.  1.
     999901    1    3    3    0    0 -0.99658295189E-01 -0.50739186735E-01 -0.52406187233E-01  0.88862402023E+00  0.88000000000E+00 0. -1.
        -11    1    4    4    0    0  0.23791736291E-01  0.31063163641E-01  0.23929117269E-01  0.45867533457E-01  0.51100000000E-03 0. -1.
         11    1    4    4    0    0  0.89429018433E-01  0.19735954405E-01  0.21030154745E-01  0.93965875529E-01  0.51100000000E-03 0.  1.
</event>
<event>
 7    1  0.2928569E+004  0.1043930E+01  0.7957747E-01            NaN
         13   -1    0    0    0    0  0.00000000000E+00  0.00000000000E+00  0.74505805969E-08  0.10566000000E+00  0.10566000000E+00 0.  1.
     999900   -1    0    0    0    0 -0.00000000000E+00 -0.00000000000E+00 -0.74505805969E-08  0.93827000000E+00  0.93827000000E+00 0.  1.
     999903    2    1    2    0    0  0.99825197251E-01  0.36225489829E-01 -0.56731361371E-01  0.12850192503E+00  0.44910369114E-01 0.  0.
         14    1    1    2    0    0 -0.24254866534E-01 -0.68341842848E-02 -0.14083163649E-01  0.28867631074E-01  0.00000000000E+00 0. -1.
     999901    1    1    2    0    0 -0.75570330717E-01 -0.29391305544E-01  0.70814525021E-01  0.88656044390E+00  0.88000000000E+00 0. -1.
        -11    1    3    3    0    0  0.72261057703E-01  0.36653421255E-01 -0.21626407857E-01  0.83863558164E-01  0.51100000000E-03 0.  1.
         11    1    3    3    0    0  0.27564139548E-01 -0.42793142605E-03 -0.35104953514E-01  0.44638366867E-01  0.51100000000E-03 0. -1.
</event>
<event>
 8    1  0.2928569E+004  0.1043930E+01  0.7957747E-01            NaN
         13   -1    0    0    0    0  0.00000000000E+00  0.00000000000E+00  0.74505805969E-08  0.10566000000E+00  0.10566000000E+00 0.  1.
     999900   -1    0    0    0    0 -0.00000000000E+00 -0.00000000000E+00 -0.74505805969E-08  0.93827000000E+00  0.93827000000E+00 0.  1.
     999902    2    1    2    0    0  0.96098259776E-02  0.81880834810E-02  0.56833347392E-02  0.10300846484E+01  0.10299915966E+01 0.  0.
     999903    2    3    3    0    0 -0.10666220583E+00  0.77175635514E-01 -0.18636576607E-01  0.13942762925E+00  0.41950410498E-01 0.  0.
         14    1    1    2    0    0 -0.96098259776E-02 -0.81880834810E-02 -0.56833347392E-02  0.13845351573E-01  0.00000000000E+00 0. -1.
     999901    1    3    3    0    0  0.11627203181E+00 -0.68987552033E-01  0.24319911346E-01  0.89065701917E+00  0.88000000000E+00 0.  1.
        -11    1    4    4    0    0 -0.48009056118E-01  0.59974842624E-01 -0.64169810297E-02  0.77092736258E-01  0.51100000000E-03 0.  1.
         11    1    4    4    0    0 -0.58653149716E-01  0.17200792890E-01 -0.12219595577E-01  0.62334892995E-01  0.51100000000E-03 0. -1.
</event>
<event>
 8    1  0.2928569E+004  0.1043930E+01  0.7957747E-01            NaN
         13   -1    0    0    0    0  0.00000000000E+00  0.00000000000E+00  0.74505805969E-08  0.10566000000E+00  0.10566000000E+00 0.  1.
     999900   -1    0    0    0    0 -0.00000000000E+00 -0.00000000000E+00 -0.74505805969E-08  0.93827000000E+00  0.93827000000E+00 0. -1.
     999902    2    1    2    0    0  0.89796540702E-02  0.53165932897E-02  0.94303605545E-02  0.10298647218E+01  0.10297686697E+01 0.  0.
     999903    2    3    3    0    0  0.84682774598E-01  0.87735094045E-01 -0.54992155197E-01  0.14044129491E+00  0.42790199120E-01 0.  0.
         14    1    1    2    0    0 -0.89796540702E-02 -0.53165932897E-02 -0.94303605545E-02  0.14065278227E-01  0.00000000000E+00 0. -1.
     999901    1    3    3    0    0 -0.75703120528E-01 -0.82418500755E-01  0.64422515752E-01  0.88942342687E+00  0.88000000000E+00 0. -1.
        -11    1    4    4    0    0  0.45124554570E-01  0.66574045934E-01 -0.51363161851E-01  0.95429369344E-01  0.51100000000E-03 0. -1.
         11    1    4    4    0    0  0.39558220029E-01  0.21161048111E-01 -0.36289933464E-02  0.45011925561E-01  0.51100000000E-03 0.  1.
</event>
<event>
 8    1  0.2928569E+004  0.1043930E+01  0.7957747E-01            NaN
         13   -1    0    0    0    0  0.00000000000E+00  0.00000000000E+00  0.74505805969E-08  0.10566000000E+00  0.10566000000E+00 0. -1.
     999900   -1    0    0    0    0 -0.00000000000E+00 -0.00000000000E+00 -0.74505805969E-08  0.93827000000E+00  0.93827000000E+00 0. -1.
     999902    2    1    2    0    0 -0.10403548694E-01  0.58710932390E-02  0.46039375193E-02  0.10311276642E+01  0.10310481851E+01 0.  0.
     999903    2    3    3    0    0 -0.18239684596E-01 -0.91804349940E-03 -0.13213340914E+00  0.14050731895E+00  0.44153595208E-01 0.  0.
         14    1    1    2    0    0  0.10403548694E-01 -0.58710932390E-02 -0.46039375193E-02  0.12802335800E-01  0.00000000000E+00 0. -1.
     999901    1    3    3    0    0  0.78361359012E-02  0.67891367384E-02  0.13673734666E+00  0.89062034525E+00  0.88000000000E+00 0.  1.
        -11    1    4    4    0    0 -0.27161829545E-01  0.13211433698E-01 -0.71699086651E-01  0.77803130478E-01  0.51100000000E-03 0. -1.
         11    1    4    4    0    0  0.89221449491E-02 -0.14129477197E-01 -0.60434322487E-01  0.62704188472E-01  0.51100000000E-03 0.  1.
</event>
<event>
 8    1  0.2928569E+004  0.1043930E+01  0.7957747E-01            NaN
         13   -1    0    0    0    0  0.00000000000E+00  0.00000000000E+00  0.74505805969E-08  0.10566000000E+00  0.10566000000E+00 0. -1.
     999900   -1    0    0    0    0 -0.00000000000E+00 -0.00000000000E+00 -0.74505805969E-08  0.93827000000E+00  0.93827000000E+00 0. -1.
     999902    2    1    2    0    0 -0.11705874463E-01  0.86257368507E-02  0.27338515698E-02  0.10291345690E+01  0.10290282097E+01 0.  0.
     999903    2    3    3    0    0  0.61695691911E-01 -0.49163037439E-01 -0.10372052453E+00  0.13780978728E+00  0.44835561881E-01 0.  0.
         14    1    1    2    0    0  0.11705874463E-01 -0.86257368507E-02 -0.27338515698E-02  0.14795430969E-01  0.00000000000E+00 0.  1.
     999901    1    3    3    0    0 -0.73401566374E-01  0.57788774290E-01  0.10645437610E+00  0.89132478176E+00  0.88000000000E+00 0.  1.
        -11    1    4    4    0    0  0.43167994563E-01 -0.17959881154E-01 -0.29761869771E-01  0.55426195061E-01  0.51100000000E-03 0. -1.
         11    1    4    4    0    0  0.18527697348E-01 -0.31203156286E-01 -0.73958654760E-01  0.82383592215E-01  0.51100000000E-03 0.  1.
</event>
<event>
 8    1  0.2928569E+004  0.1043930E+01  0.7957747E-01            NaN
         13   -1    0    0    0    0  0.00000000000E+00  0.00000000000E+00  0.74505805969E-08  0.10566000000E+00  0.10566000000E+00 0.  1.
     999900   -1    0    0    0    0 -0.00000000000E+00 -0.00000000000E+00 -0.74505805969E-08  0.93827000000E+00  0.93827000000E+00 0. -1.
     999902    2    1    2    0    0 -0.98471656648E-02  0.97767141798E-02  0.15761676464E-02  0.10299645027E+01  0.10298698178E+01 0.  0.
     999903    2    3    3    0    0 -0.95437602724E-01 -0.64700260762E-01 -0.65711423680E-01  0.14013296654E+00  0.44997748303E-01 0.  0.
         14    1    1    2    0    0  0.98471656648E-02 -0.97767141798E-02 -0.15761676464E-02  0.13965497350E-01  0.00000000000E+00 0. -1.
     999901    1    3    3    0    0  0.85590437059E-01  0.74476974942E-01  0.67287591326E-01  0.88983153611E+00  0.88000000000E+00 0.  1.
        -11    1    4    4    0    0 -0.62427400112E-01 -0.19754696283E-01 -0.21350314334E-01  0.68873255717E-01  0.51100000000E-03 0.  1.
         11    1    4    4    0    0 -0.33010202612E-01 -0.44945564479E-01 -0.44361109346E-01  0.71259710821E-01  0.51100000000E-03 0. -1.
</event>
<event>
 8    1  0.2928569E+004  0.1043930E+01  0.7957747E-01            NaN
         13   -1    0    0    0    0  0.00000000000E+00  0.00000000000E+00  0.74505805969E-08  0.10566000000E+00  0.10566000000E+00 0. -1.
     999900   -1    0    0    0    0 -0.00000000000E+00 -0.00000000000E+00 -0.74505805969E-08  0.93827000000E+00  0.93827000000E+00 0.  1.
     999902    2    1    2    0    0 -0.38457559510E-02 -0.49704197566E-02 -0.18369684701E-01  0.10245150514E+01  0.10243310746E+01 0.  0.
     999903    2    3    3    0    0 -0.78970369334E-01 -0.35242682624E-01  0.91760827936E-01  0.13395969255E+00  0.45241394477E-01 0.  0.
         14    1    1    2    0    0  0.38457559510E-02  0.49704197566E-02  0.18369684701E-01  0.19414948556E-01  0.00000000000E+00 0. -1.
     999901    1    3    3    0    0  0.75124613383E-01  0.30272262867E-01 -0.11013051264E+00  0.89055535889E+00  0.88000000000E+00 0.  1.
        -11    1    4    4    0    0 -0.55922987269E-01 -0.42987586512E-01  0.53117718106E-01  0.88300997713E-01  0.51100000000E-03 0. -1.
         11    1    4    4    0    0 -0.23047382065E-01  0.77449038879E-02  0.38643109830E-01  0.45658694841E-01  0.51100000000E-03 0.  1.
</event>
<event>
 8    1  0.2928569E+004  0.1043930E+01  0.7957747E-01            NaN
         13   -1    0    0    0    0  0.00000000000E+00  0.00000000000E+00  0.74505805969E-08  0.10566000000E+00  0.10566000000E+00 0. -1.
     999900   -1    0    0    0    0 -0.00000000000E+00 -0.00000000000E+00 -0.74505805969E-08  0.93827000000E+00  0.93827000000E+00 0. -1.
     999902    2    1    2    0    0 -0.56386825705E-02  0.43694615609E-02  0.11514663623E-01  0.10303847273E+01  0.10302956914E+01 0.  0.
     999903    2    3    3    0    0 -0.80291548208E-01  0.95016642148E-01 -0.48375737223E-01  0.14056630656E+00  0.44088315779E-01 0.  0.
         14    1    1    2    0    0  0.56386825705E-02 -0.43694615609E-02 -0.11514663623E-01  0.13545272748E-01  0.00000000000E+00 0.  1.
     999901    1    3    3    0    0  0.74652865638E-01 -0.90647180587E-01  0.59890400846E-01  0.88981842070E+00  0.88000000000E+00 0.  1.
        -11    1    4    4    0    0 -0.62154186058E-01  0.40289077288E-01 -0.22890421014E-01  0.77527963267E-01  0.51100000000E-03 0. -1.
         11    1    4    4    0    0 -0.18137362150E-01  0.54727564861E-01 -0.25485316210E-01  0.63038343289E-01  0.51100000000E-03 0.  1.
</event>
<event>
 7    1  0.2928569E+004  0.1043930E+01  0.7957747E-01            NaN
         13   -1    0    0    0    0  0.00000000000E+00  0.00000000000E+00  0.74505805969E-08  0.10566000000E+00  0.10566000000E+00 0. -1.
     999900   -1    0    0    0    0 -0.00000000000E+00 -0.00000000000E+00 -0.74505805969E-08  0.93827000000E+00  0.93827000000E+00 0. -1.
     999903    2    1    2    0    0 -0.10484061089E+00  0.22435267119E-01 -0.26677508363E-01  0.11938468587E+00  0.45234045410E-01 0.  0.
         14    1    1    2    0    0  0.29730700412E-02  0.14787150734E-01  0.34715787931E-01  0.37850824350E-01  0.00000000000E+00 0. -1.
     999901    1    1    2    0    0  0.10186754085E+00 -0.37222417852E-01 -0.80382795682E-02  0.88669448978E+00  0.88000000000E+00 0. -1.
        -11    1    3    3    0    0 -0.74886410834E-01  0.35943181319E-01 -0.14416303484E-01  0.84308823607E-01  0.51100000000E-03 0. -1.
         11    1    3    3    0    0 -0.29954200060E-01 -0.13507914200E-01 -0.12261204880E-01  0.35075862261E-01  0.51100000000E-03 0.  1.
</event>
<event>
 8    1  0.2928569E+004  0.1043930E+01  0.7957747E-01            NaN
         13   -1    0    0    0    0  0.00000000000E+00  0.00000000000E+00  0.74505805969E-08  0.10566000000E+00  0.10566000000E+00 0.  1.
     999900   -1    0    0    0    0 -0.00000000000E+00 -0.00000000000E+00 -0.74505805969E-08  0.93827000000E+00  0.93827000000E+00 0.  1.
     999902    2    1    2    0    0  0.10343456021E-01 -0.57178315472E-02 -0.65117817510E-02  0.10304361502E+01  0.10303477936E+01 0.  0.
     999903    2    3    3    0    0 -0.95980278335E-01 -0.88162274647E-01 -0.23726232148E-01  0.14004401191E+00  0.45437767097E-01 0.  0.
         14    1    1    2    0    0 -0.10343456021E-01  0.57178315472E-02  0.65117817510E-02  0.13493849771E-01  0.00000000000E+00 0.  1.
     999901    1    3    3    0    0  0.10632373436E+00  0.82444443099E-01  0.17214450397E-01  0.89039213832E+00  0.88000000000E+00 0. -1.
        -11    1    4    4    0    0 -0.22732665631E-01 -0.11952411637E-01 -0.22782121257E-01  0.34335410302E-01  0.51100000000E-03 0.  1.
         11    1    4    4    0    0 -0.73247612704E-01 -0.76209863009E-01 -0.94411089041E-03  0.10570860160E+00  0.51100000000E-03 0. -1.
</event>
<event>
 8    1  0.2928569E+004  0.1043930E+01  0.7957747E-01            NaN
         13   -1    0    0    0    0  0.00000000000E+00  0.00000000000E+00  0.74505805969E-08  0.10566000000E+00  0.10566000000E+00 0.  1.
     999900   -1    0    0    0    0 -0.00000000000E+00 -0.00000000000E+00 -0.74505805969E-08  0.93827000000E+00  0.93827000000E+00 0.  1.
     999902    2    1    2    0    0 -0.94756736645E-02 -0.45645600998E-02 -0.89277226799E-02  0.10301340646E+01  0.10300416804E+01 0.  0.
     999903    2    3    3    0    0 -0.73841160127E-01 -0.95549591989E-01  0.56633870895E-01  0.14068506979E+00  0.44751000796E-01 0.  0.
         14    1    1    2    0    0  0.94756736645E-02  0.45645600998E-02  0.89277226799E-02  0.13795935363E-01  0.00000000000E+00 0.  1.
     999901    1    3    3    0    0  0.64365486462E-01  0.90985031889E-01 -0.65561593575E-01  0.88944899484E+00  0.88000000000E+00 0.  1.
        -11    1    4    4    0    0 -0.41325702310E-01 -0.83504728056E-01  0.33562322206E-01  0.99033044344E-01  0.51100000000E-03 0.  1.
         11    1    4    4    0    0 -0.32515457816E-01 -0.12044863933E-01  0.23071548689E-01  0.41652025450E-01  0.51100000000E-03 0. -1.
</event>
<event>
 8    1  0.2928569E+004  0.1043930E+01  0.7957747E-01            NaN
         13   -1    0    0    0    0  0.00000000000E+00  0.00000000000E+00  0.74505805969E-08  0.10566000000E+00  0.10566000000E+00 0. -1.
     999900   -1    0    0    0    0 -0.00000000000E+00 -0.00000000000E+00 -0.74505805969E-08  0.93827000000E+00  0.93827000000E+00 0. -1.
     999902    2    1    2    0    0  0.84147898037E-02 -0.79755159428E-02  0.90014085690E-02  0.10292520268E+01  0.10291473615E+01 0.  0.
     999903    2    3    3    0    0 -0.54595154333E-01 -0.10827752650E+00 -0.50987721247E-01  0.13929166693E+00  0.45801387934E-01 0.  0.
         14    1    1    2    0    0 -0.84147898037E-02  0.79755159428E-02 -0.90014085690E-02  0.14677973233E-01  0.00000000000E+00 0.  1.
     999901    1    3    3    0    0  0.63009944137E-01  0.10030201056E+00  0.59989129816E-01  0.88996035984E+00  0.88000000000E+00 0.  1.
        -11    1    4    4    0    0 -0.60972930348E-01 -0.81728848480E-01 -0.35975647496E-01  0.10812867909E+00  0.51100000000E-03 0. -1.
         11    1    4    4    0    0  0.63777760148E-02 -0.26548678022E-01 -0.15012073751E-01  0.31162987837E-01  0.51100000000E-03 0.  1.
</event>
<event>
 8    1  0.2928569E+004  0.1043930E+01  0.7957747E-01            NaN
         13   -1    0    0    0    0  0.00000000000E+00  0.00000000000E+00  0.74505805969E-08  0.10566000000E+00  0.10566000000E+00 0. -1.
     999900   -1    0    0    0    0 -0.00000000000E+00 -0.00000000000E+00 -0.74505805969E-08  0.93827000000E+00  0.93827000000E+00 0.  1.
     999902    2    1    2    0    0  0.35080729330E-03 -0.13582884736E-01 -0.34153440036E-03  0.10303382941E+01  0.10302486427E+01 0.  0.
     999903    2    3    3    0    0 -0.82463978913E-01 -0.30551302687E-01 -0.10059758552E+00  0.14062064686E+00  0.43824675670E-01 0.  0.
         14    1    1    2    0    0 -0.35080729330E-03  0.13582884736E-01  0.34153440036E-03  0.13591705899E-01  0.00000000000E+00 0. -1.
     999901    1    3    3    0    0  0.82814786206E-01  0.16968417951E-01  0.10025605112E+00  0.88971764724E+00  0.88000000000E+00 0. -1.
        -11    1    4    4    0    0 -0.24711895357E-01 -0.33638367617E-02 -0.59979329977E-01  0.64959789989E-01  0.51100000000E-03 0.  1.
         11    1    4    4    0    0 -0.57752083556E-01 -0.27187465926E-01 -0.40618255542E-01  0.75660856873E-01  0.51100000000E-03 0. -1.
</event>
<event>
 8    1  0.2928569E+004  0.1043930E+01  0.7957747E-01            NaN
         13   -1    0    0    0    0  0.00000000000E+00  0.00000000000E+00  0.74505805969E-08  0.10566000000E+00  0.10566000000E+00 0.  1.
     999900   -1    0    0    0    0 -0.00000000000E+00 -0.00000000000E+00 -0.74505805969E-08  0.93827000000E+00  0.93827000000E+00 0. -1.
     999902    2    1    2    0    0  0.88457534732E-02 -0.22995285953E-02  0.10197094892E-01  0.10302363544E+01  0.10301453441E+01 0.  0.
     999903    2    3    3    0    0  0.33620510229E-01  0.70778663496E-01  0.10865567036E+00  0.14138974117E+00  0.45222188043E-01 0.  0.
         14    1    1    2    0    0 -0.88457534732E-02  0.22995285953E-02 -0.10197094892E-01  0.13693645625E-01  0.00000000000E+00 0. -1.
     999901    1    3    3    0    0 -0.24774756756E-01 -0.73078192092E-01 -0.98458575466E-01  0.88884661321E+00  0.88000000000E+00 0. -1.
        -11    1    4    4    0    0  0.26448317556E-01  0.21954520153E-01  0.72418507173E-01  0.80163681046E-01  0.51100000000E-03 0.  1.
         11    1    4    4    0    0  0.71721926726E-02  0.48824143344E-01  0.36237163185E-01  0.61226060119E-01  0.51100000000E-03 0. -1.
</event>
<event>
 8    1  0.2928569E+004  0.1043930E+01  0.7957747E-01            NaN
         13   -1    0    0    0    0  0.00000000000E+00  0.00000000000E+00  0.74505805969E-08  0.10566000000E+00  0.10566000000E+00 0. -1.
     999900   -1    0    0    0    0 -0.00000000000E+00 -0.00000000000E+00 -0.74505805969E-08  0.93827000000E+00  0.93827000000E+00 0.  1.
     999902    2    1    2    0    0 -0.32406494506E-04 -0.13501078139E-01  0.37827547444E-02  0.10299089660E+01  0.10298135214E+01 0.  0.
     999903    2    3    3    0    0  0.68465344322E-02 -0.44768327696E-01  0.12554243898E+00  0.14094868487E+00  0.45327139571E-01 0.  0.
         14    1    1    2    0    0  0.32406494506E-04  0.13501078139E-01 -0.37827547444E-02  0.14021034004E-01  0.00000000000E+00 0.  1.
     999901    1    3    3    0    0 -0.68789409267E-02  0.31267249558E-01 -0.12175968424E+00  0.88896028113E+00  0.88000000000E+00 0.  1.
        -11    1    4    4    0    0 -0.13842695244E-01 -0.40674406698E-01  0.85372743014E-01  0.95576115963E-01  0.51100000000E-03 0.  1.
         11    1    4    4    0    0  0.20689229677E-01 -0.40939209980E-02  0.40169695966E-01  0.45372568902E-01  0.51100000000E-03 0. -1.
</event>
<event>
 8    1  0.2928569E+004  0.1043930E+01  0.7957747E-01            NaN
         13   -1    0    0    0    0  0.00000000000E+00  0.00000000000E+00  0.74505805969E-08  0.10566000000E+00  0.10566000000E+00 0.  1.
     999900   -1    0    0    0    0 -0.00000000000E+00 -0.00000000000E+00 -0.74505805969E-08  0.93827000000E+00  0.93827000000E+00 0.  1.
     999902    2    1    2    0    0  0.12982616704E-01 -0.36720932614E-02 -0.30997090141E-02  0.10300865611E+01  0.10299935352E+01 0.  0.
     999903    2    3    3    0    0  0.19740374317E-01  0.11783083996E+00 -0.57325902189E-01  0.14005897156E+00  0.45348288048E-01 0.  0.
         14    1    1    2    0    0 -0.12982616704E-01  0.36720932614E-02  0.30997090141E-02  0.13843438929E-01  0.00000000000E+00 0.  1.
     999901    1    3    3    0    0 -0.67577576131E-02 -0.12150293322E+00  0.54226193175E-01  0.89002758951E+00  0.88000000000E+00 0. -1.
        -11    1    4    4    0    0  0.10473753600E-01  0.67048308634E-01 -0.74392932148E-02  0.68269901199E-01  0.51100000000E-03 0.  1.
         11    1    4    4    0    0  0.92666207170E-02  0.50782531323E-01 -0.49886608974E-01  0.71789070359E-01  0.51100000000E-03 0. -1.
</event>
<event>
 8    1  0.2928569E+004  0.1043930E+01  0.7957747E-01            NaN
         13   -1    0    0    0    0  0.00000000000E+00  0.00000000000E+00  0.74505805969E-08  0.10566000000E+00  0.10566000000E+00 0.  1.
     999900   -1    0    0    0    0 -0.00000000000E+00 -0.00000000000E+00 -0.74505805969E-08  0.93827000000E+00  0.93827000000E+00 0. -1.
     999902    2    1    2    0    0  0.10689057613E-01  0.60920350625E-03 -0.90132448400E-02  0.10299347985E+01  0.10298397077E+01 0.  0.
     999903    2    3    3    0    0  0.83010017810E-01 -0.10263773167E+00 -0.20797593368E-01  0.14087398971E+00  0.44584459948E-01 0.  0.
         14    1    1    2    0    0 -0.10689057613E-01 -0.60920350625E-03  0.90132448400E-02  0.13995201467E-01  0.00000000000E+00 0.  1.
     999901    1    3    3    0    0 -0.72320960196E-01  0.10324693518E+00  0.11784348527E-01  0.88906080882E+00  0.88000000000E+00 0.  1.
        -11    1    4    4    0    0  0.49186259131E-01 -0.63993274025E-01 -0.34409443915E-01  0.87742225634E-01  0.51100000000E-03 0. -1.
         11    1    4    4    0    0  0.33823758679E-01 -0.38644457645E-01  0.13611850548E-01  0.53131764079E-01  0.51100000000E-03 0.  1.
</event>
<event>
 8    1  0.2928569E+004  0.1043930E+01  0.7957747E-01            NaN
         13   -1    0    0    0    0  0.00000000000E+00  0.00000000000E+00  0.74505805969E-08  0.10566000000E+00  0.10566000000E+00 0.  1.
     999900   -1    0    0    0    0 -0.00000000000E+00 -0.00000000000E+00 -0.74505805969E-08  0.93827000000E+00  0.93827000000E+00 0. -1.
     999902    2    1    2    0    0 -0.83415656108E-02 -0.10693640782E-01 -0.59235053664E-02  0.10291305545E+01  0.10290241371E+01 0.  0.
     999903    2    3    3    0    0  0.47981130255E-01  0.11928121845E+00  0.18212465592E-01  0.13747576978E+00  0.45140840029E-01 0.  0.
         14    1    1    2    0    0  0.83415656108E-02  0.10693640782E-01  0.59235053664E-02  0.14799445457E-01  0.00000000000E+00 0.  1.
     999901    1    3    3    0    0 -0.56322695866E-01 -0.12997485923E+00 -0.24135970958E-01  0.89165478477E+00  0.88000000000E+00 0.  1.
        -11    1    4    4    0    0  0.26193179831E-01  0.92447539622E-01  0.30461389853E-01  0.10080073236E+00  0.51100000000E-03 0.  1.
         11    1    4    4    0    0  0.21787950424E-01  0.26833678824E-01 -0.12248924261E-01  0.36675037416E-01  0.51100000000E-03 0. -1.
</event>
<event>
 8    1  0.2928569E+004  0.1043930E+01  0.7957747E-01            NaN
         13   -1    0    0    0    0  0.00000000000E+00  0.00000000000E+00  0.74505805969E-08  0.10566000000E+00  0.10566000000E+00 0. -1.
     999900   -1    0    0    0    0 -0.00000000000E+00 -0.00000000000E+00 -0.74505805969E-08  0.93827000000E+00  0.93827000000E+00 0.  1.
     999902    2    1    2    0    0 -0.12196089919E-01  0.10584535652E-02 -0.35350555591E-02  0.10311878828E+01  0.10311091543E+01 0.  0.
     999903    2    3    3    0    0  0.66188095783E-01  0.39618936948E-01  0.10709198348E+00  0.13996998956E+00  0.46608806712E-01 0.  0.
         14    1    1    2    0    0  0.12196089919E-01 -0.10584535652E-02  0.35350555591E-02  0.12742117213E-01  0.00000000000E+00 0. -1.
     999901    1    3    3    0    0 -0.78384185702E-01 -0.38560483383E-01 -0.11062703904E+00  0.89121789323E+00  0.88000000000E+00 0.  1.
        -11    1    4    4    0    0  0.54648002235E-01  0.29294775975E-01  0.46708659647E-01  0.77630844738E-01  0.51100000000E-03 0.  1.
         11    1    4    4    0    0  0.11540093548E-01  0.10324160974E-01  0.60383323831E-01  0.62339144820E-01  0.51100000000E-03 0. -1.
</event>
<event>
 8    1  0.2928569E+004  0.1043930E+01  0.7957747E-01            NaN
         13   -1    0    0    0    0  0.00000000000E+00  0.00000000000E+00  0.74505805969E-08  0.10566000000E+00  0.10566000000E+00 0. -1.
     999900   -1    0    0    0    0 -0.00000000000E+00 -0.00000000000E+00 -0.74505805969E-08  0.93827000000E+00  0.93827000000E+00 0. -1.
     999902    2    1    2    0    0 -0.83563599635E-02 -0.26920892244E-02  0.10739840803E-01  0.10300584364E+01  0.10299650296E+01 0.  0.
     999903    2    3    3    0    0 -0.17069896744E-01  0.11540293023E+00  0.64978780096E-01  0.14047189093E+00  0.43599227033E-01 0.  0.
         14    1    1    2    0    0  0.83563599635E-02  0.26920892244E-02 -0.10739840803E-01  0.13871563600E-01  0.00000000000E+00 0. -1.
     999901    1    3    3    0    0  0.87135367807E-02 -0.11809501946E+00 -0.54238939293E-01  0.88958654547E+00  0.88000000000E+00 0.  1.
        -11    1    4    4    0    0 -0.30823823776E-01  0.60059631330E-01  0.35514211948E-01  0.76280979274E-01  0.51100000000E-03 0. -1.
         11    1    4    4    0    0  0.13753927032E-01  0.55343298902E-01  0.29464568148E-01  0.64190911657E-01  0.51100000000E-03 0.  1.
</event>
<event>
 8    1  0.2928569E+004  0.1043930E+01  0.7957747E-01            NaN
         13   -1    0    0    0    0  0.00000000000E+00  0.00000000000E+00  0.74505805969E-08  0.10566000000E+00  0.10566000000E+00 0. -1.
     999900   -1    0    0    0    0 -0.00000000000E+00 -0.00000000000E+00 -0.74505805969E-08  0.93827000000E+00  0.93827000000E+00 0.  1.
     999902    2    1    2    0    0  0.65729426658E-02 -0.72204773700E-02 -0.94161899781E-02  0.10303652109E+01  0.10302759166E+01 0.  0.
     999903    2    3    3    0    0 -0.12234696655E+00  0.48628104543E-01  0.50104504465E-02  0.13910344520E+00  0.44622764129E-01 0.  0.
         14    1    1    2    0    0 -0.65729426658E-02  0.72204773700E-02  0.94161899781E-02  0.13564789067E-01  0.00000000000E+00 0. -1.
     999901    1    3    3    0    0  0.12891990922E+00 -0.55848581913E-01 -0.14426640425E-01  0.89126176573E+00  0.88000000000E+00 0.  1.
        -11    1    4    4    0    0 -0.30112864070E-01  0.22656971505E-01  0.19098983308E-01  0.42251097319E-01  0.51100000000E-03 0. -1.
         11    1    4    4    0    0 -0.92234102481E-01  0.25971133038E-01 -0.14088532862E-01  0.96852347886E-01  0.51100000000E-03 0.  1.
</event>
<event>
 8    1  0.2928569E+004  0.1043930E+01  0.7957747E-01            NaN
         13   -1    0    0    0    0  0.00000000000E+00  0.00000000000E+00  0.74505805969E-08  0.10566000000E+00  0.10566000000E+00 0.  1.
     999900   -1    0    0    0    0 -0.00000000000E+00 -0.00000000000E+00 -0.74505805969E-08  0.93827000000E+00  0.93827000000E+00 0.  1.
     999902    2    1    2    0    0 -0.65848363693E-02  0.65854108791E-02  0.93376039149E-02  0.10307421816E+01  0.10306578125E+01 0.  0.
     999903    2    3    3    0    0  0.31853007134E-01 -0.72457431199E-01  0.10744937285E+00  0.14093818192E+00  0.45315670557E-01 0.  0.
         14    1    1    2    0    0  0.65848363693E-02 -0.65854108791E-02 -0.93376039149E-02  0.13187818369E-01  0.00000000000E+00 0. -1.
     999901    1    3    3    0    0 -0.38437843503E-01  0.79042842078E-01 -0.98111768935E-01  0.88980399971E+00  0.88000000000E+00 0.  1.
        -11    1    4    4    0    0  0.39226633231E-01 -0.36594829570E-01  0.53744578205E-01  0.75938469258E-01  0.51100000000E-03 0. -1.
         11    1    4    4    0    0 -0.73736260968E-02 -0.35862601628E-01  0.53704794645E-01  0.64999712663E-01  0.51100000000E-03 0.  1.
</event>
<event>
 8    1  0.2928569E+004  0.1043930E+01  0.7957747E-01            NaN
         13   -1    0    0    0    0  0.00000000000E+00  0.00000000000E+00  0.74505805969E-08  0.10566000000E+00  0.10566000000E+00 0. -1.
     999900   -1    0    0    0    0 -0.00000000000E+00 -0.00000000000E+00 -0.74505805969E-08  0.93827000000E+00  0.93827000000E+00 0.  1.
     999902    2    1    2    0    0  0.53548138080E-02 -0.54291276465E-02 -0.11530141063E-01  0.10301063387E+01  0.10300135802E+01 0.  0.
     999903    2    3    3    0    0 -0.97556815053E-01  0.86914452650E-01  0.14054103767E-01  0.13894266479E+00  0.45123076385E-01 0.  0.
         14    1    1    2    0    0 -0.53548138080E-02  0.54291276465E-02  0.11530141063E-01  0.13823661268E-01  0.00000000000E+00 0. -1.
     999901    1    3    3    0    0  0.10291162886E+00 -0.92343580296E-01 -0.25584244831E-01  0.89116367395E+00  0.88000000000E+00 0.  1.
        -11    1    4    4    0    0 -0.75299643510E-01  0.57756801636E-01 -0.94557087638E-02  0.95370624393E-01  0.51100000000E-03 0. -1.
         11    1    4    4    0    0 -0.22257171543E-01  0.29157651014E-01  0.23509812531E-01  0.43572040393E-01  0.51100000000E-03 0.  1.
</event>
<event>
 8    1  0.2928569E+004  0.1043930E+01  0.7957747E-01            NaN
         13   -1    0    0    0    0  0.00000000000E+00  0.00000000000E+00  0.74505805969E-08  0.10566000000E+00  0.10566000000E+00 0.  1.
     999900   -1    0    0    0    0 -0.00000000000E+00 -0.00000000000E+00 -0.74505805969E-08  0.93827000000E+00  0.93827000000E+00 0. -1.
     999902    2    1    2    0    0  0.12057895883E-01 -0.59072716809E-02  0.74414485593E-02  0.10285786526E+01  0.10284640882E+01 0.  0.
     999903    2    3    3    0    0  0.61579308769E-01  0.81838712711E-01 -0.81503268542E-01  0.13837480465E+00  0.44891175228E-01 0.  0.
         14    1    1    2    0    0 -0.12057895883E-01  0.59072716809E-02 -0.74414485593E-02  0.15351347449E-01  0.00000000000E+00 0. -1.
     999901    1    3    3    0    0 -0.49521412887E-01 -0.87745984391E-01  0.88944717101E-01  0.89020384790E+00  0.88000000000E+00 0.  1.
        -11    1    4    4    0    0  0.37379720417E-01  0.50082942802E-01 -0.75478645925E-01  0.97994039461E-01  0.51100000000E-03 0. -1.
         11    1    4    4    0    0  0.24199588352E-01  0.31755769908E-01 -0.60246226163E-02  0.40380765192E-01  0.51100000000E-03 0.  1.
</event>
<event>
 8    1  0.2928569E+004  0.1043930E+01  0.7957747E-01            NaN
         13   -1    0    0    0    0  0.00000000000E+00  0.00000000000E+00  0.74505805969E-08  0.10566000000E+00  0.10566000000E+00 0.  1.
     999900   -1    0    0    0    0 -0.00000000000E+00 -0.00000000000E+00 -0.74505805969E-08  0.93827000000E+00  0.93827000000E+00 0.  1.
     999902    2    1    2    0    0  0.13926424606E-01 -0.59521919344E-02 -0.12039342631E-02  0.10287371284E+01  0.10286249345E+01 0.  0.
     999903    2    3    3    0    0 -0.75562437378E-01  0.15379278102E-01  0.10481225419E+00  0.13761271490E+00  0.44782212286E-01 0.  0.
         14    1    1    2    0    0 -0.13926424606E-01  0.59521919344E-02  0.12039342631E-02  0.15192871645E-01  0.00000000000E+00 0. -1.
     999901    1    3    3    0    0  0.89488861983E-01 -0.21331470037E-01 -0.10601618845E+00  0.89112441345E+00  0.88000000000E+00 0.  1.
        -11    1    4    4    0    0 -0.72652960589E-02  0.19390946308E-01  0.26160392597E-01  0.33367957495E-01  0.51100000000E-03 0.  1.
         11    1    4    4    0    0 -0.68297141319E-01 -0.40116682058E-02  0.78651861594E-01  0.10424475741E+00  0.51100000000E-03 0. -1.
</event>
<event>
 8    1  0.2928569E+004  0.1043930E+01  0.7957747E-01            NaN
         13   -1    0    0    0    0  0.00000000000E+00  0.00000000000E+00  0.74505805969E-08  0.10566000000E+00  0.10566000000E+00 0.  1.
     999900   -1    0    0    0    0 -0.00000000000E+00 -0.00000000000E+00 -0.74505805969E-08  0.93827000000E+00  0.93827000000E+00 0.  1.
     999902    2    1    2    0    0  0.47888010662E-03 -0.89042662856E-03 -0.12900311176E-01  0.10309901308E+01  0.10309089240E+01 0.  0.
     999903    2    3    3    0    0  0.10575474070E+00 -0.42688240364E-01  0.68105642651E-01  0.14004006006E+00  0.44345110377E-01 0.  0.
         14    1    1    2    0    0 -0.47888010662E-03  0.89042662856E-03  0.12900311176E-01  0.12939869171E-01  0.00000000000E+00 0.  1.
     999901    1    3    3    0    0 -0.10527586059E+00  0.41797813735E-01 -0.81005953827E-01  0.89095007077E+00  0.88000000000E+00 0.  1.
        -11    1    4    4    0    0  0.81702275278E-01 -0.10823668318E-01  0.44710476267E-01  0.93764073026E-01  0.51100000000E-03 0. -1.
         11    1    4    4    0    0  0.24052465417E-01 -0.31864572046E-01  0.23395166385E-01  0.46275987029E-01  0.51100000000E-03 0.  1.
</event>
<event>
 8    1  0.2928569E+004  0.1043930E+01  0.7957747E-01            NaN
         13   -1    0    0    0    0  0.00000000000E+00  0.00000000000E+00  0.74505805969E-08  0.10566000000E+00  0.10566000000E+00 0. -1.
     999900   -1    0    0    0    0 -0.00000000000E+00 -0.00000000000E+00 -0.74505805969E-08  0.93827000000E+00  0.93827000000E+00 0. -1.
     999902    2    1    2    0    0  0.88896433190E-02 -0.86177739305E-02  0.70351509228E-02  0.10296897355E+01  0.10295912617E+01 0.  0.
     999903    2    3    3    0    0  0.29210981094E-01 -0.81836967252E-01 -0.10018212813E+00  0.13993159305E+00  0.44652226282E-01 0.  0.
         14    1    1    2    0    0 -0.88896433190E-02  0.86177739305E-02 -0.70351509228E-02  0.14240264547E-01  0.00000000000E+00 0.  1.
     999901    1    3    3    0    0 -0.20321337775E-01  0.73219193322E-01  0.10721727905E+00  0.88975814240E+00  0.88000000000E+00 0.  1.
        -11    1    4    4    0    0  0.52539720874E-02  0.40756741823E-02 -0.15797179309E-01  0.17147225369E-01  0.51100000000E-03 0.  1.
         11    1    4    4    0    0  0.23957009006E-01 -0.85912641434E-01 -0.84384948823E-01  0.12278436768E+00  0.51100000000E-03 0. -1.
</event>
<event>
 8    1  0.2928569E+004  0.1043930E+01  0.7957747E-01            NaN
         13   -1    0    0    0    0  0.00000000000E+00  0.00000000000E+00  0.74505805969E-08  0.10566000000E+00  0.10566000000E+00 0.  1.
     999900   -1    0    0    0    0 -0.00000000000E+00 -0.00000000000E+00 -0.74505805969E-08  0.93827000000E+00  0.93827000000E+00 0. -1.
     999902    2    1    2    0    0 -0.16652828313E-01  0.37466756792E-02 -0.68562857598E-03  0.10268471327E+01  0.10267050256E+01 0.  0.
     999903    2    3    3    0    0 -0.72969523782E-02  0.91007088085E-01  0.92545034814E-01  0.13758121711E+00  0.45038563894E-01 0.  0.
         14    1    1    2    0    0  0.16652828313E-01 -0.37466756792E-02  0.68562857598E-03  0.17082867324E-01  0.00000000000E+00 0.  1.
     999901    1    3    3    0    0 -0.93558759347E-02 -0.87260412406E-01 -0.93230663390E-01  0.88926591556E+00  0.88000000000E+00 0. -1.
        -11    1    4    4    0    0  0.90711658596E-02  0.14564617399E-01  0.39606725970E-01  0.43166746381E-01  0.51100000000E-03 0.  1.
         11    1    4    4    0    0 -0.16368118238E-01  0.76442470686E-01  0.52938308844E-01  0.94414470731E-01  0.51100000000E-03 0. -1.
</event>
<event>
 7    1  0.2928569E+004  0.1043930E+01  0.7957747E-01            NaN
         13   -1    0    0    0    0  0.00000000000E+00  0.00000000000E+00  0.74505805969E-08  0.10566000000E+00  0.10566000000E+00 0.  1.
     999900   -1    0    0    0    0 -0.00000000000E+00 -0.00000000000E+00 -0.74505805969E-08  0.93827000000E+00  0.93827000000E+00 0.  1.
     999902    2    1    2    0    0 -0.20088380786E-02  0.11883214876E-01  0.73486578336E-02  0.10298144413E+01  0.10297176965E+01 0.  0.
         14    1    1    2    0    0  0.20088380786E-02 -0.11883214876E-01 -0.73486578336E-02  0.14115558727E-01  0.00000000000E+00 0. -1.
     999901    1    3    3    0    0 -0.10014957483E+00  0.79288718345E-01  0.14261380604E-01  0.88933684573E+00  0.88000000000E+00 0.  1.
        -11    1    3    3    0    0  0.37314431752E-01 -0.66186747620E-01 -0.19285473256E-01  0.78391600170E-01  0.51100000000E-03 0.  1.
         11    1    3    3    0    0  0.60826305001E-01 -0.12187558486E-02  0.12372750485E-01  0.62085995373E-01  0.51100000000E-03 0. -1.
</event>
<event>
 8    1  0.2928569E+004  0.1043930E+01  0.7957747E-01            NaN
         13   -1    0    0    0    0  0.00000000000E+00  0.00000000000E+00  0.74505805969E-08  0.10566000000E+00  0.10566000000E+00 0. -1.
     999900   -1    0    0    0    0 -0.00000000000E+00 -0.00000000000E+00 -0.74505805969E-08  0.93827000000E+00  0.93827000000E+00 0.  1.
     999902    2    1    2    0    0 -0.43566825673E-02  0.85538312842E-02 -0.96421341593E-02  0.10303241386E+01  0.10302342992E+01 0.  0.
     999903    2    3    3    0    0 -0.79447376206E-01  0.69526405692E-01  0.80320503901E-01  0.14046485573E+00  0.46186423056E-01 0.  0.
         14    1    1    2    0    0  0.43566825673E-02 -0.85538312842E-02  0.96421341593E-02  0.13605861376E-01  0.00000000000E+00 0. -1.
     999901    1    3    3    0    0  0.75090693639E-01 -0.60972574407E-01 -0.89962638061E-01  0.88985928289E+00  0.88000000000E+00 0.  1.
        -11    1    4    4    0    0 -0.50439733444E-01  0.47008185714E-01  0.23570810366E-01  0.72868240382E-01  0.51100000000E-03 0.  1.
         11    1    4    4    0    0 -0.29007642762E-01  0.22518219978E-01  0.56749693535E-01  0.67596615351E-01  0.51100000000E-03 0. -1.
</event>
<event>
 8    1  0.2928569E+004  0.1043930E+01  0.7957747E-01            NaN
         13   -1    0    0    0    0  0.00000000000E+00  0.00000000000E+00  0.74505805969E-08  0.10566000000E+00  0.10566000000E+00 0.  1.
     999900   -1    0    0    0    0 -0.00000000000E+00 -0.00000000000E+00 -0.74505805969E-08  0.93827000000E+00  0.93827000000E+00 0. -1.
     999902    2    1    2    0    0  0.17831051092E-02  0.37681411638E-02  0.19090437190E-01  0.10243897046E+01  0.10242033215E+01 0.  0.
     999903    2    3    3    0    0 -0.72634058658E-01  0.10322354818E+00  0.21727321329E-01  0.13566238681E+00  0.44737001773E-01 0.  0.
         14    1    1    2    0    0 -0.17831051092E-02 -0.37681411638E-02 -0.19090437190E-01  0.19540295385E-01  0.00000000000E+00 0. -1.
     999901    1    3    3    0    0  0.74417163767E-01 -0.99455407017E-01 -0.26368841399E-02  0.88872731780E+00  0.88000000000E+00 0.  1.
        -11    1    4    4    0    0 -0.39627277513E-01  0.82258598381E-01  0.80353928000E-03  0.91311033983E-01  0.51100000000E-03 0. -1.
         11    1    4    4    0    0 -0.33006781145E-01  0.20964949800E-01  0.20923782049E-01  0.44351352830E-01  0.51100000000E-03 0.  1.
</event>
<event>
 8    1  0.2928569E+004  0.1043930E+01  0.7957747E-01            NaN
         13   -1    0    0    0    0  0.00000000000E+00  0.00000000000E+00  0.74505805969E-08  0.10566000000E+00  0.10566000000E+00 0. -1.
     999900   -1    0    0    0    0 -0.00000000000E+00 -0.00000000000E+00 -0.74505805969E-08  0.93827000000E+00  0.93827000000E+00 0.  1.
     999902    2    1    2    0    0  0.12286682019E-01  0.39380690603E-02  0.47247131027E-02  0.10301897723E+01  0.10300981376E+01 0.  0.
     999903    2    3    3    0    0  0.88033522859E-01  0.41973844176E-01  0.92087760082E-01  0.14181113341E+00  0.46027570652E-01 0.  0.
         14    1    1    2    0    0 -0.12286682019E-01 -0.39380690603E-02 -0.47247131027E-02  0.13740227686E-01  0.00000000000E+00 0.  1.
     999901    1    3    3    0    0 -0.75746840840E-01 -0.38035775116E-01 -0.87363046979E-01  0.88837863891E+00  0.88000000000E+00 0.  1.
        -11    1    4    4    0    0  0.63825082870E-01  0.43244639634E-01  0.46116436192E-01  0.89837224292E-01  0.51100000000E-03 0. -1.
         11    1    4    4    0    0  0.24208439989E-01 -0.12707954580E-02  0.45971323889E-01  0.51973909117E-01  0.51100000000E-03 0.  1.
</event>
<event>
 8    1  0.2928569E+004  0.1043930E+01  0.7957747E-01            NaN
         13   -1    0    0    0    0  0.00000000000E+00  0.00000000000E+00  0.74505805969E-08  0.10566000000E+00  0.10566000000E+00 0. -1.
     999900   -1    0    0    0    0 -0.00000000000E+00 -0.00000000000E+00 -0.74505805969E-08  0.93827000000E+00  0.93827000000E+00 0.  1.
     999902    2    1    2    0    0  0.86023325844E-02 -0.11137228334E-01 -0.14097896528E-02  0.10297869633E+01  0.10296898389E+01 0.  0.
     999903    2    3    3    0    0  0.11253929388E+00  0.20335778812E-01 -0.68255315953E-01  0.14059532674E+00  0.45051317167E-01 0.  0.
         14    1    1    2    0    0 -0.86023325844E-02  0.11137228334E-01  0.14097896528E-02  0.14143036722E-01  0.00000000000E+00 0. -1.
     999901    1    3    3    0    0 -0.10393696130E+00 -0.31473007146E-01  0.66845526300E-01  0.88919163654E+00  0.88000000000E+00 0. -1.
        -11    1    4    4    0    0  0.41814079619E-01  0.96838251629E-02 -0.17978833689E-02  0.42961462147E-01  0.51100000000E-03 0.  1.
         11    1    4    4    0    0  0.70725214260E-01  0.10651953649E-01 -0.66457432584E-01  0.97633864593E-01  0.51100000000E-03 0. -1.
</event>
<event>
 7    1  0.2928569E+004  0.1043930E+01  0.7957747E-01            NaN
         13   -1    0    0    0    0  0.00000000000E+00  0.00000000000E+00  0.74505805969E-08  0.10566000000E+00  0.10566000000E+00 0. -1.
     999900   -1    0    0    0    0 -0.00000000000E+00 -0.00000000000E+00 -0.74505805969E-08  0.93827000000E+00  0.93827000000E+00 0.  1.
     999903    2    1    2    0    0  0.41148280042E-01 -0.77902266437E-01 -0.73614083570E-01  0.12394073374E+00  0.46693983696E-01 0.  0.
         14    1    1    2    0    0 -0.21419823405E-01 -0.13147073552E-01  0.22275795114E-01  0.33583707742E-01  0.00000000000E+00 0. -1.
     999901    1    1    2    0    0 -0.19728456637E-01  0.91049339989E-01  0.51338288455E-01  0.88640555852E+00  0.88000000000E+00 0. -1.
        -11    1    3    3    0    0  0.18922695032E-01 -0.20731145014E-02 -0.23994178430E-01  0.30632464976E-01  0.51100000000E-03 0. -1.
         11    1    3    3    0    0  0.22225585010E-01 -0.75829151935E-01 -0.49619905140E-01  0.93308268762E-01  0.51100000000E-03 0.  1.
</event>
<event>
 8    1  0.2928569E+004  0.1043930E+01  0.7957747E-01            NaN
         13   -1    0    0    0    0  0.00000000000E+00  0.00000000000E+00  0.74505805969E-08  0.10566000000E+00  0.10566000000E+00 0. -1.
     999900   -1    0    0    0    0 -0.00000000000E+00 -0.00000000000E+00 -0.74505805969E-08  0.93827000000E+00  0.93827000000E+00 0.  1.
     999902    2    1    2    0    0 -0.54221206261E-02 -0.36984047189E-02 -0.12322367856E-01  0.10299686842E+01  0.10298740564E+01 0.  0.
     999903    2    3    3    0    0  0.88577802782E-01  0.29613849028E-01 -0.94935383694E-01  0.14049097102E+00  0.44743476170E-01 0.  0.
         14    1    1    2    0    0  0.54221206261E-02  0.36984047189E-02  0.12322367856E-01  0.13961315809E-01  0.00000000000E+00 0. -1.
     999901    1    3    3    0    0 -0.93999923408E-01 -0.33312253747E-01  0.82613015838E-01  0.88947771318E+00  0.88000000000E+00 0.  1.
        -11    1    4    4    0    0  0.28683049405E-01 -0.75245286051E-02 -0.45848805572E-01  0.54605035915E-01  0.51100000000E-03 0.  1.
         11    1    4    4    0    0  0.59894753377E-01  0.37138377633E-01 -0.49086578121E-01  0.85885935100E-01  0.51100000000E-03 0. -1.
</event>
<event>
 8    1  0.2928569E+004  0.1043930E+01  0.7957747E-01            NaN
         13   -1    0    0    0    0  0.00000000000E+00  0.00000000000E+00  0.74505805969E-08  0.10566000000E+00  0.10566000000E+00 0.  1.
     999900   -1    0    0    0    0 -0.00000000000E+00 -0.00000000000E+00 -0.74505805969E-08  0.93827000000E+00  0.93827000000E+00 0. -1.
     999902    2    1    2    0    0 -0.40603330967E-02 -0.13734263764E-01 -0.35795009454E-03  0.10296036455E+01  0.10295039691E+01 0.  0.
     999903    2    3    3    0    0 -0.41988220195E-01  0.16881333946E-01 -0.12480509379E+00  0.13951211589E+00  0.42887398767E-01 0.  0.
         14    1    1    2    0    0  0.40603330967E-02  0.13734263764E-01  0.35795009454E-03  0.14326354535E-01  0.00000000000E+00 0.  1.
     999901    1    3    3    0    0  0.37927887098E-01 -0.30615597711E-01  0.12444714370E+00  0.89009152957E+00  0.88000000000E+00 0.  1.
        -11    1    4    4    0    0 -0.28827040032E-01  0.13272442663E-01 -0.29820781884E-01  0.43551074894E-01  0.51100000000E-03 0.  1.
         11    1    4    4    0    0 -0.13161180163E-01  0.36088912830E-02 -0.94984311908E-01  0.95961040997E-01  0.51100000000E-03 0. -1.
</event>
<event>
 8    1  0.2928569E+004  0.1043930E+01  0.7957747E-01            NaN
         13   -1    0    0    0    0  0.00000000000E+00  0.00000000000E+00  0.74505805969E-08  0.10566000000E+00  0.10566000000E+00 0. -1.
     999900   -1    0    0    0    0 -0.00000000000E+00 -0.00000000000E+00 -0.74505805969E-08  0.93827000000E+00  0.93827000000E+00 0. -1.
     999902    2    1    2    0    0 -0.78192119295E-02 -0.46957557858E-02  0.19885937972E-01  0.10220521407E+01  0.10218179572E+01 0.  0.
     999903    2    3    3    0    0  0.10490631879E+00 -0.20481069229E-01 -0.61481290478E-01  0.13099835600E+00  0.44224543839E-01 0.  0.
         14    1    1    2    0    0  0.78192119295E-02  0.46957557858E-02 -0.19885937972E-01  0.21877859279E-01  0.00000000000E+00 0.  1.
     999901    1    3    3    0    0 -0.11272553072E+00  0.15785313443E-01  0.81367228451E-01  0.89105378472E+00  0.88000000000E+00 0.  1.
        -11    1    4    4    0    0  0.90681914370E-01 -0.11387359879E-01 -0.31656136123E-01  0.96722560109E-01  0.51100000000E-03 0. -1.
         11    1    4    4    0    0  0.14224404419E-01 -0.90937093499E-02 -0.29825154355E-01  0.34275795893E-01  0.51100000000E-03 0.  1.
</event>
<event>
 8    1  0.2928569E+004  0.1043930E+01  0.7957747E-01            NaN
         13   -1    0    0    0    0  0.00000000000E+00  0.00000000000E+00  0.74505805969E-08  0.10566000000E+00  0.10566000000E+00 0.  1.
     999900   -1    0    0    0    0 -0.00000000000E+00 -0.00000000000E+00 -0.74505805969E-08  0.93827000000E+00  0.93827000000E+00 0.  1.
     999902    2    1    2    0    0  0.24050133958E-03 -0.50899186931E-02 -0.13077834603E-01  0.10298945139E+01  0.10297988710E+01 0.  0.
     999903    2    3    3    0    0  0.47608706806E-01  0.15992072247E-01  0.12119823486E+00  0.13820047437E+00  0.43451394066E-01 0.  0.
         14    1    1    2    0    0 -0.24050133958E-03  0.50899186931E-02  0.13077834603E-01  0.14035486137E-01  0.00000000000E+00 0.  1.
     999901    1    3    3    0    0 -0.47368205467E-01 -0.21081990941E-01 -0.13427606946E+00  0.89169403949E+00  0.88000000000E+00 0. -1.
        -11    1    4    4    0    0  0.33585886742E-01  0.29284557993E-01  0.10018920374E+00  0.10965279199E+00  0.51100000000E-03 0. -1.
         11    1    4    4    0    0  0.14022820065E-01 -0.13292485745E-01  0.21009031122E-01  0.28547682385E-01  0.51100000000E-03 0.  1.
</event>
<event>
 8    1  0.2928569E+004  0.1043930E+01  0.7957747E-01            NaN
         13   -1    0    0    0    0  0.00000000000E+00  0.00000000000E+00  0.74505805969E-08  0.10566000000E+00  0.10566000000E+00 0.  1.
     999900   -1    0    0    0    0 -0.00000000000E+00 -0.00000000000E+00 -0.74505805969E-08  0.93827000000E+00  0.93827000000E+00 0. -1.
     999902    2    1    2    0    0 -0.79918428990E-02 -0.70882375041E-02 -0.97618508935E-02  0.10294591190E+01  0.10293574070E+01 0.  0.
     999903    2    3    3    0    0  0.42402402862E-01  0.10371726446E+00 -0.69517015562E-01  0.13907261924E+00  0.44196643011E-01 0.  0.
         14    1    1    2    0    0  0.79918428990E-02  0.70882375041E-02  0.97618508935E-02  0.14470880993E-01  0.00000000000E+00 0.  1.
     999901    1    3    3    0    0 -0.50394245761E-01 -0.11080550196E+00  0.59755164668E-01  0.89038649977E+00  0.88000000000E+00 0.  1.
        -11    1    4    4    0    0  0.41746504571E-02  0.17838790504E-01  0.51335908228E-02  0.19033261119E-01  0.51100000000E-03 0. -1.
         11    1    4    4    0    0  0.38227752405E-01  0.85878473953E-01 -0.74650606385E-01  0.12003935812E+00  0.51100000000E-03 0.  1.
</event>
<event>
 8    1  0.2928569E+004  0.1043930E+01  0.7957747E-01            NaN
         13   -1    0    0    0    0  0.00000000000E+00  0.00000000000E+00  0.74505805969E-08  0.10566000000E+00  0.10566000000E+00 0. -1.
     999900   -1    0    0    0    0 -0.00000000000E+00 -0.00000000000E+00 -0.74505805969E-08  0.93827000000E+00  0.93827000000E+00 0.  1.
     999902    2    1    2    0    0 -0.71858178791E-02  0.91392077625E-02 -0.74547095778E-02  0.10301193595E+01  0.10300267768E+01 0.  0.
     999903    2    3    3    0    0 -0.12464535357E+00  0.39660946729E-01  0.20823191330E-01  0.14134044502E+00  0.49336206172E-01 0.  0.
         14    1    1    2    0    0  0.71858178791E-02 -0.91392077625E-02  0.74547095778E-02  0.13810640536E-01  0.00000000000E+00 0.  1.
     999901    1    3    3    0    0  0.11745953569E+00 -0.30521738967E-01 -0.28277900907E-01  0.88877891444E+00  0.88000000000E+00 0. -1.
        -11    1    4    4    0    0 -0.85330033540E-01  0.18381241787E-01  0.35577793007E-01  0.94260941804E-01  0.51100000000E-03 0. -1.
         11    1    4    4    0    0 -0.39315320033E-01  0.21279704942E-01 -0.14754601677E-01  0.47079503219E-01  0.51100000000E-03 0.  1.
</event>
<event>
 7    1  0.2928569E+004  0.1043930E+01  0.7957747E-01            NaN
         13   -1    0    0    0    0  0.00000000000E+00  0.00000000000E+00  0.74505805969E-08  0.10566000000E+00  0.10566000000E+00 0. -1.
     999900   -1    0    0    0    0 -0.00000000000E+00 -0.00000000000E+00 -0.74505805969E-08  0.93827000000E+00  0.93827000000E+00 0.  1.
     999903    2    1    2    0    0  0.72192978571E-01 -0.10721225791E-01 -0.64354462558E-01  0.10729301098E+00  0.45205337247E-01 0.  0.
         14    1    1    2    0    0 -0.50282357002E-01  0.12370990407E-01 -0.11687471220E-01  0.53084402726E-01  0.00000000000E+00 0. -1.
     999901    1    1    2    0    0 -0.21910621570E-01 -0.16497646152E-02  0.76041933778E-01  0.88355258630E+00  0.88000000000E+00 0. -1.
        -11    1    3    3    0    0  0.43472316022E-01  0.89386007722E-02 -0.14904559723E-01  0.46820378743E-01  0.51100000000E-03 0.  1.
         11    1    3    3    0    0  0.28720662550E-01 -0.19659826564E-01 -0.49449902835E-01  0.60472632233E-01  0.51100000000E-03 0. -1.
</event>
<event>
 8    1  0.2928569E+004  0.1043930E+01  0.7957747E-01            NaN
         13   -1    0    0    0    0  0.00000000000E+00  0.00000000000E+00  0.74505805969E-08  0.10566000000E+00  0.10566000000E+00 0. -1.
     999900   -1    0    0    0    0 -0.00000000000E+00 -0.00000000000E+00 -0.74505805969E-08  0.93827000000E+00  0.93827000000E+00 0. -1.
     999902    2    1    2    0    0  0.65661462694E-02  0.73391788351E-02  0.99028248782E-02  0.10299641931E+01  0.10298695040E+01 0.  0.
     999903    2    3    3    0    0  0.44673023855E-01  0.11956505081E+00 -0.40005289461E-01  0.14061746634E+00  0.43374741729E-01 0.  0.
         14    1    1    2    0    0 -0.65661462694E-02 -0.73391788351E-02 -0.99028248782E-02  0.13965806936E-01  0.00000000000E+00 0.  1.
     999901    1    3    3    0    0 -0.38106877585E-01 -0.11222587197E+00  0.49908114339E-01  0.88934672672E+00  0.88000000000E+00 0.  1.
        -11    1    4    4    0    0  0.20688190055E-01  0.99305057800E-01 -0.20016546241E-01  0.10339448224E+00  0.51100000000E-03 0. -1.
         11    1    4    4    0    0  0.23984833800E-01  0.20259993006E-01 -0.19988743219E-01  0.37222984103E-01  0.51100000000E-03 0.  1.
</event>
<event>
 8    1  0.2928569E+004  0.1043930E+01  0.7957747E-01            NaN
         13   -1    0    0    0    0  0.00000000000E+00  0.00000000000E+00  0.74505805969E-08  0.10566000000E+00  0.10566000000E+00 0. -1.
     999900   -1    0    0    0    0 -0.00000000000E+00 -0.00000000000E+00 -0.74505805969E-08  0.93827000000E+00  0.93827000000E+00 0.  1.
     999902    2    1    2    0    0 -0.16369634748E-02  0.95560278880E-02 -0.90381057785E-02  0.10306753904E+01  0.10305901590E+01 0.  0.
     999903    2    3    3    0    0  0.51098320650E-01  0.30182421529E-01 -0.12060177536E+00  0.14182618463E+00  0.45253303584E-01 0.  0.
         14    1    1    2    0    0  0.16369634748E-02 -0.95560278880E-02  0.90381057785E-02  0.13254609556E-01  0.00000000000E+00 0.  1.
     999901    1    3    3    0    0 -0.52735284124E-01 -0.20626393641E-01  0.11156366958E+00  0.88884920581E+00  0.88000000000E+00 0. -1.
        -11    1    4    4    0    0  0.24429537378E-01  0.16921653303E-01 -0.10305215819E+00  0.10725275323E+00  0.51100000000E-03 0.  1.
         11    1    4    4    0    0  0.26668783271E-01  0.13260768226E-01 -0.17549617168E-01  0.34573431401E-01  0.51100000000E-03 0. -1.
</event>
<event>
 8    1  0.2928569E+004  0.1043930E+01  0.7957747E-01            NaN
         13   -1    0    0    0    0  0.00000000000E+00  0.00000000000E+00  0.74505805969E-08  0.10566000000E+00  0.10566000000E+00 0. -1.
     999900   -1    0    0    0    0 -0.00000000000E+00 -0.00000000000E+00 -0.74505805969E-08  0.93827000000E+00  0.93827000000E+00 0.  1.
     999902    2    1    2    0    0 -0.47124515539E-03 -0.38907012200E-02  0.13821901939E-01  0.10295632119E+01  0.10294629681E+01 0.  0.
     999903    2    3    3    0    0  0.47445971192E-01  0.27000664052E-01 -0.11825884250E+00  0.13788184550E+00  0.45233764485E-01 0.  0.
         14    1    1    2    0    0  0.47124515539E-03  0.38907012200E-02 -0.13821901939E-01  0.14366788131E-01  0.00000000000E+00 0.  1.
     999901    1    3    3    0    0 -0.47917216347E-01 -0.30891365272E-01  0.13208074444E+00  0.89168136636E+00  0.88000000000E+00 0. -1.
        -11    1    4    4    0    0  0.34897157653E-01  0.25272138064E-01 -0.40629853014E-01  0.59224476794E-01  0.51100000000E-03 0.  1.
         11    1    4    4    0    0  0.12548813539E-01  0.17285259874E-02 -0.77628989483E-01  0.78657368711E-01  0.51100000000E-03 0. -1.
</event>
<event>
 8    1  0.2928569E+004  0.1043930E+01  0.7957747E-01            NaN
         13   -1    0    0    0    0  0.00000000000E+00  0.00000000000E+00  0.74505805969E-08  0.10566000000E+00  0.10566000000E+00 0.  1.
     999900   -1    0    0    0    0 -0.00000000000E+00 -0.00000000000E+00 -0.74505805969E-08  0.93827000000E+00  0.93827000000E+00 0.  1.
     999902    2    1    2    0    0 -0.57954470729E-03  0.13482144167E-01 -0.15584591247E-02  0.10303457121E+01  0.10302561592E+01 0.  0.
     999903    2    3    3    0    0  0.84825617950E-01  0.83754711448E-01 -0.59667581293E-01  0.14152123807E+00  0.47516348949E-01 0.  0.
         14    1    1    2    0    0  0.57954470729E-03 -0.13482144167E-01  0.15584591247E-02  0.13584287919E-01  0.00000000000E+00 0. -1.
     999901    1    3    3    0    0 -0.85405162657E-01 -0.70272567281E-01  0.58109122168E-01  0.88882447401E+00  0.88000000000E+00 0. -1.
        -11    1    4    4    0    0  0.76650570733E-01  0.55166437688E-01 -0.28975615556E-01  0.98785086216E-01  0.51100000000E-03 0.  1.
         11    1    4    4    0    0  0.81750472174E-02  0.28588273760E-01 -0.30691965737E-01  0.42736151855E-01  0.51100000000E-03 0. -1.
</event>
<event>
 8    1  0.2928569E+004  0.1043930E+01  0.7957747E-01            NaN
         13   -1    0    0    0    0  0.00000000000E+00  0.00000000000E+00  0.74505805969E-08  0.10566000000E+00  0.10566000000E+00 0.  1.
     999900   -1    0    0    0    0 -0.00000000000E+00 -0.00000000000E+00 -0.74505805969E-08  0.93827000000E+00  0.93827000000E+00 0.  1.
     999902    2    1    2    0    0  0.91193426306E-02  0.96881625760E-02 -0.31234086446E-02  0.10302633038E+01  0.10301726537E+01 0.  0.
     999903    2    3    3    0    0  0.30281291030E-01  0.74586618856E-01  0.10640621578E+00  0.14084980247E+00  0.45124979780E-01 0.  0.
         14    1    1    2    0    0 -0.91193426306E-02 -0.96881625760E-02  0.31234086446E-02  0.13666696224E-01  0.00000000000E+00 0. -1.
     999901    1    3    3    0    0 -0.21161948399E-01 -0.64898456280E-01 -0.10952962442E+00  0.88941350131E+00  0.88000000000E+00 0.  1.
        -11    1    4    4    0    0 -0.10419484979E-01  0.62007498330E-02  0.19870753535E-01  0.23283533511E-01  0.51100000000E-03 0. -1.
         11    1    4    4    0    0  0.40700776009E-01  0.68385869023E-01  0.86535462241E-01  0.11756626895E+00  0.51100000000E-03 0.  1.
</event>
<event>
 8    1  0.2928569E+004  0.1043930E+01  0.7957747E-01            NaN
         13   -1    0    0    0    0  0.00000000000E+00  0.00000000000E+00  0.74505805969E-08  0.10566000000E+00  0.10566000000E+00 0.  1.
     999900   -1    0    0    0    0 -0.00000000000E+00 -0.00000000000E+00 -0.74505805969E-08  0.93827000000E+00  0.93827000000E+00 0.  1.
     999902    2    1    2    0    0 -0.10914602739E-01 -0.31834574619E-02  0.76669939767E-02  0.10302170225E+01  0.10301257534E+01 0.  0.
     999903    2    3    3    0    0 -0.99224407241E-01  0.14371098065E-01  0.90284509919E-01  0.14177319317E+00  0.43546918591E-01 0.  0.
         14    1    1    2    0    0  0.10914602739E-01  0.31834574619E-02 -0.76669939767E-02  0.13712977466E-01  0.00000000000E+00 0. -1.
     999901    1    3    3    0    0  0.88309804503E-01 -0.17554555527E-01 -0.82617515943E-01  0.88844382936E+00  0.88000000000E+00 0.  1.
        -11    1    4    4    0    0 -0.45589746481E-01  0.19915539070E-01  0.65954754061E-01  0.82615642495E-01  0.51100000000E-03 0.  1.
         11    1    4    4    0    0 -0.53634660760E-01 -0.55444410049E-02  0.24329755858E-01  0.59157550676E-01  0.51100000000E-03 0. -1.
</event>
<event>
 8    1  0.2928569E+004  0.1043930E+01  0.7957747E-01            NaN
         13   -1    0    0    0    0  0.00000000000E+00  0.00000000000E+00  0.74505805969E-08  0.10566000000E+00  0.10566000000E+00 0. -1.
     999900   -1    0    0    0    0 -0.00000000000E+00 -0.00000000000E+00 -0.74505805969E-08  0.93827000000E+00  0.93827000000E+00 0. -1.
     999902    2    1    2    0    0 -0.11292459559E-01 -0.76127286940E-02 -0.27363029485E-02  0.10300389729E+01  0.10299453019E+01 0.  0.
     999903    2    3    3    0    0 -0.27482838967E-01 -0.12203586689E-02 -0.13047470700E+00  0.14064587043E+00  0.44730481663E-01 0.  0.
         14    1    1    2    0    0  0.11292459559E-01  0.76127286940E-02  0.27363029485E-02  0.13891027136E-01  0.00000000000E+00 0.  1.
     999901    1    3    3    0    0  0.16190379408E-01 -0.63923700250E-02  0.12773840405E+00  0.88939310243E+00  0.88000000000E+00 0.  1.
        -11    1    4    4    0    0 -0.38577706279E-01 -0.79193459456E-02 -0.93258708524E-01  0.10123439780E+00  0.51100000000E-03 0. -1.
         11    1    4    4    0    0  0.11094867312E-01  0.66989872766E-02 -0.37215998478E-01  0.39411472631E-01  0.51100000000E-03 0.  1.
</event>
<event>
 8    1  0.2928569E+004  0.1043930E+01  0.7957747E-01            NaN
         13   -1    0    0    0    0  0.00000000000E+00  0.00000000000E+00  0.74505805969E-08  0.10566000000E+00  0.10566000000E+00 0. -1.
     999900   -1    0    0    0    0 -0.00000000000E+00 -0.00000000000E+00 -0.74505805969E-08  0.93827000000E+00  0.93827000000E+00 0. -1.
     999902    2    1    2    0    0  0.66002119445E-02  0.11396173740E-01 -0.62197341365E-02  0.10293656371E+01  0.10292625973E+01 0.  0.
     999903    2    3    3    0    0  0.41762749688E-01 -0.83954514610E-01 -0.92647327061E-01  0.13931064631E+00  0.45071511836E-01 0.  0.
         14    1    1    2    0    0 -0.66002119445E-02 -0.11396173740E-01  0.62197341365E-02  0.14564362889E-01  0.00000000000E+00 0. -1.
     999901    1    3    3    0    0 -0.35162537743E-01  0.95350688350E-01  0.86427592924E-01  0.89005499080E+00  0.88000000000E+00 0.  1.
        -11    1    4    4    0    0 -0.65861270929E-02 -0.15026045339E-01 -0.36848390518E-02  0.16822552377E-01  0.51100000000E-03 0. -1.
         11    1    4    4    0    0  0.48348876781E-01 -0.68928469271E-01 -0.88962488009E-01  0.12248809393E+00  0.51100000000E-03 0.  1.
</event>
<event>
 8    1  0.2928569E+004  0.1043930E+01  0.7957747E-01            NaN
         13   -1    0    0    0    0  0.00000000000E+00  0.00000000000E+00  0.74505805969E-08  0.10566000000E+00  0.10566000000E+00 0.  1.
     999900   -1    0    0    0    0 -0.00000000000E+00 -0.00000000000E+00 -0.74505805969E-08  0.93827000000E+00  0.93827000000E+00 0. -1.
     999902    2    1    2    0    0  0.96313039484E-02 -0.74583161582E-02  0.51791429267E-02  0.10306932324E+01  0.10306082317E+01 0.  0.
     999903    2    3    3    0    0  0.10603805542E+00 -0.62497652038E-01  0.55197291948E-01  0.14230964098E+00  0.45335054540E-01 0.  0.
         14    1    1    2    0    0 -0.96313039484E-02  0.74583161582E-02 -0.51791429267E-02  0.13236767623E-01  0.00000000000E+00 0. -1.
     999901    1    3    3    0    0 -0.96406751476E-01  0.55039335880E-01 -0.50018149021E-01  0.88838359139E+00  0.88000000000E+00 0. -1.
        -11    1    4    4    0    0  0.71897262734E-01 -0.33061016883E-01  0.56456382398E-01  0.97210243599E-01  0.51100000000E-03 0.  1.
         11    1    4    4    0    0  0.34140792690E-01 -0.29436635155E-01 -0.12590904501E-02  0.45099397385E-01  0.51100000000E-03 0. -1.
</event>
<event>
 8    1  0.2928569E+004  0.1043930E+01  0.7957747E-01            NaN
         13   -1    0    0    0    0  0.00000000000E+00  0.00000000000E+00  0.74505805969E-08  0.10566000000E+00  0.10566000000E+00 0. -1.
     999900   -1    0    0    0    0 -0.00000000000E+00 -0.00000000000E+00 -0.74505805969E-08  0.93827000000E+00  0.93827000000E+00 0. -1.
     999902    2    1    2    0    0 -0.81692184261E-02  0.73361783349E-02 -0.70084534327E-02  0.10309041003E+01  0.10308218032E+01 0.  0.
     999903    2    3    3    0    0  0.12762807721E+00  0.35891219215E-01 -0.67129118820E-02  0.14003015685E+00  0.44567655672E-01 0.  0.
         14    1    1    2    0    0  0.81692184261E-02 -0.73361783349E-02  0.70084534327E-02  0.13025899653E-01  0.00000000000E+00 0. -1.
     999901    1    3    3    0    0 -0.13579729563E+00 -0.28555040880E-01 -0.29554155064E-03  0.89087394350E+00  0.88000000000E+00 0.  1.
        -11    1    4    4    0    0  0.11357144117E+00  0.38275514352E-01 -0.18821538123E-01  0.12131775907E+00  0.51100000000E-03 0.  1.
         11    1    4    4    0    0  0.14056636041E-01 -0.23842951364E-02  0.12108626241E-01  0.18712397776E-01  0.51100000000E-03 0. -1.
</event>
<event>
 8    1  0.2928569E+004  0.1043930E+01  0.7957747E-01            NaN
         13   -1    0    0    0    0  0.00000000000E+00  0.00000000000E+00  0.74505805969E-08  0.10566000000E+00  0.10566000000E+00 0.  1.
     999900   -1    0    0    0    0 -0.00000000000E+00 -0.00000000000E+00 -0.74505805969E-08  0.93827000000E+00  0.93827000000E+00 0.  1.
     999902    2    1    2    0    0 -0.16988716944E-02 -0.12769620011E-01 -0.55565527935E-02  0.10299005795E+01  0.10298050199E+01 0.  0.
     999903    2    3    3    0    0 -0.61075017096E-01  0.71344785628E-01 -0.92655840879E-01  0.13962700029E+00  0.45720435380E-01 0.  0.
         14    1    1    2    0    0  0.16988716944E-02  0.12769620011E-01  0.55565527935E-02  0.14029420487E-01  0.00000000000E+00 0. -1.
     999901    1    3    3    0    0  0.59376145401E-01 -0.84114405639E-01  0.87099288085E-01  0.89027357922E+00  0.88000000000E+00 0. -1.
        -11    1    4    4    0    0 -0.54451914418E-01  0.38087611835E-01 -0.78570697828E-01  0.10290428969E+00  0.51100000000E-03 0. -1.
         11    1    4    4    0    0 -0.66231026775E-02  0.33257173793E-01 -0.14085143051E-01  0.36722710596E-01  0.51100000000E-03 0.  1.
</event>
<event>
 8    1  0.2928569E+004  0.1043930E+01  0.7957747E-01            NaN
         13   -1    0    0    0    0  0.00000000000E+00  0.00000000000E+00  0.74505805969E-08  0.10566000000E+00  0.10566000000E+00 0. -1.
     999900   -1    0    0    0    0 -0.00000000000E+00 -0.00000000000E+00 -0.74505805969E-08  0.93827000000E+00  0.93827000000E+00 0.  1.
     999902    2    1    2    0    0  0.69216874584E-02  0.11018530746E-01  0.62276414783E-02  0.10295042835E+01  0.10294032099E+01 0.  0.
     999903    2    3    3    0    0 -0.22823003650E-01 -0.12834213763E+00  0.11257008151E-01  0.13802717387E+00  0.43956645764E-01 0.  0.
         14    1    1    2    0    0 -0.69216874584E-02 -0.11018530746E-01 -0.62276414783E-02  0.14425716463E-01  0.00000000000E+00 0.  1.
     999901    1    3    3    0    0  0.29744691108E-01  0.13936066837E+00 -0.50293666724E-02  0.89147710967E+00  0.88000000000E+00 0.  1.
        -11    1    4    4    0    0 -0.28224472488E-01 -0.12629997749E+00  0.16177319716E-01  0.13042343330E+00  0.51100000000E-03 0.  1.
         11    1    4    4    0    0  0.54014688384E-02 -0.20421601402E-02 -0.49203115656E-02  0.76037405633E-02  0.51100000000E-03 0. -1.
</event>
<event>
 8    1  0.2928569E+004  0.1043930E+01  0.7957747E-01            NaN
         13   -1    0    0    0    0  0.00000000000E+00  0.00000000000E+00  0.74505805969E-08  0.10566000000E+00  0.10566000000E+00 0.  1.
     999900   -1    0    0    0    0 -0.00000000000E+00 -0.00000000000E+00 -0.74505805969E-08  0.93827000000E+00  0.93827000000E+00 0.  1.
     999902    2    1    2    0    0  0.75542295219E-02  0.12114049674E-01  0.85995623392E-04  0.10296533065E+01  0.10295543247E+01 0.  0.
     999903    2    3    3    0    0  0.38452844686E-01  0.12130395278E+00  0.42072639828E-01  0.14137404989E+00  0.44980492833E-01 0.  0.
         14    1    1    2    0    0 -0.75542295219E-02 -0.12114049674E-01 -0.85995623392E-04  0.14276693539E-01  0.00000000000E+00 0. -1.
     999901    1    3    3    0    0 -0.30898615164E-01 -0.10918990311E+00 -0.41986644205E-01  0.88827925657E+00  0.88000000000E+00 0.  1.
        -11    1    4    4    0    0  0.20877238858E-01  0.24001938551E-01 -0.44025075559E-02  0.32118458094E-01  0.51100000000E-03 0.  1.
         11    1    4    4    0    0  0.17575605828E-01  0.97302014231E-01  0.46475147384E-01  0.10925559180E+00  0.51100000000E-03 0. -1.
</event>
<event>
 8    1  0.2928569E+004  0.1043930E+01  0.7957747E-01            NaN
         13   -1    0    0    0    0  0.00000000000E+00  0.00000000000E+00  0.74505805969E-08  0.10566000000E+00  0.10566000000E+00 0. -1.
     999900   -1    0    0    0    0 -0.00000000000E+00 -0.00000000000E+00 -0.74505805969E-08  0.93827000000E+00  0.93827000000E+00 0. -1.
     999902    2    1    2    0    0 -0.97958911540E-02 -0.72421558505E-02 -0.64246095201E-02  0.10301574217E+01  0.10300653521E+01 0.  0.
     999903    2    3    3    0    0  0.50481723478E-01  0.11391579119E+00 -0.39746954214E-01  0.13918996013E+00  0.47632055867E-01 0.  0.
         14    1    1    2    0    0  0.97958911540E-02  0.72421558505E-02  0.64246095201E-02  0.13772578275E-01  0.00000000000E+00 0. -1.
     999901    1    3    3    0    0 -0.60277614632E-01 -0.12115794704E+00  0.33322344694E-01  0.89096746159E+00  0.88000000000E+00 0.  1.
        -11    1    4    4    0    0  0.36595780720E-01  0.63884873511E-01  0.28287278712E-03  0.73626553417E-01  0.51100000000E-03 0.  1.
         11    1    4    4    0    0  0.13885942758E-01  0.50030917675E-01 -0.40029827001E-01  0.65563406718E-01  0.51100000000E-03 0. -1.
</event>
<event>
 8    1  0.2928569E+004  0.1043930E+01  0.7957747E-01            NaN
         13   -1    0    0    0    0  0.00000000000E+00  0.00000000000E+00  0.74505805969E-08  0.10566000000E+00  0.10566000000E+00 0. -1.
     999900   -1    0    0    0    0 -0.00000000000E+00 -0.00000000000E+00 -0.74505805969E-08  0.93827000000E+00  0.93827000000E+00 0.  1.
     999902    2    1    2    0    0  0.55653526711E-02  0.10239548843E-01 -0.57922119193E-02  0.10309157298E+01  0.10308335805E+01 0.  0.
     999903    2    3    3    0    0 -0.32301655779E-01  0.35842006668E-01 -0.12542079324E+00  0.14164614542E+00  0.44779557010E-01 0.  0.
         14    1    1    2    0    0 -0.55653526711E-02 -0.10239548843E-01  0.57922119193E-02  0.13014270236E-01  0.00000000000E+00 0. -1.
     999901    1    3    3    0    0  0.37867008450E-01 -0.25602457825E-01  0.11962858132E+00  0.88926958435E+00  0.88000000000E+00 0. -1.
        -11    1    4    4    0    0 -0.34374471501E-01  0.43794620688E-01 -0.94826769595E-01  0.10996340503E+00  0.51100000000E-03 0. -1.
         11    1    4    4    0    0  0.20728157220E-02 -0.79526140198E-02 -0.30594023646E-01  0.31682740390E-01  0.51100000000E-03 0.  1.
</event>
<event>
 8    1  0.2928569E+004  0.1043930E+01  0.7957747E-01            NaN
         13   -1    0    0    0    0  0.00000000000E+00  0.00000000000E+00  0.74505805969E-08  0.10566000000E+00  0.10566000000E+00 0.  1.
     999900   -1    0    0    0    0 -0.00000000000E+00 -0.00000000000E+00 -0.74505805969E-08  0.93827000000E+00  0.93827000000E+00 0. -1.
     999902    2    1    2    0    0  0.10577028843E-01 -0.96664348097E-03  0.74666925694E-02  0.10309469558E+01  0.10308652027E+01 0.  0.
     999903    2    3    3    0    0 -0.57964975995E-01 -0.11079612899E-01 -0.11958974711E+00  0.13912656052E+00  0.39645882050E-01 0.  0.
         14    1    1    2    0    0 -0.10577028843E-01  0.96664348097E-03 -0.74666925694E-02  0.12983044199E-01  0.00000000000E+00 0. -1.
     999901    1    3    3    0    0  0.68542004837E-01  0.10112969418E-01  0.12705643968E+00  0.89182039528E+00  0.88000000000E+00 0.  1.
        -11    1    4    4    0    0 -0.39044756179E-01  0.12361437948E-01 -0.69969191679E-01  0.81075563757E-01  0.51100000000E-03 0. -1.
         11    1    4    4    0    0 -0.18920219815E-01 -0.23441050846E-01 -0.49620555431E-01  0.58050996761E-01  0.51100000000E-03 0.  1.
</event>
<event>
 8    1  0.2928569E+004  0.1043930E+01  0.7957747E-01            NaN
         13   -1    0    0    0    0  0.00000000000E+00  0.00000000000E+00  0.74505805969E-08  0.10566000000E+00  0.10566000000E+00 0. -1.
     999900   -1    0    0    0    0 -0.00000000000E+00 -0.00000000000E+00 -0.74505805969E-08  0.93827000000E+00  0.93827000000E+00 0.  1.
     999902    2    1    2    0    0 -0.67405006647E-03 -0.44548633038E-02 -0.14933419358E-01  0.10283316935E+01  0.10282133849E+01 0.  0.
     999903    2    3    3    0    0 -0.12033909678E+00  0.27532158579E-01 -0.48831082171E-01  0.13901063537E+00  0.41230621989E-01 0.  0.
         14    1    1    2    0    0  0.67405006647E-03  0.44548633038E-02  0.14933419358E-01  0.15598306455E-01  0.00000000000E+00 0. -1.
     999901    1    3    3    0    0  0.11966504671E+00 -0.31987021883E-01  0.33897662813E-01  0.88932105818E+00  0.88000000000E+00 0.  1.
        -11    1    4    4    0    0 -0.46674182237E-01  0.82521126040E-02  0.20213160234E-02  0.47443898337E-01  0.51100000000E-03 0.  1.
         11    1    4    4    0    0 -0.73664914542E-01  0.19280045975E-01 -0.50852398195E-01  0.91566737031E-01  0.51100000000E-03 0. -1.
</event>
<event>
 8    1  0.2928569E+004  0.1043930E+01  0.7957747E-01            NaN
         13   -1    0    0    0    0  0.00000000000E+00  0.00000000000E+00  0.74505805969E-08  0.10566000000E+00  0.10566000000E+00 0.  1.
     999900   -1    0    0    0    0 -0.00000000000E+00 -0.00000000000E+00 -0.74505805969E-08  0.93827000000E+00  0.93827000000E+00 0. -1.
     999902    2    1    2    0    0 -0.11044879024E-01  0.10516284381E-01  0.21054305653E-02  0.10285347271E+01  0.10284195012E+01 0.  0.
     999903    2    3    3    0    0  0.30392055657E-01 -0.10261563091E+00  0.77879329984E-01  0.13709906837E+00  0.35739610470E-01 0.  0.
         14    1    1    2    0    0  0.11044879024E-01 -0.10516284381E-01 -0.21054305653E-02  0.15395272901E-01  0.00000000000E+00 0.  1.
     999901    1    3    3    0    0 -0.41436934681E-01  0.11313191529E+00 -0.75773899419E-01  0.89143565872E+00  0.88000000000E+00 0. -1.
        -11    1    4    4    0    0  0.21542858395E-01 -0.19517710908E-01  0.16698106530E-01  0.33527953555E-01  0.51100000000E-03 0.  1.
         11    1    4    4    0    0  0.88491972622E-02 -0.83097920000E-01  0.61181223455E-01  0.10357111482E+00  0.51100000000E-03 0. -1.
</event>
<event>
 8    1  0.2928569E+004  0.1043930E+01  0.7957747E-01            NaN
         13   -1    0    0    0    0  0.00000000000E+00  0.00000000000E+00  0.74505805969E-08  0.10566000000E+00  0.10566000000E+00 0.  1.
     999900   -1    0    0    0    0 -0.00000000000E+00 -0.00000000000E+00 -0.74505805969E-08  0.93827000000E+00  0.93827000000E+00 0. -1.
     999902    2    1    2    0    0  0.95570127564E-02 -0.94142339148E-02  0.11823943987E-02  0.10304629161E+01  0.10303749119E+01 0.  0.
     999903    2    3    3    0    0 -0.11301947462E+00 -0.67926672657E-01  0.14563679108E-01  0.13994185538E+00  0.44544221140E-01 0.  0.
         14    1    1    2    0    0 -0.95570127564E-02  0.94142339148E-02 -0.11823943987E-02  0.13467083929E-01  0.00000000000E+00 0. -1.
     999901    1    3    3    0    0  0.12257648738E+00  0.58512438742E-01 -0.13381284709E-01  0.89052106069E+00  0.88000000000E+00 0.  1.
        -11    1    4    4    0    0 -0.16346751604E-01 -0.85882016962E-02 -0.13751081357E-01  0.23028826628E-01  0.51100000000E-03 0. -1.
         11    1    4    4    0    0 -0.96672723020E-01 -0.59338470961E-01  0.28314760464E-01  0.11691302876E+00  0.51100000000E-03 0.  1.
</event>
<event>
 8    1  0.2928569E+004  0.1043930E+01  0.7957747E-01            NaN
         13   -1    0    0    0    0  0.00000000000E+00  0.00000000000E+00  0.74505805969E-08  0.10566000000E+00  0.10566000000E+00 0. -1.
     999900   -1    0    0    0    0 -0.00000000000E+00 -0.00000000000E+00 -0.74505805969E-08  0.93827000000E+00  0.93827000000E+00 0.  1.
     999902    2    1    2    0    0  0.97684086688E-02  0.56681934751E-02  0.83597248631E-02  0.10298788355E+01  0.10297829774E+01 0.  0.
     999903    2    3    3    0    0 -0.74997571602E-01  0.10464847605E+00 -0.28980124503E-01  0.13949878621E+00  0.45211994548E-01 0.  0.
         14    1    1    2    0    0 -0.97684086688E-02 -0.56681934751E-02 -0.83597248631E-02  0.14051164542E-01  0.00000000000E+00 0. -1.
     999901    1    3    3    0    0  0.84765980270E-01 -0.98980282579E-01  0.37339849366E-01  0.89038004925E+00  0.88000000000E+00 0. -1.
        -11    1    4    4    0    0 -0.25715892427E-01  0.71970694426E-01 -0.84120589921E-02  0.76890258401E-01  0.51100000000E-03 0.  1.
         11    1    4    4    0    0 -0.49281679175E-01  0.32677781628E-01 -0.20568065511E-01  0.62608527808E-01  0.51100000000E-03 0. -1.
</event>
<event>
 8    1  0.2928569E+004  0.1043930E+01  0.7957747E-01            NaN
         13   -1    0    0    0    0  0.00000000000E+00  0.00000000000E+00  0.74505805969E-08  0.10566000000E+00  0.10566000000E+00 0. -1.
     999900   -1    0    0    0    0 -0.00000000000E+00 -0.00000000000E+00 -0.74505805969E-08  0.93827000000E+00  0.93827000000E+00 0.  1.
     999902    2    1    2    0    0 -0.14113441141E-02  0.13274605348E-01 -0.32305107755E-02  0.10301952543E+01  0.10301036932E+01 0.  0.
     999903    2    3    3    0    0  0.43621055623E-01  0.39486167838E-01  0.11878505483E+00  0.14024988448E+00  0.45805970155E-01 0.  0.
         14    1    1    2    0    0  0.14113441141E-02 -0.13274605348E-01  0.32305107755E-02  0.13734745692E-01  0.00000000000E+00 0.  1.
     999901    1    3    3    0    0 -0.45032399737E-01 -0.26211562491E-01 -0.12201556560E+00  0.88994536983E+00  0.88000000000E+00 0.  1.
        -11    1    4    4    0    0  0.33218512135E-01  0.11513229050E-02  0.39948372750E-01  0.51970459872E-01  0.51100000000E-03 0.  1.
         11    1    4    4    0    0  0.10402543488E-01  0.38334844933E-01  0.78836682075E-01  0.88279424606E-01  0.51100000000E-03 0. -1.
</event>
<event>
 8    1  0.2928569E+004  0.1043930E+01  0.7957747E-01            NaN
         13   -1    0    0    0    0  0.00000000000E+00  0.00000000000E+00  0.74505805969E-08  0.10566000000E+00  0.10566000000E+00 0. -1.
     999900   -1    0    0    0    0 -0.00000000000E+00 -0.00000000000E+00 -0.74505805969E-08  0.93827000000E+00  0.93827000000E+00 0. -1.
     999902    2    1    2    0    0  0.14104696533E-01 -0.10029579764E-02 -0.31842812330E-02  0.10294355860E+01  0.10293335406E+01 0.  0.
     999903    2    3    3    0    0  0.10562082438E+00  0.21500912282E-01 -0.79275992665E-01  0.14113857807E+00  0.44915113657E-01 0.  0.
         14    1    1    2    0    0 -0.14104696533E-01  0.10029579764E-02  0.31842812330E-02  0.14494413957E-01  0.00000000000E+00 0. -1.
     999901    1    3    3    0    0 -0.91516127843E-01 -0.22503870259E-01  0.76091711432E-01  0.88829700798E+00  0.88000000000E+00 0.  1.
        -11    1    4    4    0    0  0.54330399143E-01 -0.21758923133E-03 -0.15580334745E-01  0.56522982652E-01  0.51100000000E-03 0.  1.
         11    1    4    4    0    0  0.51290425233E-01  0.21718501513E-01 -0.63695657919E-01  0.84615595415E-01  0.51100000000E-03 0. -1.
</event>
<event>
 8    1  0.2928569E+004  0.1043930E+01  0.7957747E-01            NaN
         13   -1    0    0    0    0  0.00000000000E+00  0.00000000000E+00  0.74505805969E-08  0.10566000000E+00  0.10566000000E+00 0. -1.
     999900   -1    0    0    0    0 -0.00000000000E+00 -0.00000000000E+00 -0.74505805969E-08  0.93827000000E+00  0.93827000000E+00 0.  1.
     999902    2    1    2    0    0  0.62285531398E-03  0.10988739781E-01  0.89146829026E-02  0.10297662462E+01  0.10296688350E+01 0.  0.
     999903    2    3    3    0    0 -0.64758392005E-01  0.37594296738E-01  0.11063058241E+00  0.14109944284E+00  0.45419671109E-01 0.  0.
         14    1    1    2    0    0 -0.62285531398E-03 -0.10988739781E-01 -0.89146829026E-02  0.14163753809E-01  0.00000000000E+00 0. -1.
     999901    1    3    3    0    0  0.65381247319E-01 -0.26605556958E-01 -0.10171589951E+00  0.88866680335E+00  0.88000000000E+00 0.  1.
        -11    1    4    4    0    0 -0.34041070406E-01 -0.47274765950E-02  0.54039332175E-01  0.64044157051E-01  0.51100000000E-03 0.  1.
         11    1    4    4    0    0 -0.30717321599E-01  0.42321773333E-01  0.56591250234E-01  0.77055285791E-01  0.51100000000E-03 0. -1.
</event>
<event>
 8    1  0.2928569E+004  0.1043930E+01  0.7957747E-01            NaN
         13   -1    0    0    0    0  0.00000000000E+00  0.00000000000E+00  0.74505805969E-08  0.10566000000E+00  0.10566000000E+00 0.  1.
     999900   -1    0    0    0    0 -0.00000000000E+00 -0.00000000000E+00 -0.74505805969E-08  0.93827000000E+00  0.93827000000E+00 0. -1.
     999902    2    1    2    0    0 -0.16491996883E-01  0.80573139535E-03  0.18779639028E-02  0.10273118800E+01  0.10271774612E+01 0.  0.
     999903    2    3    3    0    0 -0.78547469658E-01 -0.10527482011E+00 -0.88021444105E-03  0.13876724259E+00  0.44755782850E-01 0.  0.
         14    1    1    2    0    0  0.16491996883E-01 -0.80573139535E-03 -0.18779639028E-02  0.16618120011E-01  0.00000000000E+00 0. -1.
     999901    1    3    3    0    0  0.62055472775E-01  0.10608055151E+00  0.27581783438E-02  0.88854463740E+00  0.88000000000E+00 0.  1.
        -11    1    4    4    0    0 -0.46244831053E-01 -0.71733009172E-01 -0.21222563253E-01  0.87948094442E-01  0.51100000000E-03 0.  1.
         11    1    4    4    0    0 -0.32302638605E-01 -0.33541810939E-01  0.20342348812E-01  0.50819148144E-01  0.51100000000E-03 0. -1.
</event>
<event>
 8    1  0.2928569E+004  0.1043930E+01  0.7957747E-01            NaN
         13   -1    0    0    0    0  0.00000000000E+00  0.00000000000E+00  0.74505805969E-08  0.10566000000E+00  0.10566000000E+00 0. -1.
     999900   -1    0    0    0    0 -0.00000000000E+00 -0.00000000000E+00 -0.74505805969E-08  0.93827000000E+00  0.93827000000E+00 0. -1.
     999902    2    1    2    0    0 -0.57193444187E-02 -0.18177254859E-02  0.11368640708E-01  0.10310746113E+01  0.10309944680E+01 0.  0.
     999903    2    3    3    0    0  0.50448402136E-01 -0.85004171485E-01  0.90519104527E-01  0.14183921140E+00  0.46410162228E-01 0.  0.
         14    1    1    2    0    0  0.57193444187E-02  0.18177254859E-02 -0.11368640708E-01  0.12855388679E-01  0.00000000000E+00 0.  1.
     999901    1    3    3    0    0 -0.56167746555E-01  0.83186446000E-01 -0.79150463819E-01  0.88923539992E+00  0.88000000000E+00 0.  1.
        -11    1    4    4    0    0  0.52070236127E-01 -0.54681148191E-01  0.79202509077E-01  0.10942868007E+00  0.51100000000E-03 0. -1.
         11    1    4    4    0    0 -0.16218339904E-02 -0.30323023294E-01  0.11316595451E-01  0.32410531325E-01  0.51100000000E-03 0.  1.
</event>
<event>
 8    1  0.2928569E+004  0.1043930E+01  0.7957747E-01            NaN
         13   -1    0    0    0    0  0.00000000000E+00  0.00000000000E+00  0.74505805969E-08  0.10566000000E+00  0.10566000000E+00 0.  1.
     999900   -1    0    0    0    0 -0.00000000000E+00 -0.00000000000E+00 -0.74505805969E-08  0.93827000000E+00  0.93827000000E+00 0.  1.
     999902    2    1    2    0    0 -0.85946895070E-02  0.36140130828E-02  0.11054539945E-01  0.10294685813E+01  0.10293670032E+01 0.  0.
     999903    2    3    3    0    0 -0.59704493081E-02 -0.16740310816E-01 -0.12932045652E+00  0.13810651972E+00  0.45097073549E-01 0.  0.
         14    1    1    2    0    0  0.85946895070E-02 -0.36140130828E-02 -0.11054539945E-01  0.14461418730E-01  0.00000000000E+00 0.  1.
     999901    1    3    3    0    0 -0.26242401990E-02  0.20354323899E-01  0.14037499647E+00  0.89136206155E+00  0.88000000000E+00 0. -1.
        -11    1    4    4    0    0  0.17746340452E-01 -0.11602761463E-01 -0.36989639422E-01  0.42638611827E-01  0.51100000000E-03 0. -1.
         11    1    4    4    0    0 -0.23716789760E-01 -0.51375493530E-02 -0.92330817100E-01  0.95467907892E-01  0.51100000000E-03 0.  1.
</event>
<event>
 7    1  0.2928569E+004  0.1043930E+01  0.7957747E-01            NaN
         13   -1    0    0    0    0  0.00000000000E+00  0.00000000000E+00  0.74505805969E-08  0.10566000000E+00  0.10566000000E+00 0. -1.
     999900   -1    0    0    0    0 -0.00000000000E+00 -0.00000000000E+00 -0.74505805969E-08  0.93827000000E+00  0.93827000000E+00 0. -1.
     999902    2    1    2    0    0  0.38180860423E-02  0.15588772827E-01  0.31090339052E-02  0.10275821038E+01  0.10274520555E+01 0.  0.
         14    1    1    2    0    0 -0.38180860423E-02 -0.15588772827E-01 -0.31090339052E-02  0.16347896229E-01  0.00000000000E+00 0.  1.
     999901    1    3    3    0    0  0.46617683392E-01  0.12971168949E+00  0.12080795801E-01  0.89081102172E+00  0.88000000000E+00 0. -1.
        -11    1    3    3    0    0 -0.24071531226E-01 -0.76272293252E-01 -0.34844318592E-01  0.87242701659E-01  0.51100000000E-03 0.  1.
         11    1    3    3    0    0 -0.18728066123E-01 -0.37850623408E-01  0.25872556696E-01  0.49528380390E-01  0.51100000000E-03 0. -1.
</event>
<event>
 7    1  0.2928569E+004  0.1043930E+01  0.7957747E-01            NaN
         13   -1    0    0    0    0  0.00000000000E+00  0.00000000000E+00  0.74505805969E-08  0.10566000000E+00  0.10566000000E+00 0.  1.
     999900   -1    0    0    0    0 -0.00000000000E+00 -0.00000000000E+00 -0.74505805969E-08  0.93827000000E+00  0.93827000000E+00 0.  1.
     999902    2    1    2    0    0 -0.85844494047E-02 -0.96615229468E-02  0.68604532251E-02  0.10292977201E+01  0.10291937101E+01 0.  0.
         14    1    1    2    0    0  0.85844494047E-02  0.96615229468E-02 -0.68604532251E-02  0.14632279921E-01  0.00000000000E+00 0. -1.
     999901    1    3    3    0    0 -0.43653634047E-01 -0.12126629082E+00 -0.37946982003E-01  0.89019724022E+00  0.88000000000E+00 0. -1.
        -11    1    3    3    0    0  0.17561359053E-01  0.37325258215E-01  0.47275409718E-01  0.62743937696E-01  0.51100000000E-03 0.  1.
         11    1    3    3    0    0  0.17507825589E-01  0.74279509657E-01 -0.24679744904E-02  0.76356542161E-01  0.51100000000E-03 0. -1.
</event>
<event>
 8    1  0.2928569E+004  0.1043930E+01  0.7957747E-01            NaN
         13   -1    0    0    0    0  0.00000000000E+00  0.00000000000E+00  0.74505805969E-08  0.10566000000E+00  0.10566000000E+00 0. -1.
     999900   -1    0    0    0    0 -0.00000000000E+00 -0.00000000000E+00 -0.74505805969E-08  0.93827000000E+00  0.93827000000E+00 0.  1.
     999902    2    1    2    0    0 -0.56139970068E-02  0.76942678788E-02  0.98075721716E-02  0.10302585995E+01  0.10301678866E+01 0.  0.
     999903    2    3    3    0    0  0.14844062287E-01  0.73506516197E-01 -0.10886585096E+00  0.13962221711E+00  0.44933683322E-01 0.  0.
         14    1    1    2    0    0  0.56139970068E-02 -0.76942678788E-02 -0.98075721716E-02  0.13671400531E-01  0.00000000000E+00 0.  1.
     999901    1    3    3    0    0 -0.20458059294E-01 -0.65812248318E-01  0.11867342313E+00  0.89063638236E+00  0.88000000000E+00 0. -1.
        -11    1    4    4    0    0  0.24158075837E-01  0.25058803232E-01 -0.27065901726E-01  0.44095129037E-01  0.51100000000E-03 0. -1.
         11    1    4    4    0    0 -0.93140135500E-02  0.48447712966E-01 -0.81799949237E-01  0.95527088075E-01  0.51100000000E-03 0.  1.
</event>
<event>
 8    1  0.2928569E+004  0.1043930E+01  0.7957747E-01            NaN
         13   -1    0    0    0    0  0.00000000000E+00  0.00000000000E+00  0.74505805969E-08  0.10566000000E+00  0.10566000000E+00 0. -1.
     999900   -1    0    0    0    0 -0.00000000000E+00 -0.00000000000E+00 -0.74505805969E-08  0.93827000000E+00  0.93827000000E+00 0. -1.
     999902    2    1    2    0    0  0.18322870051E-01 -0.94483061984E-02 -0.13225713076E-01  0.10194367858E+01  0.10191425036E+01 0.  0.
     999903    2    3    3    0    0 -0.48523134033E-01  0.91983335150E-01  0.59616574295E-01  0.12811037813E+00  0.45196289360E-01 0.  0.
         14    1    1    2    0    0 -0.18322870051E-01  0.94483061984E-02  0.13225713076E-01  0.24493214230E-01  0.00000000000E+00 0. -1.
     999901    1    3    3    0    0  0.66846004084E-01 -0.10143164135E+00 -0.72842287371E-01  0.89132640764E+00  0.88000000000E+00 0.  1.
        -11    1    4    4    0    0 -0.13477200378E-01  0.80586520245E-02 -0.50634931717E-02  0.16506873919E-01  0.51100000000E-03 0. -1.
         11    1    4    4    0    0 -0.35045933655E-01  0.83924683126E-01  0.64680067466E-01  0.11160350421E+00  0.51100000000E-03 0.  1.
</event>
<event>
 8    1  0.2928569E+004  0.1043930E+01  0.7957747E-01            NaN
         13   -1    0    0    0    0  0.00000000000E+00  0.00000000000E+00  0.74505805969E-08  0.10566000000E+00  0.10566000000E+00 0. -1.
     999900   -1    0    0    0    0 -0.00000000000E+00 -0.00000000000E+00 -0.74505805969E-08  0.93827000000E+00  0.93827000000E+00 0. -1.
     999902    2    1    2    0    0  0.83685055618E-02 -0.74177992212E-02  0.81988598914E-02  0.10300636041E+01  0.10299702674E+01 0.  0.
     999903    2    3    3    0    0  0.12476102890E+00  0.17552894959E-01 -0.43139086642E-01  0.14056580211E+00  0.44992726904E-01 0.  0.
         14    1    1    2    0    0 -0.83685055618E-02  0.74177992212E-02 -0.81988598914E-02  0.13866395860E-01  0.00000000000E+00 0.  1.
     999901    1    3    3    0    0 -0.11639252334E+00 -0.24970694181E-01  0.51337946533E-01  0.88949780203E+00  0.88000000000E+00 0.  1.
        -11    1    4    4    0    0  0.11519410734E+00  0.20327651372E-01 -0.51250410824E-01  0.12770967664E+00  0.51100000000E-03 0. -1.
         11    1    4    4    0    0  0.95669215559E-02 -0.27747564123E-02  0.81113241826E-02  0.12856125474E-01  0.51100000000E-03 0.  1.
</event>
<event>
 8    1  0.2928569E+004  0.1043930E+01  0.7957747E-01            NaN
         13   -1    0    0    0    0  0.00000000000E+00  0.00000000000E+00  0.74505805969E-08  0.10566000000E+00  0.10566000000E+00 0.  1.
     999900   -1    0    0    0    0 -0.00000000000E+00 -0.00000000000E+00 -0.74505805969E-08  0.93827000000E+00  0.93827000000E+00 0. -1.
     999902    2    1    2    0    0  0.37918678870E-02  0.71362210637E-02 -0.11698610783E-01  0.10297116524E+01  0.10296134837E+01 0.  0.
     999903    2    3    3    0    0  0.77120631906E-01 -0.35933049917E-01  0.99812731092E-01  0.13860736612E+00  0.44840213109E-01 0.  0.
         14    1    1    2    0    0 -0.37918678870E-02 -0.71362210637E-02  0.11698610783E-01  0.14218347562E-01  0.00000000000E+00 0.  1.
     999901    1    3    3    0    0 -0.73328764019E-01  0.43069270981E-01 -0.11151134187E+00  0.89110428632E+00  0.88000000000E+00 0. -1.
        -11    1    4    4    0    0  0.46652650774E-01 -0.16679600426E-01  0.87431923472E-01  0.10049518027E+00  0.51100000000E-03 0.  1.
         11    1    4    4    0    0  0.30467981132E-01 -0.19253449491E-01  0.12380807619E-01  0.38112185845E-01  0.51100000000E-03 0. -1.
</event>
<event>
 8    1  0.2928569E+004  0.1043930E+01  0.7957747E-01            NaN
         13   -1    0    0    0    0  0.00000000000E+00  0.00000000000E+00  0.74505805969E-08  0.10566000000E+00  0.10566000000E+00 0. -1.
     999900   -1    0    0    0    0 -0.00000000000E+00 -0.00000000000E+00 -0.74505805969E-08  0.93827000000E+00  0.93827000000E+00 0. -1.
     999902    2    1    2    0    0  0.25159176309E-02 -0.16910173200E-01 -0.64391300275E-02  0.10256612782E+01  0.10254985673E+01 0.  0.
     999903    2    3    3    0    0  0.12755804121E+00  0.13603584857E-01 -0.11626014512E-01  0.13628311015E+00  0.44517530278E-01 0.  0.
         14    1    1    2    0    0 -0.25159176309E-02  0.16910173200E-01  0.64391300275E-02  0.18268721759E-01  0.00000000000E+00 0. -1.
     999901    1    3    3    0    0 -0.12504212358E+00 -0.30513758057E-01  0.51868844844E-02  0.88937816809E+00  0.88000000000E+00 0. -1.
        -11    1    4    4    0    0  0.77313088262E-01  0.29996848862E-01 -0.67215543717E-02  0.83201952937E-01  0.51100000000E-03 0. -1.
         11    1    4    4    0    0  0.50244952946E-01 -0.16393264006E-01 -0.49044601403E-02  0.53081157218E-01  0.51100000000E-03 0.  1.
</event>
<event>
 8    1  0.2928569E+004  0.1043930E+01  0.7957747E-01            NaN
         13   -1    0    0    0    0  0.00000000000E+00  0.00000000000E+00  0.74505805969E-08  0.10566000000E+00  0.10566000000E+00 0.  1.
     999900   -1    0    0    0    0 -0.00000000000E+00 -0.00000000000E+00 -0.74505805969E-08  0.93827000000E+00  0.93827000000E+00 0.  1.
     999902    2    1    2    0    0 -0.10737366127E-01  0.14859016955E-01  0.62793897494E-02  0.10245518641E+01  0.10243685909E+01 0.  0.
     999903    2    3    3    0    0 -0.66244844737E-01 -0.36956377614E-01  0.10340593654E+00  0.13595776023E+00  0.45139467827E-01 0.  0.
         14    1    1    2    0    0  0.10737366127E-01 -0.14859016955E-01 -0.62793897494E-02  0.19378135922E-01  0.00000000000E+00 0. -1.
     999901    1    3    3    0    0  0.55507478610E-01  0.51815394568E-01 -0.97126546789E-01  0.88859410384E+00  0.88000000000E+00 0.  1.
        -11    1    4    4    0    0 -0.70309473828E-01 -0.23391459357E-01  0.86974657812E-01  0.11426038116E+00  0.51100000000E-03 0. -1.
         11    1    4    4    0    0  0.40646290911E-02 -0.13564918257E-01  0.16431278726E-01  0.21697379071E-01  0.51100000000E-03 0.  1.
</event>
<event>
 8    1  0.2928569E+004  0.1043930E+01  0.7957747E-01            NaN
         13   -1    0    0    0    0  0.00000000000E+00  0.00000000000E+00  0.74505805969E-08  0.10566000000E+00  0.10566000000E+00 0. -1.
     999900   -1    0    0    0    0 -0.00000000000E+00 -0.00000000000E+00 -0.74505805969E-08  0.93827000000E+00  0.93827000000E+00 0.  1.
     999902    2    1    2    0    0 -0.55361706134E-02  0.16382740449E-02 -0.12864996243E-01  0.10298288917E+01  0.10297323463E+01 0.  0.
     999903    2    3    3    0    0 -0.84010735702E-01  0.55902736762E-01 -0.88068956662E-01  0.14148294279E+00  0.45589058809E-01 0.  0.
         14    1    1    2    0    0  0.55361706134E-02 -0.16382740449E-02  0.12864996243E-01  0.14101108298E-01  0.00000000000E+00 0. -1.
     999901    1    3    3    0    0  0.78474565089E-01 -0.54264462717E-01  0.75203960419E-01  0.88834594891E+00  0.88000000000E+00 0. -1.
        -11    1    4    4    0    0 -0.42583874304E-01  0.10013728331E-01 -0.58233903361E-01  0.72836184191E-01  0.51100000000E-03 0. -1.
         11    1    4    4    0    0 -0.41426861398E-01  0.45889008431E-01 -0.29835053301E-01  0.68646758602E-01  0.51100000000E-03 0.  1.
</event>
<event>
 8    1  0.2928569E+004  0.1043930E+01  0.7957747E-01            NaN
         13   -1    0    0    0    0  0.00000000000E+00  0.00000000000E+00  0.74505805969E-08  0.10566000000E+00  0.10566000000E+00 0. -1.
     999900   -1    0    0    0    0 -0.00000000000E+00 -0.00000000000E+00 -0.74505805969E-08  0.93827000000E+00  0.93827000000E+00 0.  1.
     999902    2    1    2    0    0  0.60177758308E-02  0.13407729205E-01  0.42582986318E-02  0.10286292178E+01  0.10285154125E+01 0.  0.
     999903    2    3    3    0    0  0.10983589218E+00 -0.59256549632E-01  0.41487477948E-01  0.13877287519E+00  0.44288126815E-01 0.  0.
         14    1    1    2    0    0 -0.60177758308E-02 -0.13407729205E-01 -0.42582986318E-02  0.15300782190E-01  0.00000000000E+00 0.  1.
     999901    1    3    3    0    0 -0.10381811635E+00  0.72664278837E-01 -0.37229179316E-01  0.88985634262E+00  0.88000000000E+00 0. -1.
        -11    1    4    4    0    0  0.43559242737E-01 -0.36271787516E-01  0.38565724784E-01  0.68561114683E-01  0.51100000000E-03 0.  1.
         11    1    4    4    0    0  0.66276649447E-01 -0.22984762116E-01  0.29217531645E-02  0.70211760511E-01  0.51100000000E-03 0. -1.
</event>
<event>
 8    1  0.2928569E+004  0.1043930E+01  0.7957747E-01            NaN
         13   -1    0    0    0    0  0.00000000000E+00  0.00000000000E+00  0.74505805969E-08  0.10566000000E+00  0.10566000000E+00 0. -1.
     999900   -1    0    0    0    0 -0.00000000000E+00 -0.00000000000E+00 -0.74505805969E-08  0.93827000000E+00  0.93827000000E+00 0. -1.
     999902    2    1    2    0    0  0.79037798217E-02  0.10359386940E-01  0.45392642061E-02  0.10301317554E+01  0.10300393400E+01 0.  0.
     999903    2    3    3    0    0  0.49324868364E-01  0.10820056247E+00  0.60589388592E-01  0.14197061092E+00  0.48417723982E-01 0.  0.
         14    1    1    2    0    0 -0.79037798217E-02 -0.10359386940E-01 -0.45392642061E-02  0.13798244554E-01  0.00000000000E+00 0. -1.
     999901    1    3    3    0    0 -0.41421088543E-01 -0.97841175534E-01 -0.56050124386E-01  0.88816114453E+00  0.88000000000E+00 0.  1.
        -11    1    4    4    0    0 -0.63649474141E-02  0.38803331470E-01  0.20984820298E-01  0.44573926153E-01  0.51100000000E-03 0. -1.
         11    1    4    4    0    0  0.55689815778E-01  0.69397231004E-01  0.39604568294E-01  0.97396684765E-01  0.51100000000E-03 0.  1.
</event>
<event>
 8    1  0.2928569E+004  0.1043930E+01  0.7957747E-01            NaN
         13   -1    0    0    0    0  0.00000000000E+00  0.00000000000E+00  0.74505805969E-08  0.10566000000E+00  0.10566000000E+00 0.  1.
     999900   -1    0    0    0    0 -0.00000000000E+00 -0.00000000000E+00 -0.74505805969E-08  0.93827000000E+00  0.93827000000E+00 0. -1.
     999902    2    1    2    0    0 -0.48658484604E-02  0.29821796166E-02 -0.12872203211E-01  0.10298493931E+01  0.10297531301E+01 0.  0.
     999903    2    3    3    0    0 -0.74322523101E-01  0.66859987855E-02 -0.11196921816E+00  0.14155993218E+00  0.43972361351E-01 0.  0.
         14    1    1    2    0    0  0.48658484604E-02 -0.29821796166E-02  0.12872203211E-01  0.14080606948E-01  0.00000000000E+00 0.  1.
     999901    1    3    3    0    0  0.69456674641E-01 -0.37038191688E-02  0.99097014950E-01  0.88828946087E+00  0.88000000000E+00 0.  1.
        -11    1    4    4    0    0 -0.21963463016E-01  0.22699690743E-01 -0.46429914329E-01  0.56157526059E-01  0.51100000000E-03 0. -1.
         11    1    4    4    0    0 -0.52359060085E-01 -0.16013691957E-01 -0.65539303832E-01  0.85402406119E-01  0.51100000000E-03 0.  1.
</event>
<event>
 8    1  0.2928569E+004  0.1043930E+01  0.7957747E-01            NaN
         13   -1    0    0    0    0  0.00000000000E+00  0.00000000000E+00  0.74505805969E-08  0.10566000000E+00  0.10566000000E+00 0.  1.
     999900   -1    0    0    0    0 -0.00000000000E+00 -0.00000000000E+00 -0.74505805969E-08  0.93827000000E+00  0.93827000000E+00 0.  1.
     999902    2    1    2    0    0  0.99380031562E-02  0.95951417730E-02 -0.23669159782E-02  0.10299145463E+01  0.10298191781E+01 0.  0.
     999903    2    3    3    0    0  0.16764392291E-01 -0.94219495482E-01  0.90417462626E-01  0.13894147180E+00  0.44396586130E-01 0.  0.
         14    1    1    2    0    0 -0.99380031562E-02 -0.95951417730E-02  0.23669159782E-02  0.14015453743E-01  0.00000000000E+00 0.  1.
     999901    1    3    3    0    0 -0.68263891350E-02  0.10381463725E+00 -0.92784378605E-01  0.89097307446E+00  0.88000000000E+00 0.  1.
        -11    1    4    4    0    0  0.24625201441E-01 -0.82561800094E-01  0.58728782547E-01  0.10426975785E+00  0.51100000000E-03 0.  1.
         11    1    4    4    0    0 -0.78608091494E-02 -0.11657695388E-01  0.31688680080E-01  0.34671713953E-01  0.51100000000E-03 0. -1.
</event>
<event>
 8    1  0.2928569E+004  0.1043930E+01  0.7957747E-01            NaN
         13   -1    0    0    0    0  0.00000000000E+00  0.00000000000E+00  0.74505805969E-08  0.10566000000E+00  0.10566000000E+00 0. -1.
     999900   -1    0    0    0    0 -0.00000000000E+00 -0.00000000000E+00 -0.74505805969E-08  0.93827000000E+00  0.93827000000E+00 0.  1.
     999902    2    1    2    0    0  0.59063758023E-02  0.49793897187E-02 -0.11723966393E-01  0.10298896658E+01  0.10297939564E+01 0.  0.
     999903    2    3    3    0    0 -0.11325938521E+00 -0.32916576932E-01 -0.59692781112E-01  0.13975619822E+00  0.45358322798E-01 0.  0.
         14    1    1    2    0    0 -0.59063758023E-02 -0.49793897187E-02  0.11723966393E-01  0.14040334223E-01  0.00000000000E+00 0. -1.
     999901    1    3    3    0    0  0.11916576102E+00  0.37895966651E-01  0.47968814719E-01  0.89013346756E+00  0.88000000000E+00 0.  1.
        -11    1    4    4    0    0 -0.71281434608E-01  0.20485276862E-02 -0.39410033855E-01  0.81477918941E-01  0.51100000000E-03 0.  1.
         11    1    4    4    0    0 -0.41977950605E-01 -0.34965104618E-01 -0.20282747257E-01  0.58278279275E-01  0.51100000000E-03 0. -1.
</event>
<event>
 8    1  0.2928569E+004  0.1043930E+01  0.7957747E-01            NaN
         13   -1    0    0    0    0  0.00000000000E+00  0.00000000000E+00  0.74505805969E-08  0.10566000000E+00  0.10566000000E+00 0.  1.
     999900   -1    0    0    0    0 -0.00000000000E+00 -0.00000000000E+00 -0.74505805969E-08  0.93827000000E+00  0.93827000000E+00 0.  1.
     999902    2    1    2    0    0  0.46007495552E-02  0.12996419849E-02 -0.15949033229E-01  0.10272798460E+01  0.10271449043E+01 0.  0.
     999903    2    3    3    0    0  0.69473195876E-01  0.81668946982E-01  0.72505905331E-01  0.13683504954E+00  0.44388992184E-01 0.  0.
         14    1    1    2    0    0 -0.46007495552E-02 -0.12996419849E-02  0.15949033229E-01  0.16650153954E-01  0.00000000000E+00 0.  1.
     999901    1    3    3    0    0 -0.64872446321E-01 -0.80369304997E-01 -0.88454938560E-01  0.89044479651E+00  0.88000000000E+00 0.  1.
        -11    1    4    4    0    0  0.53787234620E-01  0.40583255657E-01  0.62113170227E-01  0.91642644464E-01  0.51100000000E-03 0.  1.
         11    1    4    4    0    0  0.15685961256E-01  0.41085691325E-01  0.10392735104E-01  0.45192405071E-01  0.51100000000E-03 0. -1.
</event>
<event>
 8    1  0.2928569E+004  0.1043930E+01  0.7957747E-01            NaN
         13   -1    0    0    0    0  0.00000000000E+00  0.00000000000E+00  0.74505805969E-08  0.10566000000E+00  0.10566000000E+00 0. -1.
     999900   -1    0    0    0    0 -0.00000000000E+00 -0.00000000000E+00 -0.74505805969E-08  0.93827000000E+00  0.93827000000E+00 0. -1.
     999902    2    1    2    0    0  0.13780495547E-01  0.16299488489E-02  0.12394657960E-02  0.10299981995E+01  0.10299039741E+01 0.  0.
     999903    2    3    3    0    0  0.12913365954E-01 -0.10865497571E+00 -0.71047229415E-01  0.14017300157E+00  0.51265025064E-01 0.  0.
         14    1    1    2    0    0 -0.13780495547E-01 -0.16299488489E-02 -0.12394657960E-02  0.13931800538E-01  0.00000000000E+00 0. -1.
     999901    1    3    3    0    0  0.86712959344E-03  0.11028492456E+00  0.72286695211E-01  0.88982519789E+00  0.88000000000E+00 0.  1.
        -11    1    4    4    0    0 -0.17641369770E-01 -0.36503470541E-01 -0.36439693512E-01  0.54514527176E-01  0.51100000000E-03 0.  1.
         11    1    4    4    0    0  0.30554735724E-01 -0.72151505169E-01 -0.34607535903E-01  0.85658474395E-01  0.51100000000E-03 0. -1.
</event>
<event>
 8    1  0.2928569E+004  0.1043930E+01  0.7957747E-01            NaN
         13   -1    0    0    0    0  0.00000000000E+00  0.00000000000E+00  0.74505805969E-08  0.10566000000E+00  0.10566000000E+00 0.  1.
     999900   -1    0    0    0    0 -0.00000000000E+00 -0.00000000000E+00 -0.74505805969E-08  0.93827000000E+00  0.93827000000E+00 0.  1.
     999902    2    1    2    0    0  0.51427709502E-02 -0.90324546659E-03  0.13023868231E-01  0.10298984253E+01  0.10298028361E+01 0.  0.
     999903    2    3    3    0    0 -0.92218529705E-02 -0.34599168379E-02 -0.13030387773E+00  0.13818338013E+00  0.44928080242E-01 0.  0.
         14    1    1    2    0    0 -0.51427709502E-02  0.90324546659E-03 -0.13023868231E-01  0.14031574720E-01  0.00000000000E+00 0. -1.
     999901    1    3    3    0    0  0.14364623921E-01  0.25566713713E-02  0.14332774596E+00  0.89171504515E+00  0.88000000000E+00 0. -1.
        -11    1    4    4    0    0 -0.21867981871E-01  0.10917487280E-02 -0.11780127032E+00  0.11981986879E+00  0.51100000000E-03 0.  1.
         11    1    4    4    0    0  0.12646128900E-01 -0.45516655659E-02 -0.12502607416E-01  0.18363511342E-01  0.51100000000E-03 0. -1.
</event>
<event>
 8    1  0.2928569E+004  0.1043930E+01  0.7957747E-01            NaN
         13   -1    0    0    0    0  0.00000000000E+00  0.00000000000E+00  0.74505805969E-08  0.10566000000E+00  0.10566000000E+00 0. -1.
     999900   -1    0    0    0    0 -0.00000000000E+00 -0.00000000000E+00 -0.74505805969E-08  0.93827000000E+00  0.93827000000E+00 0. -1.
     999902    2    1    2    0    0 -0.11967470907E-01 -0.25500662495E-04  0.63725086814E-02  0.10303716123E+01  0.10302824028E+01 0.  0.
     999903    2    3    3    0    0 -0.10717931923E+00  0.53959112427E-01  0.60848008833E-01  0.14191946692E+00  0.45162624241E-01 0.  0.
         14    1    1    2    0    0  0.11967470907E-01  0.25500662495E-04 -0.63725086814E-02  0.13558387702E-01  0.00000000000E+00 0.  1.
     999901    1    3    3    0    0  0.95211848318E-01 -0.53984613090E-01 -0.54475500151E-01  0.88845214538E+00  0.88000000000E+00 0. -1.
        -11    1    4    4    0    0 -0.36622717309E-01  0.17111326423E-02  0.34268703043E-01  0.50187214779E-01  0.51100000000E-03 0.  1.
         11    1    4    4    0    0 -0.70556601916E-01  0.52247979785E-01  0.26579305790E-01  0.91732252141E-01  0.51100000000E-03 0. -1.
</event>
<event>
 8    1  0.2928569E+004  0.1043930E+01  0.7957747E-01            NaN
         13   -1    0    0    0    0  0.00000000000E+00  0.00000000000E+00  0.74505805969E-08  0.10566000000E+00  0.10566000000E+00 0. -1.
     999900   -1    0    0    0    0 -0.00000000000E+00 -0.00000000000E+00 -0.74505805969E-08  0.93827000000E+00  0.93827000000E+00 0.  1.
     999902    2    1    2    0    0 -0.15122136479E-01 -0.20194066597E-02  0.87921240740E-02  0.10263215230E+01  0.10261704586E+01 0.  0.
     999903    2    3    3    0    0 -0.31955666531E-01 -0.12534971718E+00 -0.27463551966E-02  0.13748696604E+00  0.46490936130E-01 0.  0.
         14    1    1    2    0    0  0.15122136479E-01  0.20194066597E-02 -0.87921240740E-02  0.17608476955E-01  0.00000000000E+00 0.  1.
     999901    1    3    3    0    0  0.16833530052E-01  0.12333031052E+00  0.11538479271E-01  0.88883455701E+00  0.88000000000E+00 0. -1.
        -11    1    4    4    0    0 -0.14383534717E-01 -0.39867158452E-01  0.20629190223E-01  0.47139166351E-01  0.51100000000E-03 0.  1.
         11    1    4    4    0    0 -0.17572131814E-01 -0.85482558730E-01 -0.23375545420E-01  0.90347799686E-01  0.51100000000E-03 0. -1.
</event>
<event>
 8    1  0.2928569E+004  0.1043930E+01  0.7957747E-01            NaN
         13   -1    0    0    0    0  0.00000000000E+00  0.00000000000E+00  0.74505805969E-08  0.10566000000E+00  0.10566000000E+00 0.  1.
     999900   -1    0    0    0    0 -0.00000000000E+00 -0.00000000000E+00 -0.74505805969E-08  0.93827000000E+00  0.93827000000E+00 0. -1.
     999902    2    1    2    0    0  0.78844795833E-02  0.83488116005E-02  0.12840817948E-01  0.10267034426E+01  0.10265589144E+01 0.  0.
     999903    2    3    3    0    0 -0.76383359285E-01  0.57755356800E-01 -0.85237636555E-01  0.13588277683E+00  0.45039710676E-01 0.  0.
         14    1    1    2    0    0 -0.78844795833E-02 -0.83488116005E-02 -0.12840817948E-01  0.17226557375E-01  0.00000000000E+00 0. -1.
     999901    1    3    3    0    0  0.84267838868E-01 -0.49406545200E-01  0.98078454502E-01  0.89082066580E+00  0.88000000000E+00 0.  1.
        -11    1    4    4    0    0 -0.41881429166E-01  0.57687975951E-01 -0.58903050853E-01  0.92475873605E-01  0.51100000000E-03 0. -1.
         11    1    4    4    0    0 -0.34501930119E-01  0.67380848786E-04 -0.26334585702E-01  0.43406903221E-01  0.51100000000E-03 0.  1.
</event>
<event>
 8    1  0.2928569E+004  0.1043930E+01  0.7957747E-01            NaN
         13   -1    0    0    0    0  0.00000000000E+00  0.00000000000E+00  0.74505805969E-08  0.10566000000E+00  0.10566000000E+00 0. -1.
     999900   -1    0    0    0    0 -0.00000000000E+00 -0.00000000000E+00 -0.74505805969E-08  0.93827000000E+00  0.93827000000E+00 0.  1.
     999902    2    1    2    0    0  0.98682045892E-02  0.29451838561E-02  0.99367497071E-02  0.10296193549E+01  0.10295198985E+01 0.  0.
     999903    2    3    3    0    0  0.18981580058E-01  0.13103392272E+00 -0.85575022275E-02  0.14010723240E+00  0.45017956867E-01 0.  0.
         14    1    1    2    0    0 -0.98682045892E-02 -0.29451838561E-02 -0.99367497071E-02  0.14310645146E-01  0.00000000000E+00 0. -1.
     999901    1    3    3    0    0 -0.91133754690E-02 -0.12808873887E+00  0.18494251935E-01  0.88951212245E+00  0.88000000000E+00 0. -1.
        -11    1    4    4    0    0  0.16244036430E-01  0.49263889284E-01 -0.23477063843E-01  0.56940610768E-01  0.51100000000E-03 0. -1.
         11    1    4    4    0    0  0.27375436277E-02  0.81770033440E-01  0.14919561616E-01  0.83166621632E-01  0.51100000000E-03 0.  1.
</event>
<event>
 8    1  0.2928569E+004  0.1043930E+01  0.7957747E-01            NaN
         13   -1    0    0    0    0  0.00000000000E+00  0.00000000000E+00  0.74505805969E-08  0.10566000000E+00  0.10566000000E+00 0.  1.
     999900   -1    0    0    0    0 -0.00000000000E+00 -0.00000000000E+00 -0.74505805969E-08  0.93827000000E+00  0.93827000000E+00 0. -1.
     999902    2    1    2    0    0 -0.78801296178E-02  0.10153589437E-01 -0.15550585995E-02  0.10309835708E+01  0.10309022811E+01 0.  0.
     999903    2    3    3    0    0 -0.11628701132E+00 -0.65767176365E-01 -0.56403122682E-02  0.14107756231E+00  0.44978605756E-01 0.  0.
         14    1    1    2    0    0  0.78801296178E-02 -0.10153589437E-01  0.15550585995E-02  0.12946429179E-01  0.00000000000E+00 0. -1.
     999901    1    3    3    0    0  0.10840688171E+00  0.75920765802E-01  0.40852536687E-02  0.88990600851E+00  0.88000000000E+00 0. -1.
        -11    1    4    4    0    0 -0.49301582765E-01 -0.18475488648E-01 -0.22676316876E-01  0.57327708937E-01  0.51100000000E-03 0.  1.
         11    1    4    4    0    0 -0.66985428560E-01 -0.47291687717E-01  0.17036004607E-01  0.83749853376E-01  0.51100000000E-03 0. -1.
</event>
<event>
 8    1  0.2928569E+004  0.1043930E+01  0.7957747E-01            NaN
         13   -1    0    0    0    0  0.00000000000E+00  0.00000000000E+00  0.74505805969E-08  0.10566000000E+00  0.10566000000E+00 0. -1.
     999900   -1    0    0    0    0 -0.00000000000E+00 -0.00000000000E+00 -0.74505805969E-08  0.93827000000E+00  0.93827000000E+00 0.  1.
     999902    2    1    2    0    0  0.77871006353E-02 -0.12889480705E-01  0.10678084885E-01  0.10254692539E+01  0.10253030730E+01 0.  0.
     999903    2    3    3    0    0 -0.90362712588E-02  0.96452299237E-01  0.83283122477E-01  0.13557592201E+00  0.45387794767E-01 0.  0.
         14    1    1    2    0    0 -0.77871006353E-02  0.12889480705E-01 -0.10678084885E-01  0.18460746084E-01  0.00000000000E+00 0.  1.
     999901    1    3    3    0    0  0.16823371894E-01 -0.10934177994E+00 -0.72605037591E-01  0.88989333190E+00  0.88000000000E+00 0.  1.
        -11    1    4    4    0    0  0.17303314374E-01  0.46970050129E-01  0.47906527686E-01  0.69288432031E-01  0.51100000000E-03 0. -1.
         11    1    4    4    0    0 -0.26339585632E-01  0.49482249108E-01  0.35376594790E-01  0.66287489981E-01  0.51100000000E-03 0.  1.
</event>
<event>
 8    1  0.2928569E+004  0.1043930E+01  0.7957747E-01            NaN
         13   -1    0    0    0    0  0.00000000000E+00  0.00000000000E+00  0.74505805969E-08  0.10566000000E+00  0.10566000000E+00 0.  1.
     999900   -1    0    0    0    0 -0.00000000000E+00 -0.00000000000E+00 -0.74505805969E-08  0.93827000000E+00  0.93827000000E+00 0.  1.
     999902    2    1    2    0    0  0.10532705628E-01  0.10613468049E-02  0.88144448379E-02  0.10301547039E+01  0.10300625977E+01 0.  0.
     999903    2    3    3    0    0  0.67936981995E-01 -0.25564990840E-01  0.11376040786E+00  0.14166279738E+00  0.43103543756E-01 0.  0.
         14    1    1    2    0    0 -0.10532705628E-01 -0.10613468049E-02 -0.88144448379E-02  0.13775296102E-01  0.00000000000E+00 0. -1.
     999901    1    3    3    0    0 -0.57404276367E-01  0.26626337645E-01 -0.10494596302E+00  0.88849190652E+00  0.88000000000E+00 0.  1.
        -11    1    4    4    0    0  0.29352597581E-01 -0.33863919863E-01  0.56502577845E-01  0.72118946729E-01  0.51100000000E-03 0. -1.
         11    1    4    4    0    0  0.38584384414E-01  0.82989290230E-02  0.57257830017E-01  0.69543850647E-01  0.51100000000E-03 0.  1.
</event>
<event>
 8    1  0.2928569E+004  0.1043930E+01  0.7957747E-01            NaN
         13   -1    0    0    0    0  0.00000000000E+00  0.00000000000E+00  0.74505805969E-08  0.10566000000E+00  0.10566000000E+00 0. -1.
     999900   -1    0    0    0    0 -0.00000000000E+00 -0.00000000000E+00 -0.74505805969E-08  0.93827000000E+00  0.93827000000E+00 0. -1.
     999902    2    1    2    0    0  0.82574586937E-02  0.10834014735E-01  0.30592734988E-02  0.10299686013E+01  0.10298739724E+01 0.  0.
     999903    2    3    3    0    0 -0.45149987408E-01 -0.45805697240E-01  0.11515976249E+00  0.13944800530E+00  0.45247011191E-01 0.  0.
         14    1    1    2    0    0 -0.82574586937E-02 -0.10834014735E-01 -0.30592734988E-02  0.13961398701E-01  0.00000000000E+00 0. -1.
     999901    1    3    3    0    0  0.53407446101E-01  0.56639711975E-01 -0.11210048899E+00  0.89052059600E+00  0.88000000000E+00 0. -1.
        -11    1    4    4    0    0 -0.21061492471E-01  0.48440808737E-02  0.42260627781E-01  0.47468656670E-01  0.51100000000E-03 0.  1.
         11    1    4    4    0    0 -0.24088494937E-01 -0.50649778114E-01  0.72899134710E-01  0.91979348627E-01  0.51100000000E-03 0. -1.
</event>
<event>
 8    1  0.2928569E+004  0.1043930E+01  0.7957747E-01            NaN
         13   -1    0    0    0    0  0.00000000000E+00  0.00000000000E+00  0.74505805969E-08  0.10566000000E+00  0.10566000000E+00 0.  1.
     999900   -1    0    0    0    0 -0.00000000000E+00 -0.00000000000E+00 -0.74505805969E-08  0.93827000000E+00  0.93827000000E+00 0.  1.
     999902    2    1    2    0    0  0.85818589406E-02  0.28450090510E-02 -0.10254389945E-01  0.10302590493E+01  0.10301683425E+01 0.  0.
     999903    2    3    3    0    0 -0.73130720020E-01 -0.37964477809E-02 -0.11017063484E+00  0.14081860134E+00  0.48267944591E-01 0.  0.
         14    1    1    2    0    0 -0.85818589406E-02 -0.28450090510E-02  0.10254389945E-01  0.13670950681E-01  0.00000000000E+00 0. -1.
     999901    1    3    3    0    0  0.81712578961E-01  0.66414568319E-02  0.99916244897E-01  0.88944044798E+00  0.88000000000E+00 0. -1.
        -11    1    4    4    0    0 -0.11367135813E-01 -0.17849988352E-01 -0.46066592819E-01  0.50697395946E-01  0.51100000000E-03 0.  1.
         11    1    4    4    0    0 -0.61763584207E-01  0.14053540571E-01 -0.64104042023E-01  0.90121205393E-01  0.51100000000E-03 0. -1.
</event>
<event>
 8    1  0.2928569E+004  0.1043930E+01  0.7957747E-01            NaN
         13   -1    0    0    0    0  0.00000000000E+00  0.00000000000E+00  0.74505805969E-08  0.10566000000E+00  0.10566000000E+00 0.  1.
     999900   -1    0    0    0    0 -0.00000000000E+00 -0.00000000000E+00 -0.74505805969E-08  0.93827000000E+00  0.93827000000E+00 0. -1.
     999902    2    1    2    0    0 -0.79207600279E-02 -0.11861202196E-01  0.60321176213E-02  0.10284441032E+01  0.10283275064E+01 0.  0.
     999903    2    3    3    0    0  0.96177154533E-01 -0.56761362881E-01 -0.63536698174E-01  0.13844847378E+00  0.51567145610E-01 0.  0.
         14    1    1    2    0    0  0.79207600279E-02  0.11861202196E-01 -0.60321176213E-02  0.15485896808E-01  0.00000000000E+00 0. -1.
     999901    1    3    3    0    0 -0.10409791456E+00  0.44900160685E-01  0.69568815796E-01  0.88999562941E+00  0.88000000000E+00 0.  1.
        -11    1    4    4    0    0  0.28265206114E-01 -0.60176411388E-02 -0.41989504770E-01  0.50975616851E-01  0.51100000000E-03 0. -1.
         11    1    4    4    0    0  0.67911948419E-01 -0.50743721742E-01 -0.21547193404E-01  0.87472856927E-01  0.51100000000E-03 0.  1.
</event>
<event>
 8    1  0.2928569E+004  0.1043930E+01  0.7957747E-01            NaN
         13   -1    0    0    0    0  0.00000000000E+00  0.00000000000E+00  0.74505805969E-08  0.10566000000E+00  0.10566000000E+00 0.  1.
     999900   -1    0    0    0    0 -0.00000000000E+00 -0.00000000000E+00 -0.74505805969E-08  0.93827000000E+00  0.93827000000E+00 0. -1.
     999902    2    1    2    0    0  0.13755396115E-02  0.12989756083E-01 -0.52996404137E-02  0.10298334734E+01  0.10297369912E+01 0.  0.
     999903    2    3    3    0    0  0.22364437765E-02 -0.88259328137E-01 -0.98140591781E-01  0.13917553661E+00  0.44085638821E-01 0.  0.
         14    1    1    2    0    0 -0.13755396115E-02 -0.12989756083E-01  0.52996404137E-02  0.14096526552E-01  0.00000000000E+00 0.  1.
     999901    1    3    3    0    0 -0.86090416498E-03  0.10124908422E+00  0.92840951367E-01  0.89065793684E+00  0.88000000000E+00 0.  1.
        -11    1    4    4    0    0  0.17043452610E-01 -0.74366232784E-01 -0.64631515487E-01  0.99991548496E-01  0.51100000000E-03 0.  1.
         11    1    4    4    0    0 -0.14807008834E-01 -0.13893095353E-01 -0.33509076294E-01  0.39183988109E-01  0.51100000000E-03 0. -1.
</event>
<event>
 8    1  0.2928569E+004  0.1043930E+01  0.7957747E-01            NaN
         13   -1    0    0    0    0  0.00000000000E+00  0.00000000000E+00  0.74505805969E-08  0.10566000000E+00  0.10566000000E+00 0. -1.
     999900   -1    0    0    0    0 -0.00000000000E+00 -0.00000000000E+00 -0.74505805969E-08  0.93827000000E+00  0.93827000000E+00 0. -1.
     999902    2    1    2    0    0  0.30561444105E-02  0.12506321352E-01 -0.61665412427E-02  0.10296550456E+01  0.10295560881E+01 0.  0.
     999903    2    3    3    0    0 -0.10062460146E+00  0.55547951289E-01  0.64586900498E-01  0.13970654793E+00  0.46212190040E-01 0.  0.
         14    1    1    2    0    0 -0.30561444105E-02 -0.12506321352E-01  0.61665412427E-02  0.14274954407E-01  0.00000000000E+00 0.  1.
     999901    1    3    3    0    0  0.10368074587E+00 -0.43041629937E-01 -0.70753441740E-01  0.88994849766E+00  0.88000000000E+00 0. -1.
        -11    1    4    4    0    0 -0.70877860873E-01  0.15076270240E-01  0.28551639527E-01  0.77887241105E-01  0.51100000000E-03 0.  1.
         11    1    4    4    0    0 -0.29746740584E-01  0.40471681049E-01  0.36035260970E-01  0.61819306827E-01  0.51100000000E-03 0. -1.
</event>
<event>
 8    1  0.2928569E+004  0.1043930E+01  0.7957747E-01            NaN
         13   -1    0    0    0    0  0.00000000000E+00  0.00000000000E+00  0.74505805969E-08  0.10566000000E+00  0.10566000000E+00 0. -1.
     999900   -1    0    0    0    0 -0.00000000000E+00 -0.00000000000E+00 -0.74505805969E-08  0.93827000000E+00  0.93827000000E+00 0.  1.
     999902    2    1    2    0    0 -0.16211493682E-02  0.13037864033E-01  0.60312877232E-02  0.10294734978E+01  0.10293719892E+01 0.  0.
     999903    2    3    3    0    0  0.20776696401E-02 -0.11670567418E+00  0.58785290266E-01  0.13838985878E+00  0.45513861231E-01 0.  0.
         14    1    1    2    0    0  0.16211493682E-02 -0.13037864033E-01 -0.60312877232E-02  0.14456502184E-01  0.00000000000E+00 0.  1.
     999901    1    3    3    0    0 -0.36988190083E-02  0.12974353822E+00 -0.52754002543E-01  0.89108363903E+00  0.88000000000E+00 0.  1.
        -11    1    4    4    0    0 -0.11837947954E-01 -0.18511516901E-01  0.25753041910E-01  0.33856957311E-01  0.51100000000E-03 0. -1.
         11    1    4    4    0    0  0.13915617594E-01 -0.98194157282E-01  0.33032248356E-01  0.10453290147E+00  0.51100000000E-03 0.  1.
</event>
<event>
 8    1  0.2928569E+004  0.1043930E+01  0.7957747E-01            NaN
         13   -1    0    0    0    0  0.00000000000E+00  0.00000000000E+00  0.74505805969E-08  0.10566000000E+00  0.10566000000E+00 0. -1.
     999900   -1    0    0    0    0 -0.00000000000E+00 -0.00000000000E+00 -0.74505805969E-08  0.93827000000E+00  0.93827000000E+00 0.  1.
     999902    2    1    2    0    0  0.11806496976E-01  0.18355014380E-03  0.68288696950E-02  0.10302895996E+01  0.10301993004E+01 0.  0.
     999903    2    3    3    0    0 -0.51382904038E-01  0.11597183383E+00  0.38130020988E-01  0.13990788983E+00  0.45062734774E-01 0.  0.
         14    1    1    2    0    0 -0.11806496976E-01 -0.18355014380E-03 -0.68288696950E-02  0.13640400391E-01  0.00000000000E+00 0.  1.
     999901    1    3    3    0    0  0.63189401014E-01 -0.11578828369E+00 -0.31301151293E-01  0.89038170978E+00  0.88000000000E+00 0.  1.
        -11    1    4    4    0    0  0.10333247951E-02  0.50282721073E-01  0.18625567842E-01  0.53633876394E-01  0.51100000000E-03 0.  1.
         11    1    4    4    0    0 -0.52416228833E-01  0.65689112762E-01  0.19504453146E-01  0.86274013434E-01  0.51100000000E-03 0. -1.
</event>
<event>
 8    1  0.2928569E+004  0.1043930E+01  0.7957747E-01            NaN
         13   -1    0    0    0    0  0.00000000000E+00  0.00000000000E+00  0.74505805969E-08  0.10566000000E+00  0.10566000000E+00 0.  1.
     999900   -1    0    0    0    0 -0.00000000000E+00 -0.00000000000E+00 -0.74505805969E-08  0.93827000000E+00  0.93827000000E+00 0.  1.
     999902    2    1    2    0    0 -0.34264014006E-03  0.20322112103E-01 -0.12999948489E-01  0.10198031622E+01  0.10195177219E+01 0.  0.
     999903    2    3    3    0    0 -0.35429233942E-01  0.10866745449E+00 -0.58160225832E-01  0.13353265086E+00  0.37209013605E-01 0.  0.
         14    1    1    2    0    0  0.34264014006E-03 -0.20322112103E-01  0.12999948489E-01  0.24126837822E-01  0.00000000000E+00 0. -1.
     999901    1    3    3    0    0  0.35086593802E-01 -0.88345342386E-01  0.45160277344E-01  0.88627051132E+00  0.88000000000E+00 0. -1.
        -11    1    4    4    0    0 -0.37884093878E-01  0.62562661539E-01 -0.43449259781E-01  0.85072853980E-01  0.51100000000E-03 0. -1.
         11    1    4    4    0    0  0.24548599363E-02  0.46104792950E-01 -0.14710966052E-01  0.48459796878E-01  0.51100000000E-03 0.  1.
</event>
<event>
 8    1  0.2928569E+004  0.1043930E+01  0.7957747E-01            NaN
         13   -1    0    0    0    0  0.00000000000E+00  0.00000000000E+00  0.74505805969E-08  0.10566000000E+00  0.10566000000E+00 0.  1.
     999900   -1    0    0    0    0 -0.00000000000E+00 -0.00000000000E+00 -0.74505805969E-08  0.93827000000E+00  0.93827000000E+00 0. -1.
     999902    2    1    2    0    0  0.12031976754E-01  0.14744497602E-03 -0.78556146339E-02  0.10295598613E+01  0.10294595704E+01 0.  0.
     999903    2    3    3    0    0  0.24204201222E-01  0.85266138681E-01  0.98011704760E-01  0.13905368818E+00  0.43283670880E-01 0.  0.
         14    1    1    2    0    0 -0.12031976754E-01 -0.14744497602E-03  0.78556146339E-02  0.14370138688E-01  0.00000000000E+00 0.  1.
     999901    1    3    3    0    0 -0.12172224468E-01 -0.85118693705E-01 -0.10586731939E+00  0.89050617313E+00  0.88000000000E+00 0. -1.
        -11    1    4    4    0    0  0.22301885034E-01  0.17930576556E-01  0.45006951016E-01  0.53336351698E-01  0.51100000000E-03 0.  1.
         11    1    4    4    0    0  0.19023161882E-02  0.67335562125E-01  0.53004753744E-01  0.85717336485E-01  0.51100000000E-03 0. -1.
</event>
<event>
 8    1  0.2928569E+004  0.1043930E+01  0.7957747E-01            NaN
         13   -1    0    0    0    0  0.00000000000E+00  0.00000000000E+00  0.74505805969E-08  0.10566000000E+00  0.10566000000E+00 0. -1.
     999900   -1    0    0    0    0 -0.00000000000E+00 -0.00000000000E+00 -0.74505805969E-08  0.93827000000E+00  0.93827000000E+00 0. -1.
     999902    2    1    2    0    0 -0.21107436375E-02  0.12602056246E-01  0.65201160390E-02  0.10295850018E+01  0.10294850640E+01 0.  0.
     999903    2    3    3    0    0  0.86870842342E-01 -0.21373238865E-01  0.97535128907E-01  0.13977840714E+00  0.44961574078E-01 0.  0.
         14    1    1    2    0    0  0.21107436375E-02 -0.12602056246E-01 -0.65201160390E-02  0.14344998204E-01  0.00000000000E+00 0. -1.
     999901    1    3    3    0    0 -0.88981585980E-01  0.33975295111E-01 -0.91015012868E-01  0.88980659465E+00  0.88000000000E+00 0. -1.
        -11    1    4    4    0    0  0.60028795602E-01 -0.33782707032E-01  0.55923602607E-01  0.88726760594E-01  0.51100000000E-03 0.  1.
         11    1    4    4    0    0  0.26842046740E-01  0.12409468167E-01  0.41611526299E-01  0.51051646548E-01  0.51100000000E-03 0. -1.
</event>
<event>
 8    1  0.2928569E+004  0.1043930E+01  0.7957747E-01            NaN
         13   -1    0    0    0    0  0.00000000000E+00  0.00000000000E+00  0.74505805969E-08  0.10566000000E+00  0.10566000000E+00 0. -1.
     999900   -1    0    0    0    0 -0.00000000000E+00 -0.00000000000E+00 -0.74505805969E-08  0.93827000000E+00  0.93827000000E+00 0. -1.
     999902    2    1    2    0    0 -0.82252902246E-02 -0.34890539763E-02  0.14821944360E-01  0.10266233847E+01  0.10264774986E+01 0.  0.
     999903    2    3    3    0    0  0.11326315945E-01 -0.56611059689E-01 -0.11340225286E+00  0.13553098912E+00  0.46642046954E-01 0.  0.
         14    1    1    2    0    0  0.82252902246E-02  0.34890539763E-02 -0.14821944360E-01  0.17306615254E-01  0.00000000000E+00 0.  1.
     999901    1    3    3    0    0 -0.19551606170E-01  0.53122005713E-01  0.12822419723E+00  0.89109239563E+00  0.88000000000E+00 0.  1.
        -11    1    4    4    0    0  0.18921527378E-01 -0.42737858205E-01 -0.43472523157E-01  0.63833142746E-01  0.51100000000E-03 0. -1.
         11    1    4    4    0    0 -0.75952114328E-02 -0.13873201484E-01 -0.69929729708E-01  0.71697846370E-01  0.51100000000E-03 0.  1.
</event>
<event>
 8    1  0.2928569E+004  0.1043930E+01  0.7957747E-01            NaN
         13   -1    0    0    0    0  0.00000000000E+00  0.00000000000E+00  0.74505805969E-08  0.10566000000E+00  0.10566000000E+00 0.  1.
     999900   -1    0    0    0    0 -0.00000000000E+00 -0.00000000000E+00 -0.74505805969E-08  0.93827000000E+00  0.93827000000E+00 0. -1.
     999902    2    1    2    0    0 -0.44622092611E-02  0.54892554586E-02 -0.11531030614E-01  0.10304019586E+01  0.10303131506E+01 0.  0.
     999903    2    3    3    0    0  0.50281670751E-01  0.44856999500E-01  0.11287816018E+00  0.13909709582E+00  0.45454660958E-01 0.  0.
         14    1    1    2    0    0  0.44622092611E-02 -0.54892554586E-02  0.11531030614E-01  0.13528041395E-01  0.00000000000E+00 0.  1.
     999901    1    3    3    0    0 -0.54743880012E-01 -0.39367744042E-01 -0.12440919079E+00  0.89130486278E+00  0.88000000000E+00 0. -1.
        -11    1    4    4    0    0  0.77161433556E-03 -0.89885112954E-03  0.39230862698E-01  0.39252070404E-01  0.51100000000E-03 0.  1.
         11    1    4    4    0    0  0.49510056415E-01  0.45755850630E-01  0.73647297481E-01  0.99845025416E-01  0.51100000000E-03 0. -1.
</event>
<event>
 8    1  0.2928569E+004  0.1043930E+01  0.7957747E-01            NaN
         13   -1    0    0    0    0  0.00000000000E+00  0.00000000000E+00  0.74505805969E-08  0.10566000000E+00  0.10566000000E+00 0. -1.
     999900   -1    0    0    0    0 -0.00000000000E+00 -0.00000000000E+00 -0.74505805969E-08  0.93827000000E+00  0.93827000000E+00 0. -1.
     999902    2    1    2    0    0  0.44191169088E-02 -0.85306988820E-02  0.98721209618E-02  0.10301546528E+01  0.10300625459E+01 0.  0.
     999903    2    3    3    0    0 -0.60777678941E-01 -0.73670382278E-01 -0.91437390921E-01  0.13956079604E+00  0.44667301789E-01 0.  0.
         14    1    1    2    0    0 -0.44191169088E-02  0.85306988820E-02 -0.98721209618E-02  0.13775347181E-01  0.00000000000E+00 0.  1.
     999901    1    3    3    0    0  0.65196795850E-01  0.65139683396E-01  0.10130951188E+00  0.89059385678E+00  0.88000000000E+00 0.  1.
        -11    1    4    4    0    0 -0.33735786205E-01 -0.31593284981E-01 -0.72693093058E-01  0.86143983110E-01  0.51100000000E-03 0. -1.
         11    1    4    4    0    0 -0.27041892737E-01 -0.42077097297E-01 -0.18744297864E-01  0.53416812926E-01  0.51100000000E-03 0.  1.
</event>
<event>
 8    1  0.2928569E+004  0.1043930E+01  0.7957747E-01            NaN
         13   -1    0    0    0    0  0.00000000000E+00  0.00000000000E+00  0.74505805969E-08  0.10566000000E+00  0.10566000000E+00 0.  1.
     999900   -1    0    0    0    0 -0.00000000000E+00 -0.00000000000E+00 -0.74505805969E-08  0.93827000000E+00  0.93827000000E+00 0.  1.
     999902    2    1    2    0    0 -0.52779397759E-02 -0.84799506130E-02  0.10391773457E-01  0.10295162855E+01  0.10294153811E+01 0.  0.
     999903    2    3    3    0    0 -0.62107203218E-01  0.11579921471E+00  0.46984203612E-02  0.13895057180E+00  0.44926867583E-01 0.  0.
         14    1    1    2    0    0  0.52779397759E-02  0.84799506130E-02 -0.10391773457E-01  0.14413714520E-01  0.00000000000E+00 0. -1.
     999901    1    3    3    0    0  0.56829263442E-01 -0.12427916532E+00  0.56933530958E-02  0.89056571368E+00  0.88000000000E+00 0.  1.
        -11    1    4    4    0    0 -0.41378893549E-01  0.81989878732E-01 -0.17509213587E-01  0.93495383454E-01  0.51100000000E-03 0.  1.
         11    1    4    4    0    0 -0.20728309669E-01  0.33809335975E-01  0.22207633948E-01  0.45455188344E-01  0.51100000000E-03 0. -1.
</event>
<event>
 8    1  0.2928569E+004  0.1043930E+01  0.7957747E-01            NaN
         13   -1    0    0    0    0  0.00000000000E+00  0.00000000000E+00  0.74505805969E-08  0.10566000000E+00  0.10566000000E+00 0.  1.
     999900   -1    0    0    0    0 -0.00000000000E+00 -0.00000000000E+00 -0.74505805969E-08  0.93827000000E+00  0.93827000000E+00 0. -1.
     999902    2    1    2    0    0 -0.10323779432E-01 -0.30271736059E-02  0.80313874784E-02  0.10305043757E+01  0.10304169161E+01 0.  0.
     999903    2    3    3    0    0  0.35740715783E-01 -0.77032310384E-01 -0.10080918096E+00  0.13952459633E+00  0.45752009871E-01 0.  0.
         14    1    1    2    0    0  0.10323779432E-01  0.30271736059E-02 -0.80313874784E-02  0.13425624255E-01  0.00000000000E+00 0. -1.
     999901    1    3    3    0    0 -0.46064495215E-01  0.74005136778E-01  0.10884056844E+00  0.89097977942E+00  0.88000000000E+00 0.  1.
        -11    1    4    4    0    0  0.31365717181E-01 -0.60078724628E-01 -0.45814375400E-01  0.81807575942E-01  0.51100000000E-03 0.  1.
         11    1    4    4    0    0  0.43749986020E-02 -0.16953585755E-01 -0.54994805561E-01  0.57717020387E-01  0.51100000000E-03 0. -1.
</event>
<event>
 8    1  0.2928569E+004  0.1043930E+01  0.7957747E-01            NaN
         13   -1    0    0    0    0  0.00000000000E+00  0.00000000000E+00  0.74505805969E-08  0.10566000000E+00  0.10566000000E+00 0. -1.
     999900   -1    0    0    0    0 -0.00000000000E+00 -0.00000000000E+00 -0.74505805969E-08  0.93827000000E+00  0.93827000000E+00 0. -1.
     999902    2    1    2    0    0  0.16293412203E-01  0.63123925463E-02  0.13136575686E-01  0.10220692772E+01  0.10218354643E+01 0.  0.
     999903    2    3    3    0    0  0.24866699067E-01  0.88504395807E-01  0.87913853254E-01  0.13504015259E+00  0.45338906239E-01 0.  0.
         14    1    1    2    0    0 -0.16293412203E-01 -0.63123925463E-02 -0.13136575686E-01  0.21860722807E-01  0.00000000000E+00 0.  1.
     999901    1    3    3    0    0 -0.85732868638E-02 -0.82192003261E-01 -0.74777277567E-01  0.88702912460E+00  0.88000000000E+00 0. -1.
        -11    1    4    4    0    0  0.11070900945E-01  0.29916774914E-01  0.45642555594E-02  0.32228431839E-01  0.51100000000E-03 0.  1.
         11    1    4    4    0    0  0.13795798122E-01  0.58587620893E-01  0.83349597694E-01  0.10281172075E+00  0.51100000000E-03 0. -1.
</event>
<event>
 8    1  0.2928569E+004  0.1043930E+01  0.7957747E-01            NaN
         13   -1    0    0    0    0  0.00000000000E+00  0.00000000000E+00  0.74505805969E-08  0.10566000000E+00  0.10566000000E+00 0.  1.
     999900   -1    0    0    0    0 -0.00000000000E+00 -0.00000000000E+00 -0.74505805969E-08  0.93827000000E+00  0.93827000000E+00 0.  1.
     999902    2    1    2    0    0  0.53643082505E-02 -0.30801068397E-02  0.12692418071E-01  0.10298104980E+01  0.10297136987E+01 0.  0.
     999903    2    3    3    0    0 -0.72564360130E-01 -0.10410693696E+00 -0.34539738025E-01  0.13935546018E+00  0.46077218816E-01 0.  0.
         14    1    1    2    0    0 -0.53643082505E-02  0.30801068397E-02 -0.12692418071E-01  0.14119502032E-01  0.00000000000E+00 0.  1.
     999901    1    3    3    0    0  0.77928668380E-01  0.10102683012E+00  0.47232156096E-01  0.89045503779E+00  0.88000000000E+00 0.  1.
        -11    1    4    4    0    0 -0.48316703187E-01 -0.71962631492E-01 -0.45121722871E-01  0.97720801951E-01  0.51100000000E-03 0.  1.
         11    1    4    4    0    0 -0.24247656943E-01 -0.32144305468E-01  0.10581984846E-01  0.41634658225E-01  0.51100000000E-03 0. -1.
</event>
<event>
 8    1  0.2928569E+004  0.1043930E+01  0.7957747E-01            NaN
         13   -1    0    0    0    0  0.00000000000E+00  0.00000000000E+00  0.74505805969E-08  0.10566000000E+00  0.10566000000E+00 0.  1.
     999900   -1    0    0    0    0 -0.00000000000E+00 -0.00000000000E+00 -0.74505805969E-08  0.93827000000E+00  0.93827000000E+00 0.  1.
     999902    2    1    2    0    0  0.62627570637E-03 -0.88959592055E-02  0.83898387684E-02  0.10316858297E+01  0.10316131695E+01 0.  0.
     999903    2    3    3    0    0 -0.61257902699E-01 -0.73378112954E-01  0.96270557513E-01  0.14280416131E+00  0.44588453002E-01 0.  0.
         14    1    1    2    0    0 -0.62627570637E-03  0.88959592055E-02 -0.83898387684E-02  0.12244170287E-01  0.00000000000E+00 0. -1.
     999901    1    3    3    0    0  0.61884178405E-01  0.64482153749E-01 -0.87880718744E-01  0.88888166840E+00  0.88000000000E+00 0.  1.
        -11    1    4    4    0    0 -0.83426032720E-03 -0.25833164358E-01  0.39586049543E-01  0.47279644779E-01  0.51100000000E-03 0. -1.
         11    1    4    4    0    0 -0.60423642372E-01 -0.47544948596E-01  0.56684507970E-01  0.95524516535E-01  0.51100000000E-03 0.  1.
</event>
<event>
 8    1  0.2928569E+004  0.1043930E+01  0.7957747E-01            NaN
         13   -1    0    0    0    0  0.00000000000E+00  0.00000000000E+00  0.74505805969E-08  0.10566000000E+00  0.10566000000E+00 0.  1.
     999900   -1    0    0    0    0 -0.00000000000E+00 -0.00000000000E+00 -0.74505805969E-08  0.93827000000E+00  0.93827000000E+00 0.  1.
     999902    2    1    2    0    0 -0.88673886527E-02  0.89322109397E-02 -0.55543850504E-02  0.10301725959E+01  0.10300807304E+01 0.  0.
     999903    2    3    3    0    0 -0.47722569078E-01 -0.87719273233E-01 -0.87868186432E-01  0.14021372252E+00  0.44350369790E-01 0.  0.
         14    1    1    2    0    0  0.88673886527E-02 -0.89322109397E-02  0.55543850504E-02  0.13757404082E-01  0.00000000000E+00 0.  1.
     999901    1    3    3    0    0  0.38855180425E-01  0.96651484173E-01  0.82313801382E-01  0.88995887340E+00  0.88000000000E+00 0. -1.
        -11    1    4    4    0    0  0.70818211916E-02 -0.22224682100E-01 -0.13402706616E-01  0.26906920141E-01  0.51100000000E-03 0. -1.
         11    1    4    4    0    0 -0.54804390270E-01 -0.65494591133E-01 -0.74465479816E-01  0.11330680238E+00  0.51100000000E-03 0.  1.
</event>
<event>
 8    1  0.2928569E+004  0.1043930E+01  0.7957747E-01            NaN
         13   -1    0    0    0    0  0.00000000000E+00  0.00000000000E+00  0.74505805969E-08  0.10566000000E+00  0.10566000000E+00 0. -1.
     999900   -1    0    0    0    0 -0.00000000000E+00 -0.00000000000E+00 -0.74505805969E-08  0.93827000000E+00  0.93827000000E+00 0. -1.
     999902    2    1    2    0    0 -0.44074719827E-02 -0.11606094320E-01  0.77228679216E-02  0.10293091271E+01  0.10292052804E+01 0.  0.
     999903    2    3    3    0    0 -0.59618837359E-01  0.72793877481E-01 -0.90602770303E-01  0.13810792580E+00  0.44850672420E-01 0.  0.
         14    1    1    2    0    0  0.44074719827E-02  0.11606094320E-01 -0.77228679216E-02  0.14620872873E-01  0.00000000000E+00 0.  1.
     999901    1    3    3    0    0  0.55211365376E-01 -0.84399971801E-01  0.98325638225E-01  0.89120120132E+00  0.88000000000E+00 0.  1.
        -11    1    4    4    0    0 -0.51033165210E-01  0.27975253092E-01 -0.44753027689E-01  0.73417255092E-01  0.51100000000E-03 0. -1.
         11    1    4    4    0    0 -0.85856721488E-02  0.44818624389E-01 -0.45849742614E-01  0.64690670712E-01  0.51100000000E-03 0.  1.
</event>
<event>
 8    1  0.2928569E+004  0.1043930E+01  0.7957747E-01            NaN
         13   -1    0    0    0    0  0.00000000000E+00  0.00000000000E+00  0.74505805969E-08  0.10566000000E+00  0.10566000000E+00 0. -1.
     999900   -1    0    0    0    0 -0.00000000000E+00 -0.00000000000E+00 -0.74505805969E-08  0.93827000000E+00  0.93827000000E+00 0. -1.
     999902    2    1    2    0    0  0.16227667779E-02  0.18089985781E-01 -0.62795188460E-02  0.10247124738E+01  0.10245322545E+01 0.  0.
     999903    2    3    3    0    0  0.65603478533E-01  0.57464094047E-02  0.10869354302E+00  0.13484467442E+00  0.45077292603E-01 0.  0.
         14    1    1    2    0    0 -0.16227667779E-02 -0.18089985781E-01  0.62795188460E-02  0.19217526233E-01  0.00000000000E+00 0. -1.
     999901    1    3    3    0    0 -0.63980711755E-01  0.12343576376E-01 -0.11497306187E+00  0.88986779934E+00  0.88000000000E+00 0. -1.
        -11    1    4    4    0    0  0.46342514257E-01 -0.12210580067E-01  0.44266584065E-01  0.65241999349E-01  0.51100000000E-03 0. -1.
         11    1    4    4    0    0  0.19260964275E-01  0.17956989472E-01  0.64426958960E-01  0.69602675074E-01  0.51100000000E-03 0.  1.
</event>
<event>
 8    1  0.2928569E+004  0.1043930E+01  0.7957747E-01            NaN
         13   -1    0    0    0    0  0.00000000000E+00  0.00000000000E+00  0.74505805969E-08  0.10566000000E+00  0.10566000000E+00 0.  1.
     999900   -1    0    0    0    0 -0.00000000000E+00 -0.00000000000E+00 -0.74505805969E-08  0.93827000000E+00  0.93827000000E+00 0. -1.
     999902    2    1    2    0    0 -0.50520224380E-02  0.14876491756E-01 -0.62476384055E-02  0.10270224300E+01  0.10268832484E+01 0.  0.
     999903    2    3    3    0    0  0.12407698251E+00 -0.35930528387E-02  0.34274484331E-01  0.13648468996E+00  0.45225244061E-01 0.  0.
         14    1    1    2    0    0  0.50520224380E-02 -0.14876491756E-01  0.62476384055E-02  0.16907570001E-01  0.00000000000E+00 0. -1.
     999901    1    3    3    0    0 -0.12912900495E+00  0.18469544595E-01 -0.40522122737E-01  0.89053774004E+00  0.88000000000E+00 0.  1.
        -11    1    4    4    0    0  0.40691140217E-01 -0.16023902924E-01 -0.39534677984E-02  0.43913840480E-01  0.51100000000E-03 0.  1.
         11    1    4    4    0    0  0.83385842295E-01  0.12430850086E-01  0.38227952130E-01  0.92570849483E-01  0.51100000000E-03 0. -1.
</event>
<event>
 8    1  0.2928569E+004  0.1043930E+01  0.7957747E-01            NaN
         13   -1    0    0    0    0  0.00000000000E+00  0.00000000000E+00  0.74505805969E-08  0.10566000000E+00  0.10566000000E+00 0.  1.
     999900   -1    0    0    0    0 -0.00000000000E+00 -0.00000000000E+00 -0.74505805969E-08  0.93827000000E+00  0.93827000000E+00 0. -1.
     999902    2    1    2    0    0  0.28024260661E-02  0.11062608233E-01  0.10107796004E-01  0.10286852490E+01  0.10285722819E+01 0.  0.
     999903    2    3    3    0    0  0.10882516854E+00  0.67249749782E-01  0.34722816311E-01  0.14020130654E+00  0.45664934347E-01 0.  0.
         14    1    1    2    0    0 -0.28024260661E-02 -0.11062608233E-01 -0.10107796004E-01  0.15244750993E-01  0.00000000000E+00 0. -1.
     999901    1    3    3    0    0 -0.10602274248E+00 -0.56187141549E-01 -0.24615020307E-01  0.88848394247E+00  0.88000000000E+00 0.  1.
        -11    1    4    4    0    0  0.90397191496E-01  0.52398927516E-01  0.84373371291E-02  0.10482723699E+00  0.51100000000E-03 0. -1.
         11    1    4    4    0    0  0.18427977046E-01  0.14850822266E-01  0.26285479182E-01  0.35374069554E-01  0.51100000000E-03 0.  1.
</event>
<event>
 8    1  0.2928569E+004  0.1043930E+01  0.7957747E-01            NaN
         13   -1    0    0    0    0  0.00000000000E+00  0.00000000000E+00  0.74505805969E-08  0.10566000000E+00  0.10566000000E+00 0. -1.
     999900   -1    0    0    0    0 -0.00000000000E+00 -0.00000000000E+00 -0.74505805969E-08  0.93827000000E+00  0.93827000000E+00 0. -1.
     999902    2    1    2    0    0 -0.13541251717E-01 -0.29328386723E-02 -0.10679370216E-02  0.10300336865E+01  0.10299399437E+01 0.  0.
     999903    2    3    3    0    0  0.96265046684E-01  0.87169352145E-01 -0.20616781639E-01  0.13842952244E+00  0.43269224990E-01 0.  0.
         14    1    1    2    0    0  0.13541251717E-01  0.29328386723E-02  0.10679370216E-02  0.13896313548E-01  0.00000000000E+00 0. -1.
     999901    1    3    3    0    0 -0.10980629840E+00 -0.90102190817E-01  0.19548844617E-01  0.89160416401E+00  0.88000000000E+00 0.  1.
        -11    1    4    4    0    0  0.48469392247E-01  0.71585498376E-01 -0.16241390974E-01  0.87964819469E-01  0.51100000000E-03 0. -1.
         11    1    4    4    0    0  0.47795654437E-01  0.15583853769E-01 -0.43753906641E-02  0.50464702970E-01  0.51100000000E-03 0.  1.
</event>
<event>
 8    1  0.2928569E+004  0.1043930E+01  0.7957747E-01            NaN
         13   -1    0    0    0    0  0.00000000000E+00  0.00000000000E+00  0.74505805969E-08  0.10566000000E+00  0.10566000000E+00 0. -1.
     999900   -1    0    0    0    0 -0.00000000000E+00 -0.00000000000E+00 -0.74505805969E-08  0.93827000000E+00  0.93827000000E+00 0. -1.
     999902    2    1    2    0    0 -0.10756364331E-01 -0.31821668225E-02 -0.87175218698E-02  0.10297236371E+01  0.10296256349E+01 0.  0.
     999903    2    3    3    0    0  0.98640610570E-01  0.85361677749E-01 -0.86516197149E-02  0.13854031428E+00  0.45847378063E-01 0.  0.
         14    1    1    2    0    0  0.10756364331E-01  0.31821668225E-02  0.87175218698E-02  0.14206362900E-01  0.00000000000E+00 0. -1.
     999901    1    3    3    0    0 -0.10939697490E+00 -0.88543844572E-01 -0.65902154893E-04  0.89118332282E+00  0.88000000000E+00 0.  1.
        -11    1    4    4    0    0  0.36268416639E-01  0.59584969632E-01 -0.12802947041E-01  0.70922092648E-01  0.51100000000E-03 0. -1.
         11    1    4    4    0    0  0.62372193931E-01  0.25776708117E-01  0.41513273265E-02  0.67618221632E-01  0.51100000000E-03 0.  1.
</event>
<event>
 8    1  0.2928569E+004  0.1043930E+01  0.7957747E-01            NaN
         13   -1    0    0    0    0  0.00000000000E+00  0.00000000000E+00  0.74505805969E-08  0.10566000000E+00  0.10566000000E+00 0. -1.
     999900   -1    0    0    0    0 -0.00000000000E+00 -0.00000000000E+00 -0.74505805969E-08  0.93827000000E+00  0.93827000000E+00 0.  1.
     999902    2    1    2    0    0  0.10384387294E-01  0.64299535789E-04 -0.91011499891E-02  0.10301216487E+01  0.10300290970E+01 0.  0.
     999903    2    3    3    0    0 -0.23074432234E-01  0.12864884014E+00  0.17477270450E-01  0.13975100168E+00  0.46281032767E-01 0.  0.
         14    1    1    2    0    0 -0.10384387294E-01 -0.64299535789E-04  0.91011499891E-02  0.13808351278E-01  0.00000000000E+00 0. -1.
     999901    1    3    3    0    0  0.33458819528E-01 -0.12858454061E+00 -0.26578420439E-01  0.89037064705E+00  0.88000000000E+00 0.  1.
        -11    1    4    4    0    0 -0.14369180804E-01  0.16940388509E-01  0.16538156437E-01  0.27698769993E-01  0.51100000000E-03 0. -1.
         11    1    4    4    0    0 -0.87052514306E-02  0.11170845163E+00  0.93911401278E-03  0.11205223168E+00  0.51100000000E-03 0.  1.
</event>
<event>
 7    1  0.2928569E+004  0.1043930E+01  0.7957747E-01            NaN
         13   -1    0    0    0    0  0.00000000000E+00  0.00000000000E+00  0.74505805969E-08  0.10566000000E+00  0.10566000000E+00 0.  1.
     999900   -1    0    0    0    0 -0.00000000000E+00 -0.00000000000E+00 -0.74505805969E-08  0.93827000000E+00  0.93827000000E+00 0. -1.
     999903    2    1    2    0    0  0.89441666687E-01  0.57956532802E-01 -0.16263036376E-01  0.11692255438E+00  0.45250700938E-01 0.  0.
         14    1    1    2    0    0 -0.66140918968E-02  0.37252986151E-01 -0.73087086566E-03  0.37842639456E-01  0.00000000000E+00 0.  1.
     999901    1    1    2    0    0 -0.82827574791E-01 -0.95209518952E-01  0.16993907242E-01  0.88916480617E+00  0.88000000000E+00 0.  1.
        -11    1    3    3    0    0  0.70818532162E-01  0.45979234186E-01  0.70936137800E-02  0.84734496821E-01  0.51100000000E-03 0.  1.
         11    1    3    3    0    0  0.18623134525E-01  0.11977298615E-01 -0.23356650156E-01  0.32188057555E-01  0.51100000000E-03 0. -1.
</event>
<event>
 8    1  0.2928569E+004  0.1043930E+01  0.7957747E-01            NaN
         13   -1    0    0    0    0  0.00000000000E+00  0.00000000000E+00  0.74505805969E-08  0.10566000000E+00  0.10566000000E+00 0.  1.
     999900   -1    0    0    0    0 -0.00000000000E+00 -0.00000000000E+00 -0.74505805969E-08  0.93827000000E+00  0.93827000000E+00 0.  1.
     999902    2    1    2    0    0  0.56175168667E-06  0.70542347785E-02  0.20789407967E-01  0.10219763736E+01  0.10217405475E+01 0.  0.
     999903    2    3    3    0    0 -0.95207148895E-01 -0.75834744504E-01 -0.23350320132E-01  0.13187334212E+00  0.45055867944E-01 0.  0.
         14    1    1    2    0    0 -0.56175168667E-06 -0.70542347785E-02 -0.20789407967E-01  0.21953626403E-01  0.00000000000E+00 0. -1.
     999901    1    3    3    0    0  0.95207710647E-01  0.82888979283E-01  0.44139728099E-01  0.89010303148E+00  0.88000000000E+00 0. -1.
        -11    1    4    4    0    0 -0.29434529887E-01 -0.38136716127E-01  0.97439805240E-02  0.49152893547E-01  0.51100000000E-03 0.  1.
         11    1    4    4    0    0 -0.65772619008E-01 -0.37698028378E-01 -0.33094300656E-01  0.82720448570E-01  0.51100000000E-03 0. -1.
</event>
<event>
 8    1  0.2928569E+004  0.1043930E+01  0.7957747E-01            NaN
         13   -1    0    0    0    0  0.00000000000E+00  0.00000000000E+00  0.74505805969E-08  0.10566000000E+00  0.10566000000E+00 0. -1.
     999900   -1    0    0    0    0 -0.00000000000E+00 -0.00000000000E+00 -0.74505805969E-08  0.93827000000E+00  0.93827000000E+00 0.  1.
     999902    2    1    2    0    0 -0.42194821036E-02  0.30718768360E-02  0.14212719473E-01  0.10287892652E+01  0.10286778457E+01 0.  0.
     999903    2    3    3    0    0  0.12004465880E+00  0.44716118963E-01 -0.22433300903E-01  0.13832941182E+00  0.47133022212E-01 0.  0.
         14    1    1    2    0    0  0.42194821036E-02 -0.30718768360E-02 -0.14212719473E-01  0.15140734835E-01  0.00000000000E+00 0.  1.
     999901    1    3    3    0    0 -0.12426414090E+00 -0.41644242127E-01  0.36646020377E-01  0.89045985335E+00  0.88000000000E+00 0.  1.
        -11    1    4    4    0    0  0.49370411211E-01  0.75275355209E-02 -0.29748530808E-01  0.58132069466E-01  0.51100000000E-03 0.  1.
         11    1    4    4    0    0  0.70674247587E-01  0.37188583442E-01  0.73152299048E-02  0.80197342350E-01  0.51100000000E-03 0. -1.
</event>
<event>
 8    1  0.2928569E+004  0.1043930E+01  0.7957747E-01            NaN
         13   -1    0    0    0    0  0.00000000000E+00  0.00000000000E+00  0.74505805969E-08  0.10566000000E+00  0.10566000000E+00 0. -1.
     999900   -1    0    0    0    0 -0.00000000000E+00 -0.00000000000E+00 -0.74505805969E-08  0.93827000000E+00  0.93827000000E+00 0. -1.
     999902    2    1    2    0    0  0.12829049866E-01 -0.42149596083E-02 -0.18995120259E-02  0.10302933380E+01  0.10302030886E+01 0.  0.
     999903    2    3    3    0    0 -0.91229588081E-01 -0.51097251627E-01 -0.80664420739E-01  0.13943416826E+00  0.44736692331E-01 0.  0.
         14    1    1    2    0    0 -0.12829049866E-01  0.42149596083E-02  0.18995120259E-02  0.13636662014E-01  0.00000000000E+00 0. -1.
     999901    1    3    3    0    0  0.10405863795E+00  0.46882292019E-01  0.78764908713E-01  0.89085916972E+00  0.88000000000E+00 0.  1.
        -11    1    4    4    0    0 -0.85668832125E-01 -0.39680315679E-01 -0.51330147142E-01  0.10746497744E+00  0.51100000000E-03 0. -1.
         11    1    4    4    0    0 -0.55607559554E-02 -0.11416935948E-01 -0.29334273597E-01  0.31969190820E-01  0.51100000000E-03 0.  1.
</event>
<event>
 8    1  0.2928569E+004  0.1043930E+01  0.7957747E-01            NaN
         13   -1    0    0    0    0  0.00000000000E+00  0.00000000000E+00  0.74505805969E-08  0.10566000000E+00  0.10566000000E+00 0. -1.
     999900   -1    0    0    0    0 -0.00000000000E+00 -0.00000000000E+00 -0.74505805969E-08  0.93827000000E+00  0.93827000000E+00 0.  1.
     999902    2    1    2    0    0 -0.10937232312E-01 -0.34232587523E-02 -0.48982092185E-03  0.10324590944E+01  0.10323953700E+01 0.  0.
     999903    2    3    3    0    0 -0.84959537522E-01 -0.75859915907E-02  0.10551581749E+00  0.14300205473E+00  0.45170008098E-01 0.  0.
         14    1    1    2    0    0  0.10937232312E-01  0.34232587523E-02  0.48982092185E-03  0.11470905616E-01  0.00000000000E+00 0. -1.
     999901    1    3    3    0    0  0.74022305210E-01  0.41627328384E-02 -0.10600563841E+00  0.88945703965E+00  0.88000000000E+00 0.  1.
        -11    1    4    4    0    0 -0.40578010759E-01 -0.17677307366E-01  0.25876649055E-01  0.51273036190E-01  0.51100000000E-03 0.  1.
         11    1    4    4    0    0 -0.44381526763E-01  0.10091315775E-01  0.79639168438E-01  0.91729018540E-01  0.51100000000E-03 0. -1.
</event>
<event>
 8    1  0.2928569E+004  0.1043930E+01  0.7957747E-01            NaN
         13   -1    0    0    0    0  0.00000000000E+00  0.00000000000E+00  0.74505805969E-08  0.10566000000E+00  0.10566000000E+00 0. -1.
     999900   -1    0    0    0    0 -0.00000000000E+00 -0.00000000000E+00 -0.74505805969E-08  0.93827000000E+00  0.93827000000E+00 0.  1.
     999902    2    1    2    0    0 -0.71952454442E-02  0.60729107604E-02 -0.96380624759E-02  0.10304561717E+01  0.10303680787E+01 0.  0.
     999903    2    3    3    0    0 -0.67573482174E-01  0.22800535292E-01 -0.11386111416E+00  0.14209375158E+00  0.46262738973E-01 0.  0.
         14    1    1    2    0    0  0.71952454442E-02 -0.60729107604E-02  0.96380624759E-02  0.13473828350E-01  0.00000000000E+00 0. -1.
     999901    1    3    3    0    0  0.60378236730E-01 -0.16727624532E-01  0.10422305168E+00  0.88836242007E+00  0.88000000000E+00 0. -1.
        -11    1    4    4    0    0 -0.48459057865E-02  0.37761920518E-02 -0.50671316962E-01  0.51044940131E-01  0.51100000000E-03 0.  1.
         11    1    4    4    0    0 -0.62727576388E-01  0.19024343240E-01 -0.63189797198E-01  0.91048811448E-01  0.51100000000E-03 0. -1.
</event>
<event>
 8    1  0.2928569E+004  0.1043930E+01  0.7957747E-01            NaN
         13   -1    0    0    0    0  0.00000000000E+00  0.00000000000E+00  0.74505805969E-08  0.10566000000E+00  0.10566000000E+00 0.  1.
     999900   -1    0    0    0    0 -0.00000000000E+00 -0.00000000000E+00 -0.74505805969E-08  0.93827000000E+00  0.93827000000E+00 0.  1.
     999902    2    1    2    0    0 -0.10229477406E-01 -0.75492774875E-02  0.48659486725E-02  0.10303170923E+01  0.10302271592E+01 0.  0.
     999903    2    3    3    0    0 -0.85834357509E-01  0.23645402208E-01 -0.99818476920E-01  0.14034628669E+00  0.42505409998E-01 0.  0.
         14    1    1    2    0    0  0.10229477406E-01  0.75492774875E-02 -0.48659486725E-02  0.13612907664E-01  0.00000000000E+00 0. -1.
     999901    1    3    3    0    0  0.75604880103E-01 -0.31194679695E-01  0.10468442559E+00  0.88997080564E+00  0.88000000000E+00 0. -1.
        -11    1    4    4    0    0 -0.29138574055E-01 -0.18482246765E-02 -0.95131226831E-02  0.30712099515E-01  0.51100000000E-03 0.  1.
         11    1    4    4    0    0 -0.56695783454E-01  0.25493626884E-01 -0.90305354237E-01  0.10963418718E+00  0.51100000000E-03 0. -1.
</event>
<event>
 7    1  0.2928569E+004  0.1043930E+01  0.7957747E-01            NaN
         13   -1    0    0    0    0  0.00000000000E+00  0.00000000000E+00  0.74505805969E-08  0.10566000000E+00  0.10566000000E+00 0. -1.
     999900   -1    0    0    0    0 -0.00000000000E+00 -0.00000000000E+00 -0.74505805969E-08  0.93827000000E+00  0.93827000000E+00 0. -1.
     999903    2    1    2    0    0 -0.10242226577E+00 -0.33204135934E-01  0.46644356147E-02  0.11659893451E+00  0.44505273849E-01 0.  0.
         14    1    1    2    0    0 -0.54993882943E-02 -0.29661437949E-01 -0.23613995289E-01  0.38310115456E-01  0.00000000000E+00 0.  1.
     999901    1    1    2    0    0  0.10792165406E+00  0.62865573883E-01  0.18949559674E-01  0.88902095004E+00  0.88000000000E+00 0. -1.
        -11    1    3    3    0    0 -0.53688854066E-01 -0.38363343781E-01 -0.65838087782E-02  0.66316263888E-01  0.51100000000E-03 0. -1.
         11    1    3    3    0    0 -0.48733411700E-01  0.51592078468E-02  0.11248244393E-01  0.50282670618E-01  0.51100000000E-03 0.  1.
</event>
<event>
 8    1  0.2928569E+004  0.1043930E+01  0.7957747E-01            NaN
         13   -1    0    0    0    0  0.00000000000E+00  0.00000000000E+00  0.74505805969E-08  0.10566000000E+00  0.10566000000E+00 0.  1.
     999900   -1    0    0    0    0 -0.00000000000E+00 -0.00000000000E+00 -0.74505805969E-08  0.93827000000E+00  0.93827000000E+00 0.  1.
     999902    2    1    2    0    0  0.53079193428E-02 -0.19456402016E-02  0.11974948619E-01  0.10306876846E+01  0.10306026122E+01 0.  0.
     999903    2    3    3    0    0 -0.38353471858E-02  0.10647589572E+00  0.81560432733E-01  0.14126035849E+00  0.44165126917E-01 0.  0.
         14    1    1    2    0    0 -0.53079193428E-02  0.19456402016E-02 -0.11974948619E-01  0.13242315431E-01  0.00000000000E+00 0. -1.
     999901    1    3    3    0    0  0.91432665286E-02 -0.10842153592E+00 -0.69585484115E-01  0.88942732608E+00  0.88000000000E+00 0.  1.
        -11    1    4    4    0    0 -0.18842490019E-01  0.70698657246E-01  0.36405090034E-01  0.81724728619E-01  0.51100000000E-03 0. -1.
         11    1    4    4    0    0  0.15007142833E-01  0.35777238476E-01  0.45155342700E-01  0.59535629872E-01  0.51100000000E-03 0.  1.
</event>
<event>
 8    1  0.2928569E+004  0.1043930E+01  0.7957747E-01            NaN
         13   -1    0    0    0    0  0.00000000000E+00  0.00000000000E+00  0.74505805969E-08  0.10566000000E+00  0.10566000000E+00 0.  1.
     999900   -1    0    0    0    0 -0.00000000000E+00 -0.00000000000E+00 -0.74505805969E-08  0.93827000000E+00  0.93827000000E+00 0.  1.
     999902    2    1    2    0    0  0.10907831459E-01  0.10403047964E-01 -0.48027356076E-02  0.10281100612E+01  0.10279883402E+01 0.  0.
     999903    2    3    3    0    0  0.44375925629E-01  0.12222052429E+00 -0.26087651910E-01  0.14014817633E+00  0.45319602969E-01 0.  0.
         14    1    1    2    0    0 -0.10907831459E-01 -0.10403047964E-01  0.48027356076E-02  0.15819938792E-01  0.00000000000E+00 0.  1.
     999901    1    3    3    0    0 -0.33468094171E-01 -0.11181747632E+00  0.21284916303E-01  0.88796188488E+00  0.88000000000E+00 0. -1.
        -11    1    4    4    0    0  0.38793738693E-01  0.41697914252E-01 -0.94587478452E-02  0.57735597741E-01  0.51100000000E-03 0. -1.
         11    1    4    4    0    0  0.55821869367E-02  0.80522610034E-01 -0.16628904065E-01  0.82412578586E-01  0.51100000000E-03 0.  1.
</event>
<event>
 8    1  0.2928569E+004  0.1043930E+01  0.7957747E-01            NaN
         13   -1    0    0    0    0  0.00000000000E+00  0.00000000000E+00  0.74505805969E-08  0.10566000000E+00  0.10566000000E+00 0. -1.
     999900   -1    0    0    0    0 -0.00000000000E+00 -0.00000000000E+00 -0.74505805969E-08  0.93827000000E+00  0.93827000000E+00 0.  1.
     999902    2    1    2    0    0  0.15500008930E-02 -0.13279665434E-01  0.34936135091E-02  0.10301112681E+01  0.10300185762E+01 0.  0.
     999903    2    3    3    0    0 -0.97891547506E-02  0.12733832827E+00 -0.28105659103E-01  0.13831504099E+00  0.45058241117E-01 0.  0.
         14    1    1    2    0    0 -0.15500008930E-02  0.13279665434E-01 -0.34936135091E-02  0.13818731930E-01  0.00000000000E+00 0. -1.
     999901    1    3    3    0    0  0.11339155644E-01 -0.14061799371E+00  0.31599272612E-01  0.89179622708E+00  0.88000000000E+00 0. -1.
        -11    1    4    4    0    0 -0.29591342584E-02  0.38656088685E-01 -0.30508297990E-01  0.49336264910E-01  0.51100000000E-03 0.  1.
         11    1    4    4    0    0 -0.68300204922E-02  0.88682239586E-01  0.24026388870E-02  0.88978776080E-01  0.51100000000E-03 0. -1.
</event>
<event>
 8    1  0.2928569E+004  0.1043930E+01  0.7957747E-01            NaN
         13   -1    0    0    0    0  0.00000000000E+00  0.00000000000E+00  0.74505805969E-08  0.10566000000E+00  0.10566000000E+00 0.  1.
     999900   -1    0    0    0    0 -0.00000000000E+00 -0.00000000000E+00 -0.74505805969E-08  0.93827000000E+00  0.93827000000E+00 0. -1.
     999902    2    1    2    0    0  0.31276966254E-02 -0.10708427431E-01  0.73635329030E-02  0.10305630811E+01  0.10304763896E+01 0.  0.
     999903    2    3    3    0    0 -0.23266565420E-01 -0.24334788831E-01 -0.12806430269E+00  0.13970785523E+00  0.44545529261E-01 0.  0.
         14    1    1    2    0    0 -0.31276966254E-02  0.10708427431E-01 -0.73635329030E-02  0.13366918906E-01  0.00000000000E+00 0. -1.
     999901    1    3    3    0    0  0.26394262045E-01  0.13626361399E-01  0.13542783559E+00  0.89085522586E+00  0.88000000000E+00 0. -1.
        -11    1    4    4    0    0 -0.32912406312E-01 -0.11844212258E-01 -0.56745240712E-01  0.66661798038E-01  0.51100000000E-03 0.  1.
         11    1    4    4    0    0  0.96458408926E-02 -0.12490576573E-01 -0.71319061974E-01  0.73046057193E-01  0.51100000000E-03 0. -1.
</event>
<event>
 7    1  0.2928569E+004  0.1043930E+01  0.7957747E-01            NaN
         13   -1    0    0    0    0  0.00000000000E+00  0.00000000000E+00  0.74505805969E-08  0.10566000000E+00  0.10566000000E+00 0.  1.
     999900   -1    0    0    0    0 -0.00000000000E+00 -0.00000000000E+00 -0.74505805969E-08  0.93827000000E+00  0.93827000000E+00 0.  1.
     999902    2    1    2    0    0  0.30161435433E-02 -0.12421728791E-01 -0.96900771217E-02  0.10278896115E+01  0.10277644474E+01 0.  0.
         14    1    1    2    0    0 -0.30161435433E-02  0.12421728791E-01  0.96900771217E-02  0.16040388482E-01  0.00000000000E+00 0.  1.
     999901    1    3    3    0    0  0.52698138522E-01  0.64188109231E-01 -0.10862159297E+00  0.89055929484E+00  0.88000000000E+00 0. -1.
        -11    1    3    3    0    0 -0.13452385997E-01 -0.18192589831E-01  0.95311579171E-02  0.24556895285E-01  0.51100000000E-03 0. -1.
         11    1    3    3    0    0 -0.36229608982E-01 -0.58417248190E-01  0.89400357931E-01  0.11277342139E+00  0.51100000000E-03 0.  1.
</event>
<event>
 8    1  0.2928569E+004  0.1043930E+01  0.7957747E-01            NaN
         13   -1    0    0    0    0  0.00000000000E+00  0.00000000000E+00  0.74505805969E-08  0.10566000000E+00  0.10566000000E+00 0. -1.
     999900   -1    0    0    0    0 -0.00000000000E+00 -0.00000000000E+00 -0.74505805969E-08  0.93827000000E+00  0.93827000000E+00 0.  1.
     999902    2    1    2    0    0  0.63652017482E-02  0.11501665030E-01  0.35798075660E-02  0.10303057894E+01  0.10302157059E+01 0.  0.
     999903    2    3    3    0    0 -0.10240358328E+00  0.69159116919E-01  0.48716392542E-01  0.14059103645E+00  0.46076841297E-01 0.  0.
         14    1    1    2    0    0 -0.63652017482E-02 -0.11501665030E-01 -0.35798075660E-02  0.13624210581E-01  0.00000000000E+00 0.  1.
     999901    1    3    3    0    0  0.10876878503E+00 -0.57657451889E-01 -0.45136584976E-01  0.88971475297E+00  0.88000000000E+00 0.  1.
        -11    1    4    4    0    0 -0.95413168675E-01  0.73430957340E-01  0.36384350571E-01  0.12577702628E+00  0.51100000000E-03 0. -1.
         11    1    4    4    0    0 -0.69904146099E-02 -0.42718404214E-02  0.12332041970E-01  0.14814010165E-01  0.51100000000E-03 0.  1.
</event>
<event>
 8    1  0.2928569E+004  0.1043930E+01  0.7957747E-01            NaN
         13   -1    0    0    0    0  0.00000000000E+00  0.00000000000E+00  0.74505805969E-08  0.10566000000E+00  0.10566000000E+00 0. -1.
     999900   -1    0    0    0    0 -0.00000000000E+00 -0.00000000000E+00 -0.74505805969E-08  0.93827000000E+00  0.93827000000E+00 0.  1.
     999902    2    1    2    0    0 -0.96932497886E-02 -0.51935848681E-02 -0.93050854262E-02  0.10295245486E+01  0.10294237607E+01 0.  0.
     999903    2    3    3    0    0  0.11150884211E+00  0.49644264982E-01  0.44445050319E-01  0.13790455446E+00  0.46298258382E-01 0.  0.
         14    1    1    2    0    0  0.96932497886E-02  0.51935848681E-02  0.93050854262E-02  0.14405451400E-01  0.00000000000E+00 0.  1.
     999901    1    3    3    0    0 -0.12120209190E+00 -0.54837849851E-01 -0.53750135745E-01  0.89161999414E+00  0.88000000000E+00 0.  1.
        -11    1    4    4    0    0  0.86867155073E-01  0.27606198549E-01  0.50631405690E-01  0.10426794902E+00  0.51100000000E-03 0.  1.
         11    1    4    4    0    0  0.24641687035E-01  0.22038066433E-01 -0.61863553716E-02  0.33636605445E-01  0.51100000000E-03 0. -1.
</event>
<event>
 8    1  0.2928569E+004  0.1043930E+01  0.7957747E-01            NaN
         13   -1    0    0    0    0  0.00000000000E+00  0.00000000000E+00  0.74505805969E-08  0.10566000000E+00  0.10566000000E+00 0.  1.
     999900   -1    0    0    0    0 -0.00000000000E+00 -0.00000000000E+00 -0.74505805969E-08  0.93827000000E+00  0.93827000000E+00 0.  1.
     999902    2    1    2    0    0 -0.11365837354E-01  0.73740388285E-02 -0.19357679888E-02  0.10302440252E+01  0.10301531176E+01 0.  0.
     999903    2    3    3    0    0  0.55099954725E-01  0.52403488182E-01  0.10401066938E+00  0.14026087910E+00  0.55432520028E-01 0.  0.
         14    1    1    2    0    0  0.11365837354E-01 -0.73740388285E-02  0.19357679888E-02  0.13685974759E-01  0.00000000000E+00 0.  1.
     999901    1    3    3    0    0 -0.66465792079E-01 -0.45029449354E-01 -0.10594643737E+00  0.88998314614E+00  0.88000000000E+00 0.  1.
        -11    1    4    4    0    0  0.29407521134E-01  0.59877174299E-01  0.66616303595E-01  0.94276568282E-01  0.51100000000E-03 0.  1.
         11    1    4    4    0    0  0.25692433591E-01 -0.74736861165E-02  0.37394365784E-01  0.45984310818E-01  0.51100000000E-03 0. -1.
</event>
<event>
 8    1  0.2928569E+004  0.1043930E+01  0.7957747E-01            NaN
         13   -1    0    0    0    0  0.00000000000E+00  0.00000000000E+00  0.74505805969E-08  0.10566000000E+00  0.10566000000E+00 0.  1.
     999900   -1    0    0    0    0 -0.00000000000E+00 -0.00000000000E+00 -0.74505805969E-08  0.93827000000E+00  0.93827000000E+00 0.  1.
     999902    2    1    2    0    0  0.27098664977E-02 -0.14627169203E-01 -0.41642280159E-02  0.10284820794E+01  0.10283660581E+01 0.  0.
     999903    2    3    3    0    0 -0.37889305505E-02 -0.10610963426E+00 -0.80960974932E-01  0.14038916980E+00  0.43368526135E-01 0.  0.
         14    1    1    2    0    0 -0.27098664977E-02  0.14627169203E-01  0.41642280159E-02  0.15447920581E-01  0.00000000000E+00 0.  1.
     999901    1    3    3    0    0  0.64987970481E-02  0.91482465053E-01  0.76796746916E-01  0.88809290962E+00  0.88000000000E+00 0.  1.
        -11    1    4    4    0    0 -0.10256346548E-01 -0.10746188833E+00 -0.74738570658E-01  0.13129876295E+00  0.51100000000E-03 0. -1.
         11    1    4    4    0    0  0.64674159973E-02  0.13522540723E-02 -0.62224042742E-02  0.90904068506E-02  0.51100000000E-03 0.  1.
</event>
<event>
 8    1  0.2928569E+004  0.1043930E+01  0.7957747E-01            NaN
         13   -1    0    0    0    0  0.00000000000E+00  0.00000000000E+00  0.74505805969E-08  0.10566000000E+00  0.10566000000E+00 0.  1.
     999900   -1    0    0    0    0 -0.00000000000E+00 -0.00000000000E+00 -0.74505805969E-08  0.93827000000E+00  0.93827000000E+00 0. -1.
     999902    2    1    2    0    0 -0.57389313096E-02  0.16029092053E-01  0.42953268032E-02  0.10263710434E+01  0.10262208348E+01 0.  0.
     999903    2    3    3    0    0  0.26596028358E-01  0.24016673663E-01 -0.12384751114E+00  0.13646658898E+00  0.44730018496E-01 0.  0.
         14    1    1    2    0    0  0.57389313096E-02 -0.16029092053E-01 -0.42953268032E-02  0.17558956602E-01  0.00000000000E+00 0. -1.
     999901    1    3    3    0    0 -0.32334959668E-01 -0.79875816106E-02  0.12814283794E+00  0.88990445442E+00  0.88000000000E+00 0.  1.
        -11    1    4    4    0    0  0.14890795728E-01  0.36864534989E-01 -0.81269623918E-01  0.90475093977E-01  0.51100000000E-03 0.  1.
         11    1    4    4    0    0  0.11705232630E-01 -0.12847861326E-01 -0.42577887220E-01  0.45991495004E-01  0.51100000000E-03 0. -1.
</event>
<event>
 8    1  0.2928569E+004  0.1043930E+01  0.7957747E-01            NaN
         13   -1    0    0    0    0  0.00000000000E+00  0.00000000000E+00  0.74505805969E-08  0.10566000000E+00  0.10566000000E+00 0. -1.
     999900   -1    0    0    0    0 -0.00000000000E+00 -0.00000000000E+00 -0.74505805969E-08  0.93827000000E+00  0.93827000000E+00 0.  1.
     999902    2    1    2    0    0  0.90450369404E-02 -0.38542566436E-02 -0.10987753837E-01  0.10291855528E+01  0.10290799306E+01 0.  0.
     999903    2    3    3    0    0 -0.12053106812E+00 -0.42445533214E-01  0.26062818691E-01  0.13808959923E+00  0.45388382034E-01 0.  0.
         14    1    1    2    0    0 -0.90450369404E-02  0.38542566436E-02  0.10987753837E-01  0.14744447155E-01  0.00000000000E+00 0.  1.
     999901    1    3    3    0    0  0.12957610506E+00  0.38591276571E-01 -0.37050572528E-01  0.89109595362E+00  0.88000000000E+00 0. -1.
        -11    1    4    4    0    0 -0.41870128931E-01  0.15040795898E-02  0.23292962735E-01  0.47939474195E-01  0.51100000000E-03 0. -1.
         11    1    4    4    0    0 -0.78660939192E-01 -0.43949612804E-01  0.27698559557E-02  0.90150125032E-01  0.51100000000E-03 0.  1.
</event>
<event>
 8    1  0.2928569E+004  0.1043930E+01  0.7957747E-01            NaN
         13   -1    0    0    0    0  0.00000000000E+00  0.00000000000E+00  0.74505805969E-08  0.10566000000E+00  0.10566000000E+00 0. -1.
     999900   -1    0    0    0    0 -0.00000000000E+00 -0.00000000000E+00 -0.74505805969E-08  0.93827000000E+00  0.93827000000E+00 0.  1.
     999902    2    1    2    0    0  0.78051292670E-02  0.87419865436E-02 -0.35874584497E-02  0.10316738901E+01  0.10316010873E+01 0.  0.
     999903    2    3    3    0    0  0.59430276699E-01 -0.51516389945E-01 -0.10913759949E+00  0.14182162144E+00  0.44905016004E-01 0.  0.
         14    1    1    2    0    0 -0.78051292670E-02 -0.87419865436E-02  0.35874584497E-02  0.12256109894E-01  0.00000000000E+00 0. -1.
     999901    1    3    3    0    0 -0.51625147432E-01  0.60258376489E-01  0.10555014104E+00  0.88985226867E+00  0.88000000000E+00 0. -1.
        -11    1    4    4    0    0  0.50822657033E-01 -0.31035289607E-01 -0.47107039609E-01  0.75930665549E-01  0.51100000000E-03 0. -1.
         11    1    4    4    0    0  0.86076196653E-02 -0.20481100338E-01 -0.62030559882E-01  0.65890955887E-01  0.51100000000E-03 0.  1.
</event>
<event>
 8    1  0.2928569E+004  0.1043930E+01  0.7957747E-01            NaN
         13   -1    0    0    0    0  0.00000000000E+00  0.00000000000E+00  0.74505805969E-08  0.10566000000E+00  0.10566000000E+00 0. -1.
     999900   -1    0    0    0    0 -0.00000000000E+00 -0.00000000000E+00 -0.74505805969E-08  0.93827000000E+00  0.93827000000E+00 0.  1.
     999902    2    1    2    0    0  0.88251749479E-02  0.28446311184E-03  0.11628467818E-01  0.10293291132E+01  0.10292255522E+01 0.  0.
     999903    2    3    3    0    0 -0.86451300784E-01  0.15635627733E-01  0.98557230005E-01  0.13979559792E+00  0.45945417058E-01 0.  0.
         14    1    1    2    0    0 -0.88251749479E-02 -0.28446311184E-03 -0.11628467818E-01  0.14600886820E-01  0.00000000000E+00 0.  1.
     999901    1    3    3    0    0  0.95276475732E-01 -0.15351164621E-01 -0.86928762187E-01  0.88953351526E+00  0.88000000000E+00 0.  1.
        -11    1    4    4    0    0 -0.30058453228E-02 -0.74163040469E-02  0.24798923491E-01  0.26063084989E-01  0.51100000000E-03 0.  1.
         11    1    4    4    0    0 -0.83445455461E-01  0.23051931780E-01  0.73758306514E-01  0.11373251293E+00  0.51100000000E-03 0. -1.
</event>
<event>
 8    1  0.2928569E+004  0.1043930E+01  0.7957747E-01            NaN
         13   -1    0    0    0    0  0.00000000000E+00  0.00000000000E+00  0.74505805969E-08  0.10566000000E+00  0.10566000000E+00 0. -1.
     999900   -1    0    0    0    0 -0.00000000000E+00 -0.00000000000E+00 -0.74505805969E-08  0.93827000000E+00  0.93827000000E+00 0.  1.
     999902    2    1    2    0    0  0.15109310423E-01  0.13639264522E-01 -0.70612817023E-02  0.10223851051E+01  0.10221580702E+01 0.  0.
     999903    2    3    3    0    0  0.97246405299E-01 -0.16628531367E-01  0.78844091983E-01  0.13387940726E+00  0.44428970818E-01 0.  0.
         14    1    1    2    0    0 -0.15109310423E-01 -0.13639264522E-01  0.70612817023E-02  0.21544894928E-01  0.00000000000E+00 0.  1.
     999901    1    3    3    0    0 -0.82137094876E-01  0.30267795889E-01 -0.85905373685E-01  0.88850569782E+00  0.88000000000E+00 0.  1.
        -11    1    4    4    0    0  0.29860297343E-01 -0.14206447210E-01  0.51306649742E-01  0.61041739232E-01  0.51100000000E-03 0. -1.
         11    1    4    4    0    0  0.67386107956E-01 -0.24220841567E-02  0.27537442241E-01  0.72837668025E-01  0.51100000000E-03 0.  1.
</event>
<event>
 8    1  0.2928569E+004  0.1043930E+01  0.7957747E-01            NaN
         13   -1    0    0    0    0  0.00000000000E+00  0.00000000000E+00  0.74505805969E-08  0.10566000000E+00  0.10566000000E+00 0.  1.
     999900   -1    0    0    0    0 -0.00000000000E+00 -0.00000000000E+00 -0.74505805969E-08  0.93827000000E+00  0.93827000000E+00 0.  1.
     999902    2    1    2    0    0 -0.53323791278E-02  0.15762457172E-01 -0.35093999495E-02  0.10269239654E+01  0.10267831444E+01 0.  0.
     999903    2    3    3    0    0  0.25073486942E-01 -0.58599356989E-01  0.11138347039E+00  0.13582657023E+00  0.44497363061E-01 0.  0.
         14    1    1    2    0    0  0.53323791278E-02 -0.15762457172E-01  0.35093999495E-02  0.17006034555E-01  0.00000000000E+00 0. -1.
     999901    1    3    3    0    0 -0.30405866070E-01  0.74361814162E-01 -0.11489287034E+00  0.89109739521E+00  0.88000000000E+00 0.  1.
        -11    1    4    4    0    0  0.17676720560E-01 -0.27199441514E-01  0.18163541809E-01  0.37181331882E-01  0.51100000000E-03 0.  1.
         11    1    4    4    0    0  0.73967663822E-02 -0.31399915475E-01  0.93219928577E-01  0.98645238353E-01  0.51100000000E-03 0. -1.
</event>
<event>
 8    1  0.2928569E+004  0.1043930E+01  0.7957747E-01            NaN
         13   -1    0    0    0    0  0.00000000000E+00  0.00000000000E+00  0.74505805969E-08  0.10566000000E+00  0.10566000000E+00 0.  1.
     999900   -1    0    0    0    0 -0.00000000000E+00 -0.00000000000E+00 -0.74505805969E-08  0.93827000000E+00  0.93827000000E+00 0.  1.
     999902    2    1    2    0    0 -0.26487027614E-03 -0.12640988265E-01 -0.29953424619E-02  0.10309362778E+01  0.10308543893E+01 0.  0.
     999903    2    3    3    0    0 -0.10185089821E+00 -0.82428529500E-01  0.29230822746E-01  0.14176332064E+00  0.45544814628E-01 0.  0.
         14    1    1    2    0    0  0.26487027614E-03  0.12640988265E-01  0.29953424619E-02  0.12993722217E-01  0.00000000000E+00 0.  1.
     999901    1    3    3    0    0  0.10158602794E+00  0.69787541235E-01 -0.32226165208E-01  0.88917295714E+00  0.88000000000E+00 0.  1.
        -11    1    4    4    0    0 -0.62888797198E-01 -0.53120504892E-01 -0.45478293741E-02  0.82448363998E-01  0.51100000000E-03 0. -1.
         11    1    4    4    0    0 -0.38962101015E-01 -0.29308024608E-01  0.33778652120E-01  0.59314956646E-01  0.51100000000E-03 0.  1.
</event>
<event>
 8    1  0.2928569E+004  0.1043930E+01  0.7957747E-01            NaN
         13   -1    0    0    0    0  0.00000000000E+00  0.00000000000E+00  0.74505805969E-08  0.10566000000E+00  0.10566000000E+00 0. -1.
     999900   -1    0    0    0    0 -0.00000000000E+00 -0.00000000000E+00 -0.74505805969E-08  0.93827000000E+00  0.93827000000E+00 0. -1.
     999902    2    1    2    0    0  0.99602974725E-02  0.94079486238E-02 -0.29976615587E-02  0.10299049154E+01  0.10298094153E+01 0.  0.
     999903    2    3    3    0    0  0.13924803583E-01  0.40663005541E-01  0.12523164946E+00  0.14005360642E+00  0.45658147924E-01 0.  0.
         14    1    1    2    0    0 -0.99602974725E-02 -0.94079486238E-02  0.29976615587E-02  0.14025084594E-01  0.00000000000E+00 0. -1.
     999901    1    3    3    0    0 -0.39645061105E-02 -0.31255056917E-01 -0.12822931102E+00  0.88985130898E+00  0.88000000000E+00 0. -1.
        -11    1    4    4    0    0 -0.14078635339E-01  0.59344887197E-02  0.16337443074E-01  0.22374076441E-01  0.51100000000E-03 0.  1.
         11    1    4    4    0    0  0.28003438922E-01  0.34728516821E-01  0.10889420639E+00  0.11767952998E+00  0.51100000000E-03 0. -1.
</event>
<event>
 8    1  0.2928569E+004  0.1043930E+01  0.7957747E-01            NaN
         13   -1    0    0    0    0  0.00000000000E+00  0.00000000000E+00  0.74505805969E-08  0.10566000000E+00  0.10566000000E+00 0.  1.
     999900   -1    0    0    0    0 -0.00000000000E+00 -0.00000000000E+00 -0.74505805969E-08  0.93827000000E+00  0.93827000000E+00 0. -1.
     999902    2    1    2    0    0  0.11816815614E-01 -0.35390632893E-02  0.50773922768E-02  0.10305905093E+01  0.10305041755E+01 0.  0.
     999903    2    3    3    0    0 -0.24284364223E-02  0.68517039160E-01 -0.11368229316E+00  0.13958048017E+00  0.43111074063E-01 0.  0.
         14    1    1    2    0    0 -0.11816815614E-01  0.35390632893E-02 -0.50773922768E-02  0.13339490716E-01  0.00000000000E+00 0. -1.
     999901    1    3    3    0    0  0.14245252037E-01 -0.72056102449E-01  0.11875968543E+00  0.89101002912E+00  0.88000000000E+00 0.  1.
        -11    1    4    4    0    0  0.16097458075E-01  0.24414585074E-01 -0.65251159243E-01  0.71506468409E-01  0.51100000000E-03 0.  1.
         11    1    4    4    0    0 -0.18525894497E-01  0.44102454086E-01 -0.48431133915E-01  0.68074011756E-01  0.51100000000E-03 0. -1.
</event>
<event>
 8    1  0.2928569E+004  0.1043930E+01  0.7957747E-01            NaN
         13   -1    0    0    0    0  0.00000000000E+00  0.00000000000E+00  0.74505805969E-08  0.10566000000E+00  0.10566000000E+00 0.  1.
     999900   -1    0    0    0    0 -0.00000000000E+00 -0.00000000000E+00 -0.74505805969E-08  0.93827000000E+00  0.93827000000E+00 0.  1.
     999902    2    1    2    0    0 -0.26325047609E-02  0.10891128403E-01 -0.78814763849E-02  0.10302309333E+01  0.10301398504E+01 0.  0.
     999903    2    3    3    0    0  0.46242911876E-01 -0.70733433640E-01 -0.10079647020E+00  0.14023960098E+00  0.48637349273E-01 0.  0.
         14    1    1    2    0    0  0.26325047609E-02 -0.10891128403E-01  0.78814763849E-02  0.13699066728E-01  0.00000000000E+00 0.  1.
     999901    1    3    3    0    0 -0.48875416637E-01  0.81624562042E-01  0.92914993818E-01  0.88999133229E+00  0.88000000000E+00 0. -1.
        -11    1    4    4    0    0 -0.28130574895E-03 -0.10762726639E-01 -0.44370371466E-01  0.45660775318E-01  0.51100000000E-03 0.  1.
         11    1    4    4    0    0  0.46524217625E-01 -0.59970707001E-01 -0.56426098737E-01  0.94578825662E-01  0.51100000000E-03 0. -1.
</event>
<event>
 8    1  0.2928569E+004  0.1043930E+01  0.7957747E-01            NaN
         13   -1    0    0    0    0  0.00000000000E+00  0.00000000000E+00  0.74505805969E-08  0.10566000000E+00  0.10566000000E+00 0.  1.
     999900   -1    0    0    0    0 -0.00000000000E+00 -0.00000000000E+00 -0.74505805969E-08  0.93827000000E+00  0.93827000000E+00 0.  1.
     999902    2    1    2    0    0  0.25761868659E-02  0.13095093915E-01 -0.47438406178E-02  0.10297658817E+01  0.10296684655E+01 0.  0.
     999903    2    3    3    0    0 -0.11505601105E+00 -0.60558285947E-01 -0.11899498275E-01  0.13885996198E+00  0.47278952047E-01 0.  0.
         14    1    1    2    0    0 -0.25761868659E-02 -0.13095093915E-01  0.47438406178E-02  0.14164118300E-01  0.00000000000E+00 0. -1.
     999901    1    3    3    0    0  0.11763219792E+00  0.73653379862E-01  0.71556576574E-02  0.89090591972E+00  0.88000000000E+00 0.  1.
        -11    1    4    4    0    0 -0.10760797167E+00 -0.50278456598E-01  0.35859310363E-02  0.11882978914E+00  0.51100000000E-03 0. -1.
         11    1    4    4    0    0 -0.74480393798E-02 -0.10279829349E-01 -0.15485429312E-01  0.20030172840E-01  0.51100000000E-03 0.  1.
</event>
<event>
 8    1  0.2928569E+004  0.1043930E+01  0.7957747E-01            NaN
         13   -1    0    0    0    0  0.00000000000E+00  0.00000000000E+00  0.74505805969E-08  0.10566000000E+00  0.10566000000E+00 0.  1.
     999900   -1    0    0    0    0 -0.00000000000E+00 -0.00000000000E+00 -0.74505805969E-08  0.93827000000E+00  0.93827000000E+00 0.  1.
     999902    2    1    2    0    0 -0.41084187795E-02  0.72291083229E-02 -0.11161166219E-01  0.10300119993E+01  0.10299179618E+01 0.  0.
     999903    2    3    3    0    0  0.99454208289E-01 -0.62278285793E-01  0.57964960735E-01  0.13853293786E+00  0.45406098399E-01 0.  0.
         14    1    1    2    0    0  0.41084187795E-02 -0.72291083229E-02  0.11161166219E-01  0.13918000696E-01  0.00000000000E+00 0.  1.
     999901    1    3    3    0    0 -0.10356262707E+00  0.69507394116E-01 -0.69126126954E-01  0.89147906144E+00  0.88000000000E+00 0.  1.
        -11    1    4    4    0    0  0.86856933232E-01 -0.50281315916E-01  0.65204419780E-01  0.11968381286E+00  0.51100000000E-03 0. -1.
         11    1    4    4    0    0  0.12597275057E-01 -0.11996969877E-01 -0.72394590448E-02  0.18849125002E-01  0.51100000000E-03 0.  1.
</event>
<event>
 8    1  0.2928569E+004  0.1043930E+01  0.7957747E-01            NaN
         13   -1    0    0    0    0  0.00000000000E+00  0.00000000000E+00  0.74505805969E-08  0.10566000000E+00  0.10566000000E+00 0.  1.
     999900   -1    0    0    0    0 -0.00000000000E+00 -0.00000000000E+00 -0.74505805969E-08  0.93827000000E+00  0.93827000000E+00 0.  1.
     999902    2    1    2    0    0 -0.91679530910E-02  0.97628062177E-02 -0.53151771271E-02  0.10295211535E+01  0.10294203178E+01 0.  0.
     999903    2    3    3    0    0  0.10124637945E+00 -0.48495761884E-01  0.67628003266E-01  0.13772179651E+00  0.42321131078E-01 0.  0.
         14    1    1    2    0    0  0.91679530910E-02 -0.97628062177E-02  0.53151771271E-02  0.14408846485E-01  0.00000000000E+00 0.  1.
     999901    1    3    3    0    0 -0.11041433254E+00  0.58258568102E-01 -0.72943180393E-01  0.89179935700E+00  0.88000000000E+00 0.  1.
        -11    1    4    4    0    0  0.41261674206E-01 -0.30594196199E-01  0.52222867282E-01  0.73253119984E-01  0.51100000000E-03 0. -1.
         11    1    4    4    0    0  0.59984705246E-01 -0.17901565685E-01  0.15405135984E-01  0.64468676526E-01  0.51100000000E-03 0.  1.
</event>
<event>
 8    1  0.2928569E+004  0.1043930E+01  0.7957747E-01            NaN
         13   -1    0    0    0    0  0.00000000000E+00  0.00000000000E+00  0.74505805969E-08  0.10566000000E+00  0.10566000000E+00 0. -1.
     999900   -1    0    0    0    0 -0.00000000000E+00 -0.00000000000E+00 -0.74505805969E-08  0.93827000000E+00  0.93827000000E+00 0. -1.
     999902    2    1    2    0    0  0.45031765818E-02 -0.58335654822E-02  0.11853474367E-01  0.10299724236E+01  0.10298778468E+01 0.  0.
     999903    2    3    3    0    0 -0.87936327863E-01  0.82186972221E-01 -0.51871924767E-01  0.13848288154E+00  0.44713708622E-01 0.  0.
         14    1    1    2    0    0 -0.45031765818E-02  0.58335654822E-02 -0.11853474367E-01  0.13957576442E-01  0.00000000000E+00 0.  1.
     999901    1    3    3    0    0  0.92439504445E-01 -0.88020537703E-01  0.63725399134E-01  0.89148954202E+00  0.88000000000E+00 0. -1.
        -11    1    4    4    0    0 -0.31905699098E-01  0.60100408299E-01 -0.30573484820E-01  0.74599140797E-01  0.51100000000E-03 0. -1.
         11    1    4    4    0    0 -0.56030628765E-01  0.22086563922E-01 -0.21298439947E-01  0.63883740739E-01  0.51100000000E-03 0.  1.
</event>
<event>
 8    1  0.2928569E+004  0.1043930E+01  0.7957747E-01            NaN
         13   -1    0    0    0    0  0.00000000000E+00  0.00000000000E+00  0.74505805969E-08  0.10566000000E+00  0.10566000000E+00 0.  1.
     999900   -1    0    0    0    0 -0.00000000000E+00 -0.00000000000E+00 -0.74505805969E-08  0.93827000000E+00  0.93827000000E+00 0. -1.
     999902    2    1    2    0    0  0.81968132475E-03  0.10964495926E-01 -0.61826730968E-02  0.10313158217E+01  0.10312386758E+01 0.  0.
     999903    2    3    3    0    0 -0.24767994533E-01 -0.87353695814E-01  0.96314978570E-01  0.13956083033E+00  0.44232663710E-01 0.  0.
         14    1    1    2    0    0 -0.81968132475E-03 -0.10964495926E-01  0.61826730968E-02  0.12614178333E-01  0.00000000000E+00 0. -1.
     999901    1    3    3    0    0  0.25587675858E-01  0.98318191741E-01 -0.10249765167E+00  0.89175499134E+00  0.88000000000E+00 0. -1.
        -11    1    4    4    0    0 -0.43020925464E-02 -0.61891915025E-03  0.25113751383E-01  0.25492208431E-01  0.51100000000E-03 0.  1.
         11    1    4    4    0    0 -0.20465901986E-01 -0.86734776664E-01  0.71201227188E-01  0.11406862190E+00  0.51100000000E-03 0. -1.
</event>
<event>
 8    1  0.2928569E+004  0.1043930E+01  0.7957747E-01            NaN
         13   -1    0    0    0    0  0.00000000000E+00  0.00000000000E+00  0.74505805969E-08  0.10566000000E+00  0.10566000000E+00 0.  1.
     999900   -1    0    0    0    0 -0.00000000000E+00 -0.00000000000E+00 -0.74505805969E-08  0.93827000000E+00  0.93827000000E+00 0. -1.
     999902    2    1    2    0    0 -0.38092523599E-02 -0.12279154276E-01  0.47095600226E-02  0.10302381050E+01  0.10301471181E+01 0.  0.
     999903    2    3    3    0    0 -0.82190677348E-01  0.10039789199E+00  0.15452560350E-01  0.13953322873E+00  0.48945849064E-01 0.  0.
         14    1    1    2    0    0  0.38092523599E-02  0.12279154276E-01 -0.47095600226E-02  0.13691895007E-01  0.00000000000E+00 0.  1.
     999901    1    3    3    0    0  0.78381424988E-01 -0.11267704626E+00 -0.10743000327E-01  0.89070487626E+00  0.88000000000E+00 0.  1.
        -11    1    4    4    0    0 -0.55237231671E-02  0.40179262586E-01 -0.14605239595E-02  0.40586683911E-01  0.51100000000E-03 0. -1.
         11    1    4    4    0    0 -0.76666954181E-01  0.60218629402E-01  0.16913084309E-01  0.98946544822E-01  0.51100000000E-03 0.  1.
</event>
<event>
 8    1  0.2928569E+004  0.1043930E+01  0.7957747E-01            NaN
         13   -1    0    0    0    0  0.00000000000E+00  0.00000000000E+00  0.74505805969E-08  0.10566000000E+00  0.10566000000E+00 0.  1.
     999900   -1    0    0    0    0 -0.00000000000E+00 -0.00000000000E+00 -0.74505805969E-08  0.93827000000E+00  0.93827000000E+00 0.  1.
     999902    2    1    2    0    0  0.57880218841E-02 -0.11155920248E-01 -0.67128869770E-02  0.10296815402E+01  0.10295829523E+01 0.  0.
     999903    2    3    3    0    0  0.12010170650E+00  0.20951106351E-01  0.52595982893E-01  0.13972872032E+00  0.43524810197E-01 0.  0.
         14    1    1    2    0    0 -0.57880218841E-02  0.11155920248E-01  0.67128869770E-02  0.14248459758E-01  0.00000000000E+00 0.  1.
     999901    1    3    3    0    0 -0.11431368462E+00 -0.32107026600E-01 -0.59308869870E-01  0.88995281993E+00  0.88000000000E+00 0.  1.
        -11    1    4    4    0    0  0.74310710625E-01  0.12455430721E-01  0.54692809748E-01  0.93106304981E-01  0.51100000000E-03 0. -1.
         11    1    4    4    0    0  0.45790995878E-01  0.84956756301E-02 -0.20968268553E-02  0.46622415336E-01  0.51100000000E-03 0.  1.
</event>
<event>
 8    1  0.2928569E+004  0.1043930E+01  0.7957747E-01            NaN
         13   -1    0    0    0    0  0.00000000000E+00  0.00000000000E+00  0.74505805969E-08  0.10566000000E+00  0.10566000000E+00 0.  1.
     999900   -1    0    0    0    0 -0.00000000000E+00 -0.00000000000E+00 -0.74505805969E-08  0.93827000000E+00  0.93827000000E+00 0. -1.
     999902    2    1    2    0    0  0.11065241989E-01  0.36523290205E-02 -0.82767162566E-02  0.10296372354E+01  0.10295380291E+01 0.  0.
     999903    2    3    3    0    0  0.11361511023E+00 -0.50847896969E-01  0.46937516060E-01  0.14029176735E+00  0.44550506998E-01 0.  0.
         14    1    1    2    0    0 -0.11065241989E-01 -0.36523290205E-02  0.82767162566E-02  0.14292764587E-01  0.00000000000E+00 0. -1.
     999901    1    3    3    0    0 -0.10254986824E+00  0.54500225990E-01 -0.55214232317E-01  0.88934546806E+00  0.88000000000E+00 0. -1.
        -11    1    4    4    0    0  0.50400426863E-01 -0.32304869117E-01  0.44089189428E-01  0.74350019112E-01  0.51100000000E-03 0.  1.
         11    1    4    4    0    0  0.63214683369E-01 -0.18543027852E-01  0.28483266327E-02  0.65941748240E-01  0.51100000000E-03 0. -1.
</event>
<event>
 8    1  0.2928569E+004  0.1043930E+01  0.7957747E-01            NaN
         13   -1    0    0    0    0  0.00000000000E+00  0.00000000000E+00  0.74505805969E-08  0.10566000000E+00  0.10566000000E+00 0.  1.
     999900   -1    0    0    0    0 -0.00000000000E+00 -0.00000000000E+00 -0.74505805969E-08  0.93827000000E+00  0.93827000000E+00 0. -1.
     999902    2    1    2    0    0  0.31974664914E-02 -0.11771447459E-01 -0.43861078751E-02  0.10309674112E+01  0.10308859171E+01 0.  0.
     999903    2    3    3    0    0 -0.12700501135E+00  0.45080857388E-02 -0.40107589829E-01  0.14052160556E+00  0.44576979730E-01 0.  0.
         14    1    1    2    0    0 -0.31974664914E-02  0.11771447459E-01  0.43861078751E-02  0.12962588844E-01  0.00000000000E+00 0. -1.
     999901    1    3    3    0    0  0.13020247784E+00 -0.16279533198E-01  0.35721481954E-01  0.89044580560E+00  0.88000000000E+00 0.  1.
        -11    1    4    4    0    0 -0.29230672949E-01  0.18413852576E-01 -0.18161456755E-02  0.34598579651E-01  0.51100000000E-03 0.  1.
         11    1    4    4    0    0 -0.97774338399E-01 -0.13905766838E-01 -0.38291444154E-01  0.10592302591E+00  0.51100000000E-03 0. -1.
</event>
<event>
 8    1  0.2928569E+004  0.1043930E+01  0.7957747E-01            NaN
         13   -1    0    0    0    0  0.00000000000E+00  0.00000000000E+00  0.74505805969E-08  0.10566000000E+00  0.10566000000E+00 0. -1.
     999900   -1    0    0    0    0 -0.00000000000E+00 -0.00000000000E+00 -0.74505805969E-08  0.93827000000E+00  0.93827000000E+00 0.  1.
     999902    2    1    2    0    0 -0.12332256357E-01 -0.25427809829E-02  0.11087867670E-01  0.10271523037E+01  0.10270152696E+01 0.  0.
     999903    2    3    3    0    0  0.11661505903E+00 -0.17748634939E-01  0.52424753950E-01  0.13666515263E+00  0.44887894596E-01 0.  0.
         14    1    1    2    0    0  0.12332256357E-01  0.25427809829E-02 -0.11087867670E-01  0.16777696250E-01  0.00000000000E+00 0.  1.
     999901    1    3    3    0    0 -0.12894731539E+00  0.15205853956E-01 -0.41336886280E-01  0.89048715112E+00  0.88000000000E+00 0. -1.
        -11    1    4    4    0    0  0.77008596280E-01 -0.29505383929E-01  0.47192956248E-01  0.95017513239E-01  0.51100000000E-03 0.  1.
         11    1    4    4    0    0  0.39606462754E-01  0.11756748990E-01  0.52317977024E-02  0.41647639391E-01  0.51100000000E-03 0. -1.
</event>
<event>
 8    1  0.2928569E+004  0.1043930E+01  0.7957747E-01            NaN
         13   -1    0    0    0    0  0.00000000000E+00  0.00000000000E+00  0.74505805969E-08  0.10566000000E+00  0.10566000000E+00 0. -1.
     999900   -1    0    0    0    0 -0.00000000000E+00 -0.00000000000E+00 -0.74505805969E-08  0.93827000000E+00  0.93827000000E+00 0. -1.
     999902    2    1    2    0    0 -0.69297609324E-02  0.10405888339E-01  0.68732692633E-02  0.10296630477E+01  0.10295642019E+01 0.  0.
     999903    2    3    3    0    0 -0.10100267736E-01 -0.95503552666E-01  0.89722229955E-01  0.13944351738E+00  0.46599055899E-01 0.  0.
         14    1    1    2    0    0  0.69297609324E-02 -0.10405888339E-01 -0.68732692633E-02  0.14266952340E-01  0.00000000000E+00 0. -1.
     999901    1    3    3    0    0  0.31705068039E-02  0.10590944101E+00 -0.82848960691E-01  0.89021953028E+00  0.88000000000E+00 0. -1.
        -11    1    4    4    0    0  0.14824360900E-01 -0.59326671211E-01  0.39908259991E-01  0.73022913730E-01  0.51100000000E-03 0.  1.
         11    1    4    4    0    0 -0.24924628637E-01 -0.36176881454E-01  0.49813969964E-01  0.66420603648E-01  0.51100000000E-03 0. -1.
</event>
<event>
 7    1  0.2928569E+004  0.1043930E+01  0.7957747E-01            NaN
         13   -1    0    0    0    0  0.00000000000E+00  0.00000000000E+00  0.74505805969E-08  0.10566000000E+00  0.10566000000E+00 0.  1.
     999900   -1    0    0    0    0 -0.00000000000E+00 -0.00000000000E+00 -0.74505805969E-08  0.93827000000E+00  0.93827000000E+00 0. -1.
     999903    2    1    2    0    0  0.98068732876E-01  0.52781246142E-01 -0.40393510530E-01  0.12570494467E+00  0.42032857499E-01 0.  0.
         14    1    1    2    0    0  0.11123050143E-01 -0.73056450475E-02  0.27123376217E-01  0.30212120604E-01  0.00000000000E+00 0.  1.
     999901    1    1    2    0    0 -0.10919178302E+00 -0.45475601095E-01  0.13270134313E-01  0.88801293472E+00  0.88000000000E+00 0. -1.
        -11    1    3    3    0    0  0.84863825517E-01  0.58961488012E-01 -0.40826875126E-01  0.11110994917E+00  0.51100000000E-03 0. -1.
         11    1    3    3    0    0  0.13204907359E-01 -0.61802418702E-02  0.43336459559E-03  0.14594995506E-01  0.51100000000E-03 0.  1.
</event>
<event>
 8    1  0.2928569E+004  0.1043930E+01  0.7957747E-01            NaN
         13   -1    0    0    0    0  0.00000000000E+00  0.00000000000E+00  0.74505805969E-08  0.10566000000E+00  0.10566000000E+00 0.  1.
     999900   -1    0    0    0    0 -0.00000000000E+00 -0.00000000000E+00 -0.74505805969E-08  0.93827000000E+00  0.93827000000E+00 0. -1.
     999902    2    1    2    0    0 -0.16612850932E-01 -0.32394458721E-02  0.69406703086E-04  0.10270041132E+01  0.10268646274E+01 0.  0.
     999903    2    3    3    0    0  0.72300558040E-01  0.32736094460E-01  0.10083991482E+00  0.13607508738E+00  0.45262770684E-01 0.  0.
         14    1    1    2    0    0  0.16612850932E-01  0.32394458721E-02 -0.69406703086E-04  0.16925886769E-01  0.00000000000E+00 0. -1.
     999901    1    3    3    0    0 -0.88913408972E-01 -0.35975540333E-01 -0.10077050812E+00  0.89092902585E+00  0.88000000000E+00 0. -1.
        -11    1    4    4    0    0  0.25048860653E-01 -0.82284865435E-02  0.45388513564E-01  0.52493158557E-01  0.51100000000E-03 0.  1.
         11    1    4    4    0    0  0.47251697387E-01  0.40964581004E-01  0.55451401261E-01  0.83581928822E-01  0.51100000000E-03 0. -1.
</event>
<event>
 8    1  0.2928569E+004  0.1043930E+01  0.7957747E-01            NaN
         13   -1    0    0    0    0  0.00000000000E+00  0.00000000000E+00  0.74505805969E-08  0.10566000000E+00  0.10566000000E+00 0. -1.
     999900   -1    0    0    0    0 -0.00000000000E+00 -0.00000000000E+00 -0.74505805969E-08  0.93827000000E+00  0.93827000000E+00 0.  1.
     999902    2    1    2    0    0 -0.13430904272E-01  0.39530392553E-03  0.19894291341E-02  0.10303468014E+01  0.10302572630E+01 0.  0.
     999903    2    3    3    0    0  0.26741184828E-01 -0.60019301578E-01  0.11502251900E+00  0.14015569797E+00  0.45782444971E-01 0.  0.
         14    1    1    2    0    0  0.13430904272E-01 -0.39530392553E-03 -0.19894291341E-02  0.13583198557E-01  0.00000000000E+00 0.  1.
     999901    1    3    3    0    0 -0.40172089100E-01  0.60414605503E-01 -0.11303308987E+00  0.89019110347E+00  0.88000000000E+00 0. -1.
        -11    1    4    4    0    0  0.34657609938E-01 -0.34573459066E-01  0.50452149088E-01  0.70300458512E-01  0.51100000000E-03 0.  1.
         11    1    4    4    0    0 -0.79164251105E-02 -0.25445842512E-01  0.64570369913E-01  0.69855239456E-01  0.51100000000E-03 0. -1.
</event>
<event>
 8    1  0.2928569E+004  0.1043930E+01  0.7957747E-01            NaN
         13   -1    0    0    0    0  0.00000000000E+00  0.00000000000E+00  0.74505805969E-08  0.10566000000E+00  0.10566000000E+00 0. -1.
     999900   -1    0    0    0    0 -0.00000000000E+00 -0.00000000000E+00 -0.74505805969E-08  0.93827000000E+00  0.93827000000E+00 0.  1.
     999902    2    1    2    0    0  0.10386178453E-01  0.68207396358E-02 -0.46238527148E-02  0.10306719758E+01  0.10305867001E+01 0.  0.
     999903    2    3    3    0    0  0.12982657324E+00 -0.24887366442E-01 -0.24179210405E-01  0.14182225626E+00  0.45327673949E-01 0.  0.
         14    1    1    2    0    0 -0.10386178453E-01 -0.68207396358E-02  0.46238527148E-02  0.13258024211E-01  0.00000000000E+00 0. -1.
     999901    1    3    3    0    0 -0.11944039479E+00  0.31708106078E-01  0.19555357690E-01  0.88884971953E+00  0.88000000000E+00 0. -1.
        -11    1    4    4    0    0  0.65926754509E-01  0.16335384342E-02  0.62401391712E-02  0.66243534520E-01  0.51100000000E-03 0. -1.
         11    1    4    4    0    0  0.63899818734E-01 -0.26520904876E-01 -0.30419349576E-01  0.75578721736E-01  0.51100000000E-03 0.  1.
</event>
<event>
 8    1  0.2928569E+004  0.1043930E+01  0.7957747E-01            NaN
         13   -1    0    0    0    0  0.00000000000E+00  0.00000000000E+00  0.74505805969E-08  0.10566000000E+00  0.10566000000E+00 0.  1.
     999900   -1    0    0    0    0 -0.00000000000E+00 -0.00000000000E+00 -0.74505805969E-08  0.93827000000E+00  0.93827000000E+00 0.  1.
     999902    2    1    2    0    0  0.43640443077E-02 -0.11790599609E-01  0.62972250233E-02  0.10298687709E+01  0.10297727745E+01 0.  0.
     999903    2    3    3    0    0  0.13165007199E+00  0.17968613632E-01  0.10953414612E-02  0.14019781865E+00  0.44717066652E-01 0.  0.
         14    1    1    2    0    0 -0.43640443077E-02  0.11790599609E-01 -0.62972250233E-02  0.14061229138E-01  0.00000000000E+00 0. -1.
     999901    1    3    3    0    0 -0.12728602768E+00 -0.29759213242E-01  0.52018835621E-02  0.88967095221E+00  0.88000000000E+00 0.  1.
        -11    1    4    4    0    0  0.11803622242E+00  0.12332404641E-01  0.15376551340E-01  0.11967179057E+00  0.51100000000E-03 0.  1.
         11    1    4    4    0    0  0.13613849576E-01  0.56362089911E-02 -0.14281209879E-01  0.20526028078E-01  0.51100000000E-03 0. -1.
</event>
<event>
 8    1  0.2928569E+004  0.1043930E+01  0.7957747E-01            NaN
         13   -1    0    0    0    0  0.00000000000E+00  0.00000000000E+00  0.74505805969E-08  0.10566000000E+00  0.10566000000E+00 0. -1.
     999900   -1    0    0    0    0 -0.00000000000E+00 -0.00000000000E+00 -0.74505805969E-08  0.93827000000E+00  0.93827000000E+00 0. -1.
     999902    2    1    2    0    0 -0.26007496912E-02 -0.53149043881E-02 -0.57092307307E-02  0.10357076267E+01  0.10356749879E+01 0.  0.
     999903    2    3    3    0    0 -0.10600127098E+00  0.88388296999E-01 -0.69247717806E-02  0.14471187175E+00  0.42951284775E-01 0.  0.
         14    1    1    2    0    0  0.26007496912E-02  0.53149043881E-02  0.57092307307E-02  0.82223733281E-02  0.00000000000E+00 0. -1.
     999901    1    3    3    0    0  0.10340052129E+00 -0.93703201387E-01  0.12155410499E-02  0.89099575492E+00  0.88000000000E+00 0. -1.
        -11    1    4    4    0    0 -0.82538049715E-01  0.67218399774E-01  0.13168955682E-01  0.10725915082E+00  0.51100000000E-03 0. -1.
         11    1    4    4    0    0 -0.23463221269E-01  0.21169897225E-01 -0.20093727463E-01  0.37452720932E-01  0.51100000000E-03 0.  1.
</event>
<event>
 8    1  0.2928569E+004  0.1043930E+01  0.7957747E-01            NaN
         13   -1    0    0    0    0  0.00000000000E+00  0.00000000000E+00  0.74505805969E-08  0.10566000000E+00  0.10566000000E+00 0. -1.
     999900   -1    0    0    0    0 -0.00000000000E+00 -0.00000000000E+00 -0.74505805969E-08  0.93827000000E+00  0.93827000000E+00 0.  1.
     999902    2    1    2    0    0 -0.10213567435E-01 -0.11637335347E-01  0.41278098471E-02  0.10279055391E+01  0.10277806254E+01 0.  0.
     999903    2    3    3    0    0 -0.80900247082E-01 -0.10182992540E+00  0.26596835327E-01  0.14019152709E+00  0.45078697114E-01 0.  0.
         14    1    1    2    0    0  0.10213567435E-01  0.11637335347E-01 -0.41278098471E-02  0.16024460923E-01  0.00000000000E+00 0. -1.
     999901    1    3    3    0    0  0.70686679647E-01  0.90192590049E-01 -0.22469025480E-01  0.88771401199E+00  0.88000000000E+00 0. -1.
        -11    1    4    4    0    0 -0.18143629056E-01 -0.28037183586E-01 -0.12591007906E-01  0.35694110716E-01  0.51100000000E-03 0. -1.
         11    1    4    4    0    0 -0.62756618026E-01 -0.73792741810E-01  0.39187843232E-01  0.10449741637E+00  0.51100000000E-03 0.  1.
</event>
<event>
 8    1  0.2928569E+004  0.1043930E+01  0.7957747E-01            NaN
         13   -1    0    0    0    0  0.00000000000E+00  0.00000000000E+00  0.74505805969E-08  0.10566000000E+00  0.10566000000E+00 0.  1.
     999900   -1    0    0    0    0 -0.00000000000E+00 -0.00000000000E+00 -0.74505805969E-08  0.93827000000E+00  0.93827000000E+00 0.  1.
     999902    2    1    2    0    0 -0.15210839855E-03 -0.12562588263E-01  0.53128591445E-02  0.10302893170E+01  0.10301990140E+01 0.  0.
     999903    2    3    3    0    0 -0.57501280281E-01  0.92730749891E-01 -0.73011940735E-01  0.13871184483E+00  0.44775475399E-01 0.  0.
         14    1    1    2    0    0  0.15210839855E-03  0.12562588263E-01 -0.53128591445E-02  0.13640683015E-01  0.00000000000E+00 0. -1.
     999901    1    3    3    0    0  0.57349171883E-01 -0.10529333815E+00  0.78324799880E-01  0.89157747215E+00  0.88000000000E+00 0. -1.
        -11    1    4    4    0    0 -0.21609141920E-01  0.16081622556E-01 -0.39209893386E-01  0.47573631971E-01  0.51100000000E-03 0. -1.
         11    1    4    4    0    0 -0.35892138361E-01  0.76649127336E-01 -0.33802047349E-01  0.91138212861E-01  0.51100000000E-03 0.  1.
</event>
<event>
 8    1  0.2928569E+004  0.1043930E+01  0.7957747E-01            NaN
         13   -1    0    0    0    0  0.00000000000E+00  0.00000000000E+00  0.74505805969E-08  0.10566000000E+00  0.10566000000E+00 0. -1.
     999900   -1    0    0    0    0 -0.00000000000E+00 -0.00000000000E+00 -0.74505805969E-08  0.93827000000E+00  0.93827000000E+00 0.  1.
     999902    2    1    2    0    0 -0.13491908067E-01 -0.15370581309E-02 -0.26234468172E-02  0.10300997215E+01  0.10300068736E+01 0.  0.
     999903    2    3    3    0    0 -0.10334243559E+00 -0.29150003486E-01 -0.81043443024E-01  0.14162614963E+00  0.44278040895E-01 0.  0.
         14    1    1    2    0    0  0.13491908067E-01  0.15370581309E-02  0.26234468172E-02  0.13830278529E-01  0.00000000000E+00 0. -1.
     999901    1    3    3    0    0  0.89850527526E-01  0.27612945355E-01  0.78419996207E-01  0.88847357184E+00  0.88000000000E+00 0. -1.
        -11    1    4    4    0    0 -0.10516768067E+00 -0.31937873159E-01 -0.70552809442E-01  0.13060715463E+00  0.51100000000E-03 0. -1.
         11    1    4    4    0    0  0.18252450789E-02  0.27878696730E-02 -0.10490633582E-01  0.11018995003E-01  0.51100000000E-03 0.  1.
</event>
<event>
 8    1  0.2928569E+004  0.1043930E+01  0.7957747E-01            NaN
         13   -1    0    0    0    0  0.00000000000E+00  0.00000000000E+00  0.74505805969E-08  0.10566000000E+00  0.10566000000E+00 0.  1.
     999900   -1    0    0    0    0 -0.00000000000E+00 -0.00000000000E+00 -0.74505805969E-08  0.93827000000E+00  0.93827000000E+00 0. -1.
     999902    2    1    2    0    0  0.36873204292E-02  0.10840528218E-01  0.83330363541E-02  0.10297683306E+01  0.10296709484E+01 0.  0.
     999903    2    3    3    0    0  0.18015097974E-01 -0.11871469100E+00 -0.42911669975E-01  0.13869265487E+00  0.54557487838E-01 0.  0.
         14    1    1    2    0    0 -0.36873204292E-02 -0.10840528218E-01 -0.83330363541E-02  0.14161669353E-01  0.00000000000E+00 0.  1.
     999901    1    3    3    0    0 -0.14327777545E-01  0.12955521922E+00  0.51244706329E-01  0.89107567578E+00  0.88000000000E+00 0. -1.
        -11    1    4    4    0    0  0.11060458528E-01 -0.11357288555E+00 -0.52638135295E-01  0.12566689494E+00  0.51100000000E-03 0.  1.
         11    1    4    4    0    0  0.69546394459E-02 -0.51418054538E-02  0.97264653197E-02  0.13025759930E-01  0.51100000000E-03 0. -1.
</event>
<event>
 8    1  0.2928569E+004  0.1043930E+01  0.7957747E-01            NaN
         13   -1    0    0    0    0  0.00000000000E+00  0.00000000000E+00  0.74505805969E-08  0.10566000000E+00  0.10566000000E+00 0. -1.
     999900   -1    0    0    0    0 -0.00000000000E+00 -0.00000000000E+00 -0.74505805969E-08  0.93827000000E+00  0.93827000000E+00 0.  1.
     999902    2    1    2    0    0  0.17875862233E-02 -0.37577876811E-02  0.12317025097E-01  0.10309290177E+01  0.10308470372E+01 0.  0.
     999903    2    3    3    0    0  0.43040131597E-01  0.52550623072E-01  0.11648862774E+00  0.14203974880E+00  0.44628118189E-01 0.  0.
         14    1    1    2    0    0 -0.17875862233E-02  0.37577876811E-02 -0.12317025097E-01  0.13000982270E-01  0.00000000000E+00 0.  1.
     999901    1    3    3    0    0 -0.41252545373E-01 -0.56308410753E-01 -0.10417160264E+00  0.88888926893E+00  0.88000000000E+00 0.  1.
        -11    1    4    4    0    0  0.13458746521E-01  0.49645708085E-01  0.70270806989E-01  0.87086632872E-01  0.51100000000E-03 0. -1.
         11    1    4    4    0    0  0.29581385076E-01  0.29049149869E-02  0.46217820752E-01  0.54953115928E-01  0.51100000000E-03 0.  1.
</event>
<event>
 8    1  0.2928569E+004  0.1043930E+01  0.7957747E-01            NaN
         13   -1    0    0    0    0  0.00000000000E+00  0.00000000000E+00  0.74505805969E-08  0.10566000000E+00  0.10566000000E+00 0.  1.
     999900   -1    0    0    0    0 -0.00000000000E+00 -0.00000000000E+00 -0.74505805969E-08  0.93827000000E+00  0.93827000000E+00 0.  1.
     999902    2    1    2    0    0 -0.11545745250E-02 -0.11587940864E-01 -0.79788955579E-02  0.10298134781E+01  0.10297167200E+01 0.  0.
     999903    2    3    3    0    0  0.29850457370E-01  0.17812771068E-01 -0.12833532337E+00  0.14059394190E+00  0.45698541079E-01 0.  0.
         14    1    1    2    0    0  0.11545745250E-02  0.11587940864E-01  0.79788955579E-02  0.14116521885E-01  0.00000000000E+00 0.  1.
     999901    1    3    3    0    0 -0.31005031895E-01 -0.29400711932E-01  0.12035642781E+00  0.88921953621E+00  0.88000000000E+00 0. -1.
        -11    1    4    4    0    0  0.24282892992E-01  0.41126177822E-02 -0.21374526869E-01  0.32614475881E-01  0.51100000000E-03 0. -1.
         11    1    4    4    0    0  0.55675643783E-02  0.13700153286E-01 -0.10696079650E+00  0.10797946602E+00  0.51100000000E-03 0.  1.
</event>
<event>
 8    1  0.2928569E+004  0.1043930E+01  0.7957747E-01            NaN
         13   -1    0    0    0    0  0.00000000000E+00  0.00000000000E+00  0.74505805969E-08  0.10566000000E+00  0.10566000000E+00 0.  1.
     999900   -1    0    0    0    0 -0.00000000000E+00 -0.00000000000E+00 -0.74505805969E-08  0.93827000000E+00  0.93827000000E+00 0.  1.
     999902    2    1    2    0    0  0.80522308783E-02  0.95814977896E-02 -0.61444789480E-02  0.10299873265E+01  0.10298929530E+01 0.  0.
     999903    2    3    3    0    0 -0.12292194479E+00 -0.17275307246E-01 -0.44503014406E-01  0.13906258228E+00  0.44154759066E-01 0.  0.
         14    1    1    2    0    0 -0.80522308783E-02 -0.95814977896E-02  0.61444789480E-02  0.13942673472E-01  0.00000000000E+00 0.  1.
     999901    1    3    3    0    0  0.13097417567E+00  0.26856805035E-01  0.38358535458E-01  0.89092474425E+00  0.88000000000E+00 0. -1.
        -11    1    4    4    0    0 -0.81685632449E-02  0.10646098869E-01 -0.70315503173E-02  0.15158122162E-01  0.51100000000E-03 0. -1.
         11    1    4    4    0    0 -0.11475338154E+00 -0.27921406115E-01 -0.37471464089E-01  0.12390446012E+00  0.51100000000E-03 0.  1.
</event>
<event>
 8    1  0.2928569E+004  0.1043930E+01  0.7957747E-01            NaN
         13   -1    0    0    0    0  0.00000000000E+00  0.00000000000E+00  0.74505805969E-08  0.10566000000E+00  0.10566000000E+00 0.  1.
     999900   -1    0    0    0    0 -0.00000000000E+00 -0.00000000000E+00 -0.74505805969E-08  0.93827000000E+00  0.93827000000E+00 0. -1.
     999902    2    1    2    0    0 -0.12519937439E-01 -0.47997846438E-02 -0.51370441005E-02  0.10295711704E+01  0.10294710384E+01 0.  0.
     999903    2    3    3    0    0 -0.71605787984E-01  0.11117855841E+00 -0.82446223541E-02  0.13999162315E+00  0.45184289671E-01 0.  0.
         14    1    1    2    0    0  0.12519937439E-01  0.47997846438E-02  0.51370441005E-02  0.14358829625E-01  0.00000000000E+00 0. -1.
     999901    1    3    3    0    0  0.59085850545E-01 -0.11597834305E+00  0.31075782536E-02  0.88957954722E+00  0.88000000000E+00 0.  1.
        -11    1    4    4    0    0 -0.29406517814E-01  0.43534415722E-01 -0.25526078498E-01  0.58410876099E-01  0.51100000000E-03 0.  1.
         11    1    4    4    0    0 -0.42199270170E-01  0.67644142686E-01  0.17281456144E-01  0.81580747055E-01  0.51100000000E-03 0. -1.
</event>
<event>
 7    1  0.2928569E+004  0.1043930E+01  0.7957747E-01            NaN
         13   -1    0    0    0    0  0.00000000000E+00  0.00000000000E+00  0.74505805969E-08  0.10566000000E+00  0.10566000000E+00 0.  1.
     999900   -1    0    0    0    0 -0.00000000000E+00 -0.00000000000E+00 -0.74505805969E-08  0.93827000000E+00  0.93827000000E+00 0. -1.
     999902    2    1    2    0    0  0.18973934378E-02  0.13632584453E-01 -0.24615632329E-02  0.10299476270E+01  0.10298527116E+01 0.  0.
         14    1    1    2    0    0 -0.18973934378E-02 -0.13632584453E-01  0.24615632329E-02  0.13982372984E-01  0.00000000000E+00 0.  1.
     999901    1    3    3    0    0 -0.76165618918E-01  0.12776858471E-01 -0.10210952971E+00  0.88926419341E+00  0.88000000000E+00 0. -1.
        -11    1    3    3    0    0  0.79132076457E-01 -0.17316679540E-01  0.78969041058E-01  0.11312879157E+00  0.51100000000E-03 0.  1.
         11    1    3    3    0    0 -0.10690641006E-02  0.18172405521E-01  0.20678925423E-01  0.27554642043E-01  0.51100000000E-03 0. -1.
</event>
<event>
 8    1  0.2928569E+004  0.1043930E+01  0.7957747E-01            NaN
         13   -1    0    0    0    0  0.00000000000E+00  0.00000000000E+00  0.74505805969E-08  0.10566000000E+00  0.10566000000E+00 0. -1.
     999900   -1    0    0    0    0 -0.00000000000E+00 -0.00000000000E+00 -0.74505805969E-08  0.93827000000E+00  0.93827000000E+00 0.  1.
     999902    2    1    2    0    0 -0.12340176613E-01  0.11818646613E-01 -0.74296543319E-03  0.10268270072E+01  0.10266845622E+01 0.  0.
     999903    2    3    3    0    0 -0.54482958923E-01 -0.57573897955E-01 -0.10286757131E+00  0.13720867637E+00  0.44286985738E-01 0.  0.
         14    1    1    2    0    0  0.12340176613E-01 -0.11818646613E-01  0.74296543319E-03  0.17102992845E-01  0.00000000000E+00 0. -1.
     999901    1    3    3    0    0  0.42142782310E-01  0.69392544568E-01  0.10212460588E+00  0.88961833078E+00  0.88000000000E+00 0. -1.
        -11    1    4    4    0    0 -0.32247794928E-01 -0.59595596709E-01 -0.69588996994E-01  0.97131071488E-01  0.51100000000E-03 0.  1.
         11    1    4    4    0    0 -0.22235163995E-01  0.20216987537E-02 -0.33278574315E-01  0.40077604883E-01  0.51100000000E-03 0. -1.
</event>
<event>
 8    1  0.2928569E+004  0.1043930E+01  0.7957747E-01            NaN
         13   -1    0    0    0    0  0.00000000000E+00  0.00000000000E+00  0.74505805969E-08  0.10566000000E+00  0.10566000000E+00 0.  1.
     999900   -1    0    0    0    0 -0.00000000000E+00 -0.00000000000E+00 -0.74505805969E-08  0.93827000000E+00  0.93827000000E+00 0. -1.
     999902    2    1    2    0    0  0.47153005877E-02  0.14209403987E-02 -0.13954467831E-01  0.10291320169E+01  0.10290256206E+01 0.  0.
     999903    2    3    3    0    0 -0.59548224447E-01 -0.10885267541E+00  0.41079052798E-01  0.13822306567E+00  0.44980343762E-01 0.  0.
         14    1    1    2    0    0 -0.47153005877E-02 -0.14209403987E-02  0.13954467831E-01  0.14797983096E-01  0.00000000000E+00 0. -1.
     999901    1    3    3    0    0  0.64263525035E-01  0.11027361581E+00 -0.55033520630E-01  0.89090895123E+00  0.88000000000E+00 0. -1.
        -11    1    4    4    0    0 -0.60354760507E-02 -0.42414322850E-01  0.29756291334E-01  0.52164161538E-01  0.51100000000E-03 0.  1.
         11    1    4    4    0    0 -0.53512748396E-01 -0.66438352564E-01  0.11322761464E-01  0.86058904133E-01  0.51100000000E-03 0. -1.
</event>
<event>
 8    1  0.2928569E+004  0.1043930E+01  0.7957747E-01            NaN
         13   -1    0    0    0    0  0.00000000000E+00  0.00000000000E+00  0.74505805969E-08  0.10566000000E+00  0.10566000000E+00 0. -1.
     999900   -1    0    0    0    0 -0.00000000000E+00 -0.00000000000E+00 -0.74505805969E-08  0.93827000000E+00  0.93827000000E+00 0. -1.
     999902    2    1    2    0    0 -0.12130986853E-01  0.78029550839E-03 -0.61007952971E-02  0.10303289189E+01  0.10302391430E+01 0.  0.
     999903    2    3    3    0    0 -0.21990035033E-01 -0.51230900815E-02  0.13052571042E+00  0.13971179981E+00  0.44414167041E-01 0.  0.
         14    1    1    2    0    0  0.12130986853E-01 -0.78029550839E-03  0.61007952971E-02  0.13601081073E-01  0.00000000000E+00 0. -1.
     999901    1    3    3    0    0  0.98590481797E-02  0.59033855899E-02 -0.13662650572E+00  0.89061711911E+00  0.88000000000E+00 0. -1.
        -11    1    4    4    0    0 -0.74556058131E-02  0.11348447049E-01  0.91934286246E-02  0.16405900138E-01  0.51100000000E-03 0. -1.
         11    1    4    4    0    0 -0.14534429220E-01 -0.16471537131E-01  0.12133228180E+00  0.12330589968E+00  0.51100000000E-03 0.  1.
</event>
<event>
 8    1  0.2928569E+004  0.1043930E+01  0.7957747E-01            NaN
         13   -1    0    0    0    0  0.00000000000E+00  0.00000000000E+00  0.74505805969E-08  0.10566000000E+00  0.10566000000E+00 0. -1.
     999900   -1    0    0    0    0 -0.00000000000E+00 -0.00000000000E+00 -0.74505805969E-08  0.93827000000E+00  0.93827000000E+00 0.  1.
     999902    2    1    2    0    0  0.60863655538E-02 -0.14551558695E-02  0.12792069159E-01  0.10296892712E+01  0.10295907909E+01 0.  0.
     999903    2    3    3    0    0  0.53808503923E-01 -0.57966123680E-01 -0.10387485101E+00  0.13891317010E+00  0.47449526508E-01 0.  0.
         14    1    1    2    0    0 -0.60863655538E-02  0.14551558695E-02 -0.12792069159E-01  0.14240728831E-01  0.00000000000E+00 0.  1.
     999901    1    3    3    0    0 -0.47722138369E-01  0.56510967810E-01  0.11666692017E+00  0.89077610107E+00  0.88000000000E+00 0. -1.
        -11    1    4    4    0    0  0.12608586717E-01 -0.13281193183E-02  0.10798890227E-02  0.12734505928E-01  0.51100000000E-03 0.  1.
         11    1    4    4    0    0  0.41199917206E-01 -0.56638004361E-01 -0.10495474003E+00  0.12617866417E+00  0.51100000000E-03 0. -1.
</event>
<event>
 8    1  0.2928569E+004  0.1043930E+01  0.7957747E-01            NaN
         13   -1    0    0    0    0  0.00000000000E+00  0.00000000000E+00  0.74505805969E-08  0.10566000000E+00  0.10566000000E+00 0. -1.
     999900   -1    0    0    0    0 -0.00000000000E+00 -0.00000000000E+00 -0.74505805969E-08  0.93827000000E+00  0.93827000000E+00 0. -1.
     999902    2    1    2    0    0  0.34592990843E-02 -0.12738262313E-01 -0.12330369444E-02  0.10306729092E+01  0.10305876456E+01 0.  0.
     999903    2    3    3    0    0 -0.56475637464E-01 -0.17818627370E-01 -0.11948654495E+00  0.14072802387E+00  0.44948205414E-01 0.  0.
         14    1    1    2    0    0 -0.34592990843E-02  0.12738262313E-01  0.12330369444E-02  0.13257090821E-01  0.00000000000E+00 0. -1.
     999901    1    3    3    0    0  0.59934936548E-01  0.50803650568E-02  0.11825350801E+00  0.88994488531E+00  0.88000000000E+00 0. -1.
        -11    1    4    4    0    0 -0.48119032029E-01 -0.19358174474E-01 -0.54692279666E-01  0.75376964243E-01  0.51100000000E-03 0.  1.
         11    1    4    4    0    0 -0.83566054352E-02  0.15395471039E-02 -0.64794265286E-01  0.65351059629E-01  0.51100000000E-03 0. -1.
</event>
<event>
 8    1  0.2928569E+004  0.1043930E+01  0.7957747E-01            NaN
         13   -1    0    0    0    0  0.00000000000E+00  0.00000000000E+00  0.74505805969E-08  0.10566000000E+00  0.10566000000E+00 0. -1.
     999900   -1    0    0    0    0 -0.00000000000E+00 -0.00000000000E+00 -0.74505805969E-08  0.93827000000E+00  0.93827000000E+00 0.  1.
     999902    2    1    2    0    0  0.60120916001E-02 -0.89363449446E-02  0.67781003226E-02  0.10312041935E+01  0.10311256677E+01 0.  0.
     999903    2    3    3    0    0 -0.61757528575E-01 -0.11611403591E+00 -0.24446942397E-01  0.14156674931E+00  0.46336053436E-01 0.  0.
         14    1    1    2    0    0 -0.60120916001E-02  0.89363449446E-02 -0.67781003226E-02  0.12725806472E-01  0.00000000000E+00 0.  1.
     999901    1    3    3    0    0  0.67769620175E-01  0.10717769096E+00  0.31225042719E-01  0.88963744422E+00  0.88000000000E+00 0.  1.
        -11    1    4    4    0    0 -0.29774322578E-01 -0.55418587717E-01  0.11741996406E-01  0.63998951165E-01  0.51100000000E-03 0.  1.
         11    1    4    4    0    0 -0.31983205997E-01 -0.60695448189E-01 -0.36188938803E-01  0.77567798147E-01  0.51100000000E-03 0. -1.
</event>
<event>
 8    1  0.2928569E+004  0.1043930E+01  0.7957747E-01            NaN
         13   -1    0    0    0    0  0.00000000000E+00  0.00000000000E+00  0.74505805969E-08  0.10566000000E+00  0.10566000000E+00 0.  1.
     999900   -1    0    0    0    0 -0.00000000000E+00 -0.00000000000E+00 -0.74505805969E-08  0.93827000000E+00  0.93827000000E+00 0.  1.
     999902    2    1    2    0    0  0.46179013142E-02 -0.18036204521E-01  0.15481664163E-02  0.10252477489E+01  0.10250775191E+01 0.  0.
     999903    2    3    3    0    0 -0.43237282782E-01  0.11464915418E+00  0.29392395721E-01  0.13358030858E+00  0.44338411535E-01 0.  0.
         14    1    1    2    0    0 -0.46179013142E-02  0.18036204521E-01 -0.15481664163E-02  0.18682251078E-01  0.00000000000E+00 0.  1.
     999901    1    3    3    0    0  0.47855184096E-01 -0.13268535870E+00 -0.27844229305E-01  0.89166744034E+00  0.88000000000E+00 0.  1.
        -11    1    4    4    0    0 -0.38619128918E-01  0.40518544773E-01  0.14522624074E-01  0.57830418639E-01  0.51100000000E-03 0. -1.
         11    1    4    4    0    0 -0.46181538633E-02  0.74130609409E-01  0.14869771647E-01  0.75749889942E-01  0.51100000000E-03 0.  1.
</event>
<event>
 8    1  0.2928569E+004  0.1043930E+01  0.7957747E-01            NaN
         13   -1    0    0    0    0  0.00000000000E+00  0.00000000000E+00  0.74505805969E-08  0.10566000000E+00  0.10566000000E+00 0.  1.
     999900   -1    0    0    0    0 -0.00000000000E+00 -0.00000000000E+00 -0.74505805969E-08  0.93827000000E+00  0.93827000000E+00 0.  1.
     999902    2    1    2    0    0  0.97178370925E-02  0.93806516332E-02 -0.66009570493E-03  0.10304071043E+01  0.10303183643E+01 0.  0.
     999903    2    3    3    0    0  0.12729368293E+00  0.16254275430E-01 -0.40096813210E-01  0.14168522374E+00  0.44710904862E-01 0.  0.
         14    1    1    2    0    0 -0.97178370925E-02 -0.93806516332E-02  0.66009570493E-03  0.13522895739E-01  0.00000000000E+00 0. -1.
     999901    1    3    3    0    0 -0.11757584584E+00 -0.68736237972E-02  0.39436717505E-01  0.88872188052E+00  0.88000000000E+00 0. -1.
        -11    1    4    4    0    0  0.66099937547E-01 -0.67044355464E-02 -0.29512355165E-02  0.66506556908E-01  0.51100000000E-03 0. -1.
         11    1    4    4    0    0  0.61193745382E-01  0.22958710977E-01 -0.37145577693E-01  0.75178666833E-01  0.51100000000E-03 0.  1.
</event>
<event>
 8    1  0.2928569E+004  0.1043930E+01  0.7957747E-01            NaN
         13   -1    0    0    0    0  0.00000000000E+00  0.00000000000E+00  0.74505805969E-08  0.10566000000E+00  0.10566000000E+00 0. -1.
     999900   -1    0    0    0    0 -0.00000000000E+00 -0.00000000000E+00 -0.74505805969E-08  0.93827000000E+00  0.93827000000E+00 0. -1.
     999902    2    1    2    0    0 -0.29060724522E-02  0.92936123726E-02 -0.98349203418E-02  0.10300901248E+01  0.10299971471E+01 0.  0.
     999903    2    3    3    0    0 -0.75082902465E-01  0.92586185855E-01  0.58801537614E-01  0.14056322190E+00  0.45724768677E-01 0.  0.
         14    1    1    2    0    0  0.29060724522E-02 -0.92936123726E-02  0.98349203418E-02  0.13839875222E-01  0.00000000000E+00 0. -1.
     999901    1    3    3    0    0  0.72176830013E-01 -0.83292573482E-01 -0.68636457956E-01  0.88952690288E+00  0.88000000000E+00 0. -1.
        -11    1    4    4    0    0 -0.32704244074E-01  0.19054760034E-01  0.37008232332E-01  0.52938850023E-01  0.51100000000E-03 0. -1.
         11    1    4    4    0    0 -0.42378658391E-01  0.73531425821E-01  0.21793305283E-01  0.87624371874E-01  0.51100000000E-03 0.  1.
</event>
<event>
 8    1  0.2928569E+004  0.1043930E+01  0.7957747E-01            NaN
         13   -1    0    0    0    0  0.00000000000E+00  0.00000000000E+00  0.74505805969E-08  0.10566000000E+00  0.10566000000E+00 0. -1.
     999900   -1    0    0    0    0 -0.00000000000E+00 -0.00000000000E+00 -0.74505805969E-08  0.93827000000E+00  0.93827000000E+00 0. -1.
     999902    2    1    2    0    0  0.47186944927E-03 -0.13787953503E-01 -0.50423678243E-03  0.10301247627E+01  0.10300322530E+01 0.  0.
     999903    2    3    3    0    0  0.76532982733E-01  0.10340359157E+00  0.26602369921E-01  0.13869113122E+00  0.44474077816E-01 0.  0.
         14    1    1    2    0    0 -0.47186944927E-03  0.13787953503E-01  0.50423678243E-03  0.13805237314E-01  0.00000000000E+00 0. -1.
     999901    1    3    3    0    0 -0.76061113283E-01 -0.11719154507E+00 -0.27106606704E-01  0.89143363147E+00  0.88000000000E+00 0.  1.
        -11    1    4    4    0    0  0.78107608344E-01  0.79192729536E-01  0.16688959949E-01  0.11247697274E+00  0.51100000000E-03 0. -1.
         11    1    4    4    0    0 -0.15746256110E-02  0.24210862031E-01  0.99134099723E-02  0.26214158471E-01  0.51100000000E-03 0.  1.
</event>
<event>
 8    1  0.2928569E+004  0.1043930E+01  0.7957747E-01            NaN
         13   -1    0    0    0    0  0.00000000000E+00  0.00000000000E+00  0.74505805969E-08  0.10566000000E+00  0.10566000000E+00 0.  1.
     999900   -1    0    0    0    0 -0.00000000000E+00 -0.00000000000E+00 -0.74505805969E-08  0.93827000000E+00  0.93827000000E+00 0. -1.
     999902    2    1    2    0    0 -0.90808506112E-02 -0.80555146042E-02 -0.63335041674E-02  0.10302381616E+01  0.10301471755E+01 0.  0.
     999903    2    3    3    0    0 -0.43611233196E-01  0.14656941551E-01  0.12385108744E+00  0.13970111529E+00  0.45393217074E-01 0.  0.
         14    1    1    2    0    0  0.90808506112E-02  0.80555146042E-02  0.63335041674E-02  0.13691838386E-01  0.00000000000E+00 0.  1.
     999901    1    3    3    0    0  0.34530382585E-01 -0.22712456155E-01 -0.13018459161E+00  0.89053704633E+00  0.88000000000E+00 0. -1.
        -11    1    4    4    0    0 -0.39011237378E-01 -0.82991677776E-02  0.63766811965E-01  0.75214494991E-01  0.51100000000E-03 0. -1.
         11    1    4    4    0    0 -0.45999958174E-02  0.22956109329E-01  0.60084275474E-01  0.64486620297E-01  0.51100000000E-03 0.  1.
</event>
<event>
 8    1  0.2928569E+004  0.1043930E+01  0.7957747E-01            NaN
         13   -1    0    0    0    0  0.00000000000E+00  0.00000000000E+00  0.74505805969E-08  0.10566000000E+00  0.10566000000E+00 0. -1.
     999900   -1    0    0    0    0 -0.00000000000E+00 -0.00000000000E+00 -0.74505805969E-08  0.93827000000E+00  0.93827000000E+00 0.  1.
     999902    2    1    2    0    0 -0.11913804674E-01  0.52817723669E-02 -0.40924814185E-02  0.10302704149E+01  0.10301798598E+01 0.  0.
     999903    2    3    3    0    0 -0.34563943023E-01 -0.79736259481E-01 -0.10073799084E+00  0.14061798332E+00  0.45527323674E-01 0.  0.
         14    1    1    2    0    0  0.11913804674E-01 -0.52817723669E-02  0.40924814185E-02  0.13659585107E-01  0.00000000000E+00 0. -1.
     999901    1    3    3    0    0  0.22650138349E-01  0.85018031848E-01  0.96645509426E-01  0.88965243157E+00  0.88000000000E+00 0. -1.
        -11    1    4    4    0    0 -0.52441460934E-02 -0.62527636480E-01 -0.53775975399E-01  0.82639718315E-01  0.51100000000E-03 0. -1.
         11    1    4    4    0    0 -0.29319796929E-01 -0.17208623001E-01 -0.46962015446E-01  0.57978265007E-01  0.51100000000E-03 0.  1.
</event>
<event>
 8    1  0.2928569E+004  0.1043930E+01  0.7957747E-01            NaN
         13   -1    0    0    0    0  0.00000000000E+00  0.00000000000E+00  0.74505805969E-08  0.10566000000E+00  0.10566000000E+00 0.  1.
     999900   -1    0    0    0    0 -0.00000000000E+00 -0.00000000000E+00 -0.74505805969E-08  0.93827000000E+00  0.93827000000E+00 0. -1.
     999902    2    1    2    0    0  0.42235456583E-02 -0.29804439112E-03  0.15569004361E-01  0.10277955318E+01  0.10276688835E+01 0.  0.
     999903    2    3    3    0    0  0.44708597172E-01 -0.68797635463E-01  0.10300307715E+00  0.13989015930E+00  0.47197981526E-01 0.  0.
         14    1    1    2    0    0 -0.42235456583E-02  0.29804439112E-03 -0.15569004361E-01  0.16134468233E-01  0.00000000000E+00 0. -1.
     999901    1    3    3    0    0 -0.40485051513E-01  0.68499591071E-01 -0.87434072788E-01  0.88790537247E+00  0.88000000000E+00 0. -1.
        -11    1    4    4    0    0  0.29441375458E-01 -0.71448853427E-01  0.73958899461E-01  0.10696687887E+00  0.51100000000E-03 0.  1.
         11    1    4    4    0    0  0.15267221713E-01  0.26512179648E-02  0.29044177688E-01  0.32923280427E-01  0.51100000000E-03 0. -1.
</event>
<event>
 8    1  0.2928569E+004  0.1043930E+01  0.7957747E-01            NaN
         13   -1    0    0    0    0  0.00000000000E+00  0.00000000000E+00  0.74505805969E-08  0.10566000000E+00  0.10566000000E+00 0.  1.
     999900   -1    0    0    0    0 -0.00000000000E+00 -0.00000000000E+00 -0.74505805969E-08  0.93827000000E+00  0.93827000000E+00 0. -1.
     999902    2    1    2    0    0  0.17289721902E-02  0.24244163242E-02  0.13716575907E-01  0.10298939181E+01  0.10297982672E+01 0.  0.
     999903    2    3    3    0    0  0.34583439936E-01 -0.12606776103E+00 -0.17647529934E-01  0.13940340004E+00  0.45086338734E-01 0.  0.
         14    1    1    2    0    0 -0.17289721902E-02 -0.24244163242E-02 -0.13716575907E-01  0.14036081859E-01  0.00000000000E+00 0. -1.
     999901    1    3    3    0    0 -0.32854467746E-01  0.12849217736E+00  0.31364105841E-01  0.89049051810E+00  0.88000000000E+00 0.  1.
        -11    1    4    4    0    0  0.12656648205E-01 -0.70938918582E-01  0.12038533198E-01  0.73059621652E-01  0.51100000000E-03 0.  1.
         11    1    4    4    0    0  0.21926791731E-01 -0.55128842450E-01 -0.29686063132E-01  0.66343778388E-01  0.51100000000E-03 0. -1.
</event>
<event>
 8    1  0.2928569E+004  0.1043930E+01  0.7957747E-01            NaN
         13   -1    0    0    0    0  0.00000000000E+00  0.00000000000E+00  0.74505805969E-08  0.10566000000E+00  0.10566000000E+00 0.  1.
     999900   -1    0    0    0    0 -0.00000000000E+00 -0.00000000000E+00 -0.74505805969E-08  0.93827000000E+00  0.93827000000E+00 0.  1.
     999902    2    1    2    0    0 -0.86592992867E-02 -0.12356784582E-02  0.10025776534E-01  0.10306248671E+01  0.10305389804E+01 0.  0.
     999903    2    3    3    0    0 -0.91981149604E-01  0.77087594520E-01  0.60820897622E-01  0.14177324276E+00  0.44692747331E-01 0.  0.
         14    1    1    2    0    0  0.86592992867E-02  0.12356784582E-02 -0.10025776534E-01  0.13305132863E-01  0.00000000000E+00 0. -1.
     999901    1    3    3    0    0  0.83321850317E-01 -0.78323272978E-01 -0.50795121087E-01  0.88885162438E+00  0.88000000000E+00 0.  1.
        -11    1    4    4    0    0 -0.59453857685E-01  0.26282920799E-01  0.46048299391E-01  0.79663417684E-01  0.51100000000E-03 0. -1.
         11    1    4    4    0    0 -0.32527291919E-01  0.50804673722E-01  0.14772598231E-01  0.62109825076E-01  0.51100000000E-03 0.  1.
</event>
<event>
 8    1  0.2928569E+004  0.1043930E+01  0.7957747E-01            NaN
         13   -1    0    0    0    0  0.00000000000E+00  0.00000000000E+00  0.74505805969E-08  0.10566000000E+00  0.10566000000E+00 0.  1.
     999900   -1    0    0    0    0 -0.00000000000E+00 -0.00000000000E+00 -0.74505805969E-08  0.93827000000E+00  0.93827000000E+00 0.  1.
     999902    2    1    2    0    0  0.10736876182E-01 -0.78974764567E-02 -0.37931741447E-02  0.10300721930E+01  0.10299789726E+01 0.  0.
     999903    2    3    3    0    0 -0.12168778842E+00  0.43852139619E-01 -0.18680459510E-01  0.13853646976E+00  0.45961569660E-01 0.  0.
         14    1    1    2    0    0 -0.10736876182E-01  0.78974764567E-02  0.37931741447E-02  0.13857806992E-01  0.00000000000E+00 0.  1.
     999901    1    3    3    0    0  0.13242466461E+00 -0.51749616075E-01  0.14887285366E-01  0.89153572325E+00  0.88000000000E+00 0. -1.
        -11    1    4    4    0    0 -0.27799279424E-01  0.31305538079E-01  0.57834939745E-03  0.41874004584E-01  0.51100000000E-03 0.  1.
         11    1    4    4    0    0 -0.93888509001E-01  0.12546601540E-01 -0.19258808908E-01  0.96662465177E-01  0.51100000000E-03 0. -1.
</event>
<event>
 8    1  0.2928569E+004  0.1043930E+01  0.7957747E-01            NaN
         13   -1    0    0    0    0  0.00000000000E+00  0.00000000000E+00  0.74505805969E-08  0.10566000000E+00  0.10566000000E+00 0.  1.
     999900   -1    0    0    0    0 -0.00000000000E+00 -0.00000000000E+00 -0.74505805969E-08  0.93827000000E+00  0.93827000000E+00 0.  1.
     999902    2    1    2    0    0 -0.12377115643E-01  0.56809482861E-02  0.20227279177E-02  0.10301620084E+01  0.10300700005E+01 0.  0.
     999903    2    3    3    0    0  0.10025512884E+00  0.65244526974E-01 -0.55255077434E-01  0.13914315931E+00  0.44718631931E-01 0.  0.
         14    1    1    2    0    0  0.12377115643E-01 -0.56809482861E-02 -0.20227279177E-02  0.13767991622E-01  0.00000000000E+00 0. -1.
     999901    1    3    3    0    0 -0.11263224449E+00 -0.59563578688E-01  0.57277805351E-01  0.89101884907E+00  0.88000000000E+00 0. -1.
        -11    1    4    4    0    0  0.20274928536E-01  0.37916355200E-01 -0.22149565693E-01  0.48369278475E-01  0.51100000000E-03 0. -1.
         11    1    4    4    0    0  0.79980200307E-01  0.27328171774E-01 -0.33105511741E-01  0.90773880838E-01  0.51100000000E-03 0.  1.
</event>
<event>
 8    1  0.2928569E+004  0.1043930E+01  0.7957747E-01            NaN
         13   -1    0    0    0    0  0.00000000000E+00  0.00000000000E+00  0.74505805969E-08  0.10566000000E+00  0.10566000000E+00 0. -1.
     999900   -1    0    0    0    0 -0.00000000000E+00 -0.00000000000E+00 -0.74505805969E-08  0.93827000000E+00  0.93827000000E+00 0.  1.
     999902    2    1    2    0    0  0.80705281311E-02  0.17230703206E-02  0.10515685481E-01  0.10305628000E+01  0.10304761048E+01 0.  0.
     999903    2    3    3    0    0  0.30526372200E-01  0.11665568248E+00 -0.55991476518E-01  0.14031734344E+00  0.44872082310E-01 0.  0.
         14    1    1    2    0    0 -0.80705281311E-02 -0.17230703206E-02 -0.10515685481E-01  0.13367200035E-01  0.00000000000E+00 0.  1.
     999901    1    3    3    0    0 -0.22455844069E-01 -0.11493261216E+00  0.66507162000E-01  0.89024545653E+00  0.88000000000E+00 0. -1.
        -11    1    4    4    0    0  0.34089595096E-01  0.50379374136E-01 -0.37321197634E-01  0.71367462797E-01  0.51100000000E-03 0. -1.
         11    1    4    4    0    0 -0.35632228960E-02  0.66276308348E-01 -0.18670278884E-01  0.68949880640E-01  0.51100000000E-03 0.  1.
</event>
<event>
 8    1  0.2928569E+004  0.1043930E+01  0.7957747E-01            NaN
         13   -1    0    0    0    0  0.00000000000E+00  0.00000000000E+00  0.74505805969E-08  0.10566000000E+00  0.10566000000E+00 0.  1.
     999900   -1    0    0    0    0 -0.00000000000E+00 -0.00000000000E+00 -0.74505805969E-08  0.93827000000E+00  0.93827000000E+00 0.  1.
     999902    2    1    2    0    0 -0.47142965322E-02  0.64506880255E-02  0.10940531990E-01  0.10303826310E+01  0.10302935674E+01 0.  0.
     999903    2    3    3    0    0 -0.52009507296E-01 -0.11141312642E+00 -0.49534178878E-01  0.13921154392E+00  0.42524645744E-01 0.  0.
         14    1    1    2    0    0  0.47142965322E-02 -0.64506880255E-02 -0.10940531990E-01  0.13547369044E-01  0.00000000000E+00 0. -1.
     999901    1    3    3    0    0  0.47295210764E-01  0.11786381444E+00  0.60474710868E-01  0.89117108704E+00  0.88000000000E+00 0. -1.
        -11    1    4    4    0    0 -0.29260863693E-01 -0.65603128325E-01 -0.60733085474E-02  0.72091017387E-01  0.51100000000E-03 0. -1.
         11    1    4    4    0    0 -0.22748643604E-01 -0.45809998093E-01 -0.43460870330E-01  0.67120526532E-01  0.51100000000E-03 0.  1.
</event>
<event>
 8    1  0.2928569E+004  0.1043930E+01  0.7957747E-01            NaN
         13   -1    0    0    0    0  0.00000000000E+00  0.00000000000E+00  0.74505805969E-08  0.10566000000E+00  0.10566000000E+00 0.  1.
     999900   -1    0    0    0    0 -0.00000000000E+00 -0.00000000000E+00 -0.74505805969E-08  0.93827000000E+00  0.93827000000E+00 0. -1.
     999902    2    1    2    0    0 -0.12404331222E-01 -0.57679612162E-02 -0.67683062975E-02  0.10286674059E+01  0.10285541722E+01 0.  0.
     999903    2    3    3    0    0 -0.12821298794E+00 -0.41138640236E-01  0.31350353261E-02  0.14032017303E+00  0.39356886517E-01 0.  0.
         14    1    1    2    0    0  0.12404331222E-01  0.57679612162E-02  0.67683062975E-02  0.15262594137E-01  0.00000000000E+00 0.  1.
     999901    1    3    3    0    0  0.11580865672E+00  0.35370679019E-01 -0.99033416237E-02  0.88834723283E+00  0.88000000000E+00 0. -1.
        -11    1    4    4    0    0 -0.66603890830E-01 -0.12752631937E-01 -0.16315712850E-01  0.69750781371E-01  0.51100000000E-03 0. -1.
         11    1    4    4    0    0 -0.61609097109E-01 -0.28386008299E-01  0.19450748176E-01  0.70569391661E-01  0.51100000000E-03 0.  1.
</event>
<event>
 8    1  0.2928569E+004  0.1043930E+01  0.7957747E-01            NaN
         13   -1    0    0    0    0  0.00000000000E+00  0.00000000000E+00  0.74505805969E-08  0.10566000000E+00  0.10566000000E+00 0. -1.
     999900   -1    0    0    0    0 -0.00000000000E+00 -0.00000000000E+00 -0.74505805969E-08  0.93827000000E+00  0.93827000000E+00 0.  1.
     999902    2    1    2    0    0  0.17063254023E-02 -0.42924804758E-02 -0.11656474445E-01  0.10313916456E+01  0.10313154300E+01 0.  0.
     999903    2    3    3    0    0  0.32692744658E-01  0.63691852909E-01  0.11173615201E+00  0.13964741766E+00  0.43485237896E-01 0.  0.
         14    1    1    2    0    0 -0.17063254023E-02  0.42924804758E-02  0.11656474445E-01  0.12538354418E-01  0.00000000000E+00 0. -1.
     999901    1    3    3    0    0 -0.30986419255E-01 -0.67984333385E-01 -0.12339262645E+00  0.89174422792E+00  0.88000000000E+00 0.  1.
        -11    1    4    4    0    0  0.42582471735E-02  0.93895301714E-02  0.55528953900E-01  0.56480277869E-01  0.51100000000E-03 0. -1.
         11    1    4    4    0    0  0.28434497484E-01  0.54302322738E-01  0.56207198105E-01  0.83167139795E-01  0.51100000000E-03 0.  1.
</event>
<event>
 8    1  0.2928569E+004  0.1043930E+01  0.7957747E-01            NaN
         13   -1    0    0    0    0  0.00000000000E+00  0.00000000000E+00  0.74505805969E-08  0.10566000000E+00  0.10566000000E+00 0. -1.
     999900   -1    0    0    0    0 -0.00000000000E+00 -0.00000000000E+00 -0.74505805969E-08  0.93827000000E+00  0.93827000000E+00 0. -1.
     999902    2    1    2    0    0  0.36521108629E-02  0.92117106483E-02 -0.11063026074E-01  0.10290779270E+01  0.10289707458E+01 0.  0.
     999903    2    3    3    0    0  0.77003889088E-01 -0.10699971166E+00 -0.17819005520E-02  0.13836376558E+00  0.41985940805E-01 0.  0.
         14    1    1    2    0    0 -0.36521108629E-02 -0.92117106483E-02  0.11063026074E-01  0.14852073011E-01  0.00000000000E+00 0. -1.
     999901    1    3    3    0    0 -0.73351778225E-01  0.11621142231E+00 -0.92811255220E-02  0.89071416141E+00  0.88000000000E+00 0. -1.
        -11    1    4    4    0    0  0.52763283763E-01 -0.59671136053E-01 -0.20043743282E-01  0.82137819286E-01  0.51100000000E-03 0. -1.
         11    1    4    4    0    0  0.24240605326E-01 -0.47328575609E-01  0.18261842730E-01  0.56225946293E-01  0.51100000000E-03 0.  1.
</event>
<event>
 8    1  0.2928569E+004  0.1043930E+01  0.7957747E-01            NaN
         13   -1    0    0    0    0  0.00000000000E+00  0.00000000000E+00  0.74505805969E-08  0.10566000000E+00  0.10566000000E+00 0.  1.
     999900   -1    0    0    0    0 -0.00000000000E+00 -0.00000000000E+00 -0.74505805969E-08  0.93827000000E+00  0.93827000000E+00 0. -1.
     999902    2    1    2    0    0  0.87553617706E-02 -0.12470261553E-02 -0.10183093761E-01  0.10304427159E+01  0.10303544458E+01 0.  0.
     999903    2    3    3    0    0 -0.37009288168E-01  0.12509980712E+00  0.21829127859E-01  0.13966625247E+00  0.44838622886E-01 0.  0.
         14    1    1    2    0    0 -0.87553617706E-02  0.12470261553E-02  0.10183093761E-01  0.13487284104E-01  0.00000000000E+00 0.  1.
     999901    1    3    3    0    0  0.45764649938E-01 -0.12634683328E+00 -0.32012221620E-01  0.89077646343E+00  0.88000000000E+00 0. -1.
        -11    1    4    4    0    0 -0.37151668965E-01  0.47323098119E-01  0.89314587944E-02  0.60825604803E-01  0.51100000000E-03 0. -1.
         11    1    4    4    0    0  0.14238079770E-03  0.77776709005E-01  0.12897669065E-01  0.78840647665E-01  0.51100000000E-03 0.  1.
</event>
<event>
 8    1  0.2928569E+004  0.1043930E+01  0.7957747E-01            NaN
         13   -1    0    0    0    0  0.00000000000E+00  0.00000000000E+00  0.74505805969E-08  0.10566000000E+00  0.10566000000E+00 0.  1.
     999900   -1    0    0    0    0 -0.00000000000E+00 -0.00000000000E+00 -0.74505805969E-08  0.93827000000E+00  0.93827000000E+00 0. -1.
     999902    2    1    2    0    0  0.12319822506E-01  0.23884134921E-02  0.81232640202E-02  0.10289810882E+01  0.10288724945E+01 0.  0.
     999903    2    3    3    0    0  0.67445687740E-01 -0.10302425719E+00  0.50074347831E-01  0.13998694559E+00  0.43886059989E-01 0.  0.
         14    1    1    2    0    0 -0.12319822506E-01 -0.23884134921E-02 -0.81232640202E-02  0.14948911798E-01  0.00000000000E+00 0.  1.
     999901    1    3    3    0    0 -0.55125865234E-01  0.10541267068E+00 -0.41951083811E-01  0.88899414261E+00  0.88000000000E+00 0. -1.
        -11    1    4    4    0    0  0.13579749826E-01 -0.20234583992E-01  0.30924551663E-01  0.39375589027E-01  0.51100000000E-03 0.  1.
         11    1    4    4    0    0  0.53865937914E-01 -0.82789673200E-01  0.19149796168E-01  0.10061135657E+00  0.51100000000E-03 0. -1.
</event>
<event>
 8    1  0.2928569E+004  0.1043930E+01  0.7957747E-01            NaN
         13   -1    0    0    0    0  0.00000000000E+00  0.00000000000E+00  0.74505805969E-08  0.10566000000E+00  0.10566000000E+00 0. -1.
     999900   -1    0    0    0    0 -0.00000000000E+00 -0.00000000000E+00 -0.74505805969E-08  0.93827000000E+00  0.93827000000E+00 0. -1.
     999902    2    1    2    0    0  0.79266236053E-03 -0.64473610655E-02 -0.12439907298E-01  0.10298961811E+01  0.10298005612E+01 0.  0.
     999903    2    3    3    0    0  0.87252971308E-01  0.15182897347E-01  0.96177253273E-01  0.13875032289E+00  0.46454135235E-01 0.  0.
         14    1    1    2    0    0 -0.79266236053E-03  0.64473610655E-02  0.12439907298E-01  0.14033818864E-01  0.00000000000E+00 0. -1.
     999901    1    3    3    0    0 -0.86460308947E-01 -0.21630258413E-01 -0.10861716057E+00  0.89114585825E+00  0.88000000000E+00 0. -1.
        -11    1    4    4    0    0  0.53156400598E-01  0.82830927969E-02  0.87787285781E-01  0.10296155213E+00  0.51100000000E-03 0. -1.
         11    1    4    4    0    0  0.34096570710E-01  0.68998045502E-02  0.83899674926E-02  0.35788770761E-01  0.51100000000E-03 0.  1.
</event>
<event>
 8    1  0.2928569E+004  0.1043930E+01  0.7957747E-01            NaN
         13   -1    0    0    0    0  0.00000000000E+00  0.00000000000E+00  0.74505805969E-08  0.10566000000E+00  0.10566000000E+00 0. -1.
     999900   -1    0    0    0    0 -0.00000000000E+00 -0.00000000000E+00 -0.74505805969E-08  0.93827000000E+00  0.93827000000E+00 0.  1.
     999902    2    1    2    0    0 -0.12397831014E-01 -0.20524662721E-02 -0.64045672543E-02  0.10298254861E+01  0.10297288937E+01 0.  0.
     999903    2    3    3    0    0  0.10817950827E+00  0.69367216151E-01  0.34813579827E-02  0.13868161592E+00  0.52017824392E-01 0.  0.
         14    1    1    2    0    0  0.12397831014E-01  0.20524662721E-02  0.64045672543E-02  0.14104513936E-01  0.00000000000E+00 0.  1.
     999901    1    3    3    0    0 -0.12057733928E+00 -0.71419682423E-01 -0.98859252369E-02  0.89114387015E+00  0.88000000000E+00 0. -1.
        -11    1    4    4    0    0  0.24010400030E-01  0.23746693501E-01  0.23146202738E-01  0.40944017683E-01  0.51100000000E-03 0.  1.
         11    1    4    4    0    0  0.84169108237E-01  0.45620522649E-01 -0.19664844755E-01  0.97737598233E-01  0.51100000000E-03 0. -1.
</event>
<event>
 8    1  0.2928569E+004  0.1043930E+01  0.7957747E-01            NaN
         13   -1    0    0    0    0  0.00000000000E+00  0.00000000000E+00  0.74505805969E-08  0.10566000000E+00  0.10566000000E+00 0. -1.
     999900   -1    0    0    0    0 -0.00000000000E+00 -0.00000000000E+00 -0.74505805969E-08  0.93827000000E+00  0.93827000000E+00 0. -1.
     999902    2    1    2    0    0  0.10662055170E-01 -0.41713644715E-02 -0.81095482600E-02  0.10298998726E+01  0.10298043033E+01 0.  0.
     999903    2    3    3    0    0  0.85740953226E-01  0.77190089654E-01 -0.68657411472E-01  0.14089898908E+00  0.42765219197E-01 0.  0.
         14    1    1    2    0    0 -0.10662055170E-01  0.41713644715E-02  0.81095482600E-02  0.14030127404E-01  0.00000000000E+00 0. -1.
     999901    1    3    3    0    0 -0.75078898056E-01 -0.81361454126E-01  0.60547863212E-01  0.88900088351E+00  0.88000000000E+00 0.  1.
        -11    1    4    4    0    0  0.76298835386E-01  0.45427896887E-01 -0.58099479305E-01  0.10611793775E+00  0.51100000000E-03 0. -1.
         11    1    4    4    0    0  0.94421178399E-02  0.31762192767E-01 -0.10557932167E-01  0.34781051326E-01  0.51100000000E-03 0.  1.
</event>
<event>
 8    1  0.2928569E+004  0.1043930E+01  0.7957747E-01            NaN
         13   -1    0    0    0    0  0.00000000000E+00  0.00000000000E+00  0.74505805969E-08  0.10566000000E+00  0.10566000000E+00 0. -1.
     999900   -1    0    0    0    0 -0.00000000000E+00 -0.00000000000E+00 -0.74505805969E-08  0.93827000000E+00  0.93827000000E+00 0. -1.
     999902    2    1    2    0    0 -0.11152419281E-01 -0.96519560922E-02 -0.12918471049E-02  0.10291244071E+01  0.10290179006E+01 0.  0.
     999903    2    3    3    0    0  0.39487731751E-01 -0.11563032331E+00 -0.51058478904E-01  0.13992670307E+00  0.45198023588E-01 0.  0.
         14    1    1    2    0    0  0.11152419281E-01  0.96519560922E-02  0.12918471049E-02  0.14805592902E-01  0.00000000000E+00 0.  1.
     999901    1    3    3    0    0 -0.50640151032E-01  0.10597836721E+00  0.49766631799E-01  0.88919770403E+00  0.88000000000E+00 0.  1.
        -11    1    4    4    0    0  0.38308285100E-01 -0.42840234058E-01 -0.23122485378E-01  0.61949340695E-01  0.51100000000E-03 0. -1.
         11    1    4    4    0    0  0.11794466517E-02 -0.72790089249E-01 -0.27935993526E-01  0.77977362372E-01  0.51100000000E-03 0.  1.
</event>
<event>
 8    1  0.2928569E+004  0.1043930E+01  0.7957747E-01            NaN
         13   -1    0    0    0    0  0.00000000000E+00  0.00000000000E+00  0.74505805969E-08  0.10566000000E+00  0.10566000000E+00 0. -1.
     999900   -1    0    0    0    0 -0.00000000000E+00 -0.00000000000E+00 -0.74505805969E-08  0.93827000000E+00  0.93827000000E+00 0.  1.
     999902    2    1    2    0    0 -0.11003493255E-01 -0.43858395689E-02  0.66578463142E-02  0.10303417930E+01  0.10302521881E+01 0.  0.
     999903    2    3    3    0    0  0.71510333762E-01 -0.70541939804E-01 -0.85344509691E-01  0.13924718815E+00  0.44902126527E-01 0.  0.
         14    1    1    2    0    0  0.11003493255E-01  0.43858395689E-02 -0.66578463142E-02  0.13588207022E-01  0.00000000000E+00 0.  1.
     999901    1    3    3    0    0 -0.82513827017E-01  0.66156100235E-01  0.92002356005E-01  0.89109460483E+00  0.88000000000E+00 0. -1.
        -11    1    4    4    0    0  0.21284979693E-01 -0.33150362127E-01 -0.88295376904E-02  0.40375967190E-01  0.51100000000E-03 0. -1.
         11    1    4    4    0    0  0.50225354069E-01 -0.37391577677E-01 -0.76514972000E-01  0.98871220958E-01  0.51100000000E-03 0.  1.
</event>
<event>
 8    1  0.2928569E+004  0.1043930E+01  0.7957747E-01            NaN
         13   -1    0    0    0    0  0.00000000000E+00  0.00000000000E+00  0.74505805969E-08  0.10566000000E+00  0.10566000000E+00 0. -1.
     999900   -1    0    0    0    0 -0.00000000000E+00 -0.00000000000E+00 -0.74505805969E-08  0.93827000000E+00  0.93827000000E+00 0. -1.
     999902    2    1    2    0    0  0.13206357025E-01  0.21763266788E-02  0.44435770477E-02  0.10298271761E+01  0.10297306070E+01 0.  0.
     999903    2    3    3    0    0 -0.86468432933E-01  0.33713842502E-01  0.93551556206E-01  0.13917016550E+00  0.44755203356E-01 0.  0.
         14    1    1    2    0    0 -0.13206357025E-01 -0.21763266788E-02 -0.44435770477E-02  0.14102823854E-01  0.00000000000E+00 0.  1.
     999901    1    3    3    0    0  0.99674789958E-01 -0.31537515823E-01 -0.89107979158E-01  0.89065701064E+00  0.88000000000E+00 0. -1.
        -11    1    4    4    0    0 -0.17742935635E-01 -0.24016153142E-03  0.45141886275E-01  0.48506911466E-01  0.51100000000E-03 0.  1.
         11    1    4    4    0    0 -0.68725497298E-01  0.33954004033E-01  0.48409669931E-01  0.90663254037E-01  0.51100000000E-03 0. -1.
</event>
<event>
 8    1  0.2928569E+004  0.1043930E+01  0.7957747E-01            NaN
         13   -1    0    0    0    0  0.00000000000E+00  0.00000000000E+00  0.74505805969E-08  0.10566000000E+00  0.10566000000E+00 0. -1.
     999900   -1    0    0    0    0 -0.00000000000E+00 -0.00000000000E+00 -0.74505805969E-08  0.93827000000E+00  0.93827000000E+00 0. -1.
     999902    2    1    2    0    0  0.87304334088E-03 -0.51207076800E-02 -0.13128864207E-01  0.10298108312E+01  0.10297140366E+01 0.  0.
     999903    2    3    3    0    0 -0.93166087327E-01 -0.15694036738E-01  0.90438151156E-01  0.13869844770E+00  0.46173342880E-01 0.  0.
         14    1    1    2    0    0 -0.87304334088E-03  0.51207076800E-02  0.13128864207E-01  0.14119168785E-01  0.00000000000E+00 0. -1.
     999901    1    3    3    0    0  0.94039130668E-01  0.10573329058E-01 -0.10356701536E+00  0.89111238352E+00  0.88000000000E+00 0. -1.
        -11    1    4    4    0    0 -0.46733960847E-01  0.14703309425E-01  0.34677174756E-01  0.60025144519E-01  0.51100000000E-03 0. -1.
         11    1    4    4    0    0 -0.46432126480E-01 -0.30397346163E-01  0.55760976400E-01  0.78673303180E-01  0.51100000000E-03 0.  1.
</event>
<event>
 7    1  0.2928569E+004  0.1043930E+01  0.7957747E-01            NaN
         13   -1    0    0    0    0  0.00000000000E+00  0.00000000000E+00  0.74505805969E-08  0.10566000000E+00  0.10566000000E+00 0. -1.
     999900   -1    0    0    0    0 -0.00000000000E+00 -0.00000000000E+00 -0.74505805969E-08  0.93827000000E+00  0.93827000000E+00 0.  1.
     999902    2    1    2    0    0 -0.48021459557E-02 -0.88496909519E-02 -0.88275809692E-02  0.10305395623E+01  0.10304525635E+01 0.  0.
         14    1    1    2    0    0  0.48021459557E-02  0.88496909519E-02  0.88275809692E-02  0.13390437689E-01  0.00000000000E+00 0. -1.
     999901    1    3    3    0    0 -0.74193759972E-01 -0.69240141399E-01  0.65301650099E-01  0.88823601408E+00  0.88000000000E+00 0.  1.
        -11    1    3    3    0    0  0.44234987960E-01 -0.93280109096E-02 -0.15483827286E-01  0.47788659490E-01  0.51100000000E-03 0. -1.
         11    1    3    3    0    0  0.25156626056E-01  0.69718461357E-01 -0.58645403782E-01  0.94514888744E-01  0.51100000000E-03 0.  1.
</event>
<event>
 8    1  0.2928569E+004  0.1043930E+01  0.7957747E-01            NaN
         13   -1    0    0    0    0  0.00000000000E+00  0.00000000000E+00  0.74505805969E-08  0.10566000000E+00  0.10566000000E+00 0. -1.
     999900   -1    0    0    0    0 -0.00000000000E+00 -0.00000000000E+00 -0.74505805969E-08  0.93827000000E+00  0.93827000000E+00 0.  1.
     999902    2    1    2    0    0 -0.62743791915E-02 -0.65300667044E-02  0.10244074306E-01  0.10302570097E+01  0.10301662756E+01 0.  0.
     999903    2    3    3    0    0 -0.82390287408E-01  0.87120598831E-01  0.58314800749E-01  0.14072068476E+00  0.44983740773E-01 0.  0.
         14    1    1    2    0    0  0.62743791915E-02  0.65300667044E-02 -0.10244074306E-01  0.13672990302E-01  0.00000000000E+00 0.  1.
     999901    1    3    3    0    0  0.76115908216E-01 -0.93650665535E-01 -0.48070726443E-01  0.88953632494E+00  0.88000000000E+00 0. -1.
        -11    1    4    4    0    0 -0.22756541929E-01  0.18701177244E-01 -0.52371218383E-02  0.29921276661E-01  0.51100000000E-03 0.  1.
         11    1    4    4    0    0 -0.59633745479E-01  0.68419421587E-01  0.63551922588E-01  0.11079940810E+00  0.51100000000E-03 0. -1.
</event>
<event>
 7    1  0.2928569E+004  0.1043930E+01  0.7957747E-01            NaN
         13   -1    0    0    0    0  0.00000000000E+00  0.00000000000E+00  0.74505805969E-08  0.10566000000E+00  0.10566000000E+00 0.  1.
     999900   -1    0    0    0    0 -0.00000000000E+00 -0.00000000000E+00 -0.74505805969E-08  0.93827000000E+00  0.93827000000E+00 0. -1.
     999903    2    1    2    0    0  0.72649874806E-01 -0.74288332447E-01  0.51212922655E-01  0.12427963067E+00  0.45010026733E-01 0.  0.
         14    1    1    2    0    0 -0.14897026218E-02 -0.15593379917E-01  0.24403928874E-01  0.28998697482E-01  0.00000000000E+00 0.  1.
     999901    1    1    2    0    0 -0.71160172184E-01  0.89881712364E-01 -0.75616851530E-01  0.89065167184E+00  0.88000000000E+00 0. -1.
        -11    1    3    3    0    0  0.35048607443E-01 -0.79574331286E-02  0.87090334932E-02  0.36984240036E-01  0.51100000000E-03 0.  1.
         11    1    3    3    0    0  0.37601267363E-01 -0.66330899319E-01  0.42503889162E-01  0.87295390638E-01  0.51100000000E-03 0. -1.
</event>
<event>
 8    1  0.2928569E+004  0.1043930E+01  0.7957747E-01            NaN
         13   -1    0    0    0    0  0.00000000000E+00  0.00000000000E+00  0.74505805969E-08  0.10566000000E+00  0.10566000000E+00 0.  1.
     999900   -1    0    0    0    0 -0.00000000000E+00 -0.00000000000E+00 -0.74505805969E-08  0.93827000000E+00  0.93827000000E+00 0. -1.
     999902    2    1    2    0    0 -0.10206065763E-01 -0.55391871796E-02 -0.66956202732E-02  0.10305256088E+01  0.10304384274E+01 0.  0.
     999903    2    3    3    0    0 -0.27916444290E-01 -0.10499042915E+00 -0.79371174612E-01  0.14177033131E+00  0.44684733485E-01 0.  0.
         14    1    1    2    0    0  0.10206065763E-01  0.55391871796E-02  0.66956202732E-02  0.13404391214E-01  0.00000000000E+00 0.  1.
     999901    1    3    3    0    0  0.17710378527E-01  0.99451241970E-01  0.72675554338E-01  0.88875527747E+00  0.88000000000E+00 0.  1.
        -11    1    4    4    0    0  0.11280149115E-01 -0.19133695577E-01 -0.22280347939E-01  0.31464505332E-01  0.51100000000E-03 0.  1.
         11    1    4    4    0    0 -0.39196593405E-01 -0.85856733572E-01 -0.57090826672E-01  0.11030582598E+00  0.51100000000E-03 0. -1.
</event>
<event>
 8    1  0.2928569E+004  0.1043930E+01  0.7957747E-01            NaN
         13   -1    0    0    0    0  0.00000000000E+00  0.00000000000E+00  0.74505805969E-08  0.10566000000E+00  0.10566000000E+00 0.  1.
     999900   -1    0    0    0    0 -0.00000000000E+00 -0.00000000000E+00 -0.74505805969E-08  0.93827000000E+00  0.93827000000E+00 0.  1.
     999902    2    1    2    0    0  0.80124298608E-02 -0.14098166389E-01  0.20370663922E-02  0.10275865925E+01  0.10274566162E+01 0.  0.
     999903    2    3    3    0    0 -0.11132856369E+00  0.62709004257E-01 -0.12723006820E-02  0.13620981131E+00  0.47170177459E-01 0.  0.
         14    1    1    2    0    0 -0.80124298608E-02  0.14098166389E-01 -0.20370663922E-02  0.16343407457E-01  0.00000000000E+00 0.  1.
     999901    1    3    3    0    0  0.11934099355E+00 -0.76807170646E-01  0.33093670743E-02  0.89137678123E+00  0.88000000000E+00 0.  1.
        -11    1    4    4    0    0 -0.81847532257E-01  0.20852007162E-01 -0.66699316800E-02  0.84726464867E-01  0.51100000000E-03 0.  1.
         11    1    4    4    0    0 -0.29481031431E-01  0.41856997095E-01  0.53976309980E-02  0.51483346447E-01  0.51100000000E-03 0. -1.
</event>
<event>
 8    1  0.2928569E+004  0.1043930E+01  0.7957747E-01            NaN
         13   -1    0    0    0    0  0.00000000000E+00  0.00000000000E+00  0.74505805969E-08  0.10566000000E+00  0.10566000000E+00 0. -1.
     999900   -1    0    0    0    0 -0.00000000000E+00 -0.00000000000E+00 -0.74505805969E-08  0.93827000000E+00  0.93827000000E+00 0. -1.
     999902    2    1    2    0    0 -0.89475735257E-02 -0.66693645861E-02  0.79937577859E-02  0.10302026674E+01  0.10301112058E+01 0.  0.
     999903    2    3    3    0    0 -0.53445064064E-01 -0.11950754864E+00  0.37159967064E-01  0.14140395557E+00  0.38415965979E-01 0.  0.
         14    1    1    2    0    0  0.89475735257E-02  0.66693645861E-02 -0.79937577859E-02  0.13727332571E-01  0.00000000000E+00 0.  1.
     999901    1    3    3    0    0  0.44497490538E-01  0.11283818406E+00 -0.29166209278E-01  0.88879871186E+00  0.88000000000E+00 0.  1.
        -11    1    4    4    0    0 -0.49056974833E-01 -0.66701748576E-01  0.15930811798E-01  0.84319404222E-01  0.51100000000E-03 0. -1.
         11    1    4    4    0    0 -0.43880892309E-02 -0.52805800067E-01  0.21229155266E-01  0.57084551344E-01  0.51100000000E-03 0.  1.
</event>
<event>
 8    1  0.2928569E+004  0.1043930E+01  0.7957747E-01            NaN
         13   -1    0    0    0    0  0.00000000000E+00  0.00000000000E+00  0.74505805969E-08  0.10566000000E+00  0.10566000000E+00 0.  1.
     999900   -1    0    0    0    0 -0.00000000000E+00 -0.00000000000E+00 -0.74505805969E-08  0.93827000000E+00  0.93827000000E+00 0. -1.
     999902    2    1    2    0    0 -0.13031422179E-01  0.37600770470E-03 -0.28024986456E-02  0.10305953330E+01  0.10305090621E+01 0.  0.
     999903    2    3    3    0    0  0.47973036850E-01 -0.57203897540E-01 -0.10948203145E+00  0.14019232747E+00  0.45758882342E-01 0.  0.
         14    1    1    2    0    0  0.13031422179E-01 -0.37600770470E-03  0.28024986456E-02  0.13334667017E-01  0.00000000000E+00 0.  1.
     999901    1    3    3    0    0 -0.61004459029E-01  0.57579905244E-01  0.10667953280E+00  0.89040300551E+00  0.88000000000E+00 0. -1.
        -11    1    4    4    0    0  0.33401995023E-01 -0.22339063979E-01 -0.87953763789E-01  0.96699807325E-01  0.51100000000E-03 0.  1.
         11    1    4    4    0    0  0.14571041827E-01 -0.34864833561E-01 -0.21528267657E-01  0.43492520144E-01  0.51100000000E-03 0. -1.
</event>
<event>
 8    1  0.2928569E+004  0.1043930E+01  0.7957747E-01            NaN
         13   -1    0    0    0    0  0.00000000000E+00  0.00000000000E+00  0.74505805969E-08  0.10566000000E+00  0.10566000000E+00 0. -1.
     999900   -1    0    0    0    0 -0.00000000000E+00 -0.00000000000E+00 -0.74505805969E-08  0.93827000000E+00  0.93827000000E+00 0. -1.
     999902    2    1    2    0    0 -0.42027201225E-02  0.17405889238E-01  0.12799760180E-02  0.10259782264E+01  0.10258211613E+01 0.  0.
     999903    2    3    3    0    0  0.49945979085E-01  0.11662462901E+00 -0.30354541120E-01  0.13818479175E+00  0.45582163023E-01 0.  0.
         14    1    1    2    0    0  0.42027201225E-02 -0.17405889238E-01 -0.12799760180E-02  0.17951773595E-01  0.00000000000E+00 0. -1.
     999901    1    3    3    0    0 -0.54148699207E-01 -0.99218739769E-01  0.31634517138E-01  0.88779343466E+00  0.88000000000E+00 0. -1.
        -11    1    4    4    0    0  0.47722246477E-01  0.55838929170E-01 -0.22663839428E-01  0.76872033655E-01  0.51100000000E-03 0.  1.
         11    1    4    4    0    0  0.22237326080E-02  0.60785699837E-01 -0.76907016927E-02  0.61312758092E-01  0.51100000000E-03 0. -1.
</event>
<event>
 8    1  0.2928569E+004  0.1043930E+01  0.7957747E-01            NaN
         13   -1    0    0    0    0  0.00000000000E+00  0.00000000000E+00  0.74505805969E-08  0.10566000000E+00  0.10566000000E+00 0. -1.
     999900   -1    0    0    0    0 -0.00000000000E+00 -0.00000000000E+00 -0.74505805969E-08  0.93827000000E+00  0.93827000000E+00 0. -1.
     999902    2    1    2    0    0  0.10899831717E-01 -0.44323722446E-02 -0.85433840632E-02  0.10293889661E+01  0.10292862585E+01 0.  0.
     999903    2    3    3    0    0  0.94944014083E-01  0.55590067694E-01 -0.76975218041E-01  0.14071071512E+00  0.42067799106E-01 0.  0.
         14    1    1    2    0    0 -0.10899831717E-01  0.44323722446E-02  0.85433840632E-02  0.14541033884E-01  0.00000000000E+00 0. -1.
     999901    1    3    3    0    0 -0.84044182366E-01 -0.60022439939E-01  0.68431833978E-01  0.88867825099E+00  0.88000000000E+00 0.  1.
        -11    1    4    4    0    0  0.80136786451E-01  0.28053820695E-01 -0.66104989597E-01  0.10760600434E+00  0.51100000000E-03 0.  1.
         11    1    4    4    0    0  0.14807227632E-01  0.27536246999E-01 -0.10870228443E-01  0.33104710788E-01  0.51100000000E-03 0. -1.
</event>
<event>
 8    1  0.2928569E+004  0.1043930E+01  0.7957747E-01            NaN
         13   -1    0    0    0    0  0.00000000000E+00  0.00000000000E+00  0.74505805969E-08  0.10566000000E+00  0.10566000000E+00 0.  1.
     999900   -1    0    0    0    0 -0.00000000000E+00 -0.00000000000E+00 -0.74505805969E-08  0.93827000000E+00  0.93827000000E+00 0.  1.
     999902    2    1    2    0    0 -0.23765987659E-02 -0.43158924319E-02 -0.13128426505E-01  0.10299074920E+01  0.10298120272E+01 0.  0.
     999903    2    3    3    0    0  0.77610693476E-01 -0.10737432831E+00  0.58435210249E-02  0.14008787939E+00  0.45142010289E-01 0.  0.
         14    1    1    2    0    0  0.23765987659E-02  0.43158924319E-02  0.13128426505E-01  0.14022508038E-01  0.00000000000E+00 0.  1.
     999901    1    3    3    0    0 -0.79987292241E-01  0.10305843587E+00 -0.18971947530E-01  0.88981961257E+00  0.88000000000E+00 0. -1.
        -11    1    4    4    0    0  0.38218325890E-01 -0.32591771198E-01 -0.16123781108E-01  0.52755108017E-01  0.51100000000E-03 0. -1.
         11    1    4    4    0    0  0.39392367585E-01 -0.74782557108E-01  0.21967302133E-01  0.87332771372E-01  0.51100000000E-03 0.  1.
</event>
<event>
 8    1  0.2928569E+004  0.1043930E+01  0.7957747E-01            NaN
         13   -1    0    0    0    0  0.00000000000E+00  0.00000000000E+00  0.74505805969E-08  0.10566000000E+00  0.10566000000E+00 0.  1.
     999900   -1    0    0    0    0 -0.00000000000E+00 -0.00000000000E+00 -0.74505805969E-08  0.93827000000E+00  0.93827000000E+00 0.  1.
     999902    2    1    2    0    0  0.79583222425E-02 -0.11001074296E-01  0.46761872737E-02  0.10295694549E+01  0.10294692988E+01 0.  0.
     999903    2    3    3    0    0  0.59274553429E-01  0.11265828508E+00 -0.32093871392E-01  0.13868392354E+00  0.44697339812E-01 0.  0.
         14    1    1    2    0    0 -0.79583222425E-02  0.11001074296E-01 -0.46761872737E-02  0.14360545115E-01  0.00000000000E+00 0. -1.
     999901    1    3    3    0    0 -0.51316231187E-01 -0.12365935938E+00  0.36770058666E-01  0.89088553134E+00  0.88000000000E+00 0. -1.
        -11    1    4    4    0    0  0.12179739924E-02  0.25497344726E-01  0.76743100075E-02  0.26659973815E-01  0.51100000000E-03 0. -1.
         11    1    4    4    0    0  0.58056579437E-01  0.87160940353E-01 -0.39768181400E-01  0.11202394973E+00  0.51100000000E-03 0.  1.
</event>
<event>
 8    1  0.2928569E+004  0.1043930E+01  0.7957747E-01            NaN
         13   -1    0    0    0    0  0.00000000000E+00  0.00000000000E+00  0.74505805969E-08  0.10566000000E+00  0.10566000000E+00 0.  1.
     999900   -1    0    0    0    0 -0.00000000000E+00 -0.00000000000E+00 -0.74505805969E-08  0.93827000000E+00  0.93827000000E+00 0. -1.
     999902    2    1    2    0    0 -0.12772022410E-01  0.37863418118E-02  0.28729359969E-02  0.10303022818E+01  0.10302121516E+01 0.  0.
     999903    2    3    3    0    0 -0.10826090870E+00 -0.63312734788E-01 -0.46347144591E-01  0.14123365130E+00  0.45496809881E-01 0.  0.
         14    1    1    2    0    0  0.12772022410E-01 -0.37863418118E-02 -0.28729359969E-02  0.13627718151E-01  0.00000000000E+00 0. -1.
     999901    1    3    3    0    0  0.95488886293E-01  0.67099076599E-01  0.49220080588E-01  0.88906863054E+00  0.88000000000E+00 0.  1.
        -11    1    4    4    0    0 -0.91372637504E-01 -0.53494158424E-01 -0.18922455520E-01  0.10755884117E+00  0.51100000000E-03 0.  1.
         11    1    4    4    0    0 -0.16888271200E-01 -0.98185763634E-02 -0.27424689071E-01  0.33674810134E-01  0.51100000000E-03 0. -1.
</event>
<event>
 8    1  0.2928569E+004  0.1043930E+01  0.7957747E-01            NaN
         13   -1    0    0    0    0  0.00000000000E+00  0.00000000000E+00  0.74505805969E-08  0.10566000000E+00  0.10566000000E+00 0. -1.
     999900   -1    0    0    0    0 -0.00000000000E+00 -0.00000000000E+00 -0.74505805969E-08  0.93827000000E+00  0.93827000000E+00 0.  1.
     999902    2    1    2    0    0  0.74514379528E-02 -0.11361202673E-01  0.97552216530E-03  0.10303082344E+01  0.10302181834E+01 0.  0.
     999903    2    3    3    0    0  0.79045234536E-01 -0.37116591363E-02  0.10760596259E+00  0.14095215386E+00  0.45017118712E-01 0.  0.
         14    1    1    2    0    0 -0.74514379528E-02  0.11361202673E-01 -0.97552216530E-03  0.13621765570E-01  0.00000000000E+00 0.  1.
     999901    1    3    3    0    0 -0.71593796583E-01 -0.76495435365E-02 -0.10663044042E+00  0.88935608057E+00  0.88000000000E+00 0.  1.
        -11    1    4    4    0    0  0.51922122435E-01 -0.16049245045E-01  0.41310775064E-01  0.68266582762E-01  0.51100000000E-03 0.  1.
         11    1    4    4    0    0  0.27123112101E-01  0.12337585909E-01  0.66295187522E-01  0.72685571096E-01  0.51100000000E-03 0. -1.
</event>
<event>
 8    1  0.2928569E+004  0.1043930E+01  0.7957747E-01            NaN
         13   -1    0    0    0    0  0.00000000000E+00  0.00000000000E+00  0.74505805969E-08  0.10566000000E+00  0.10566000000E+00 0.  1.
     999900   -1    0    0    0    0 -0.00000000000E+00 -0.00000000000E+00 -0.74505805969E-08  0.93827000000E+00  0.93827000000E+00 0.  1.
     999902    2    1    2    0    0  0.10397418223E-01 -0.79159832003E-02 -0.62731449968E-02  0.10294344336E+01  0.10293323718E+01 0.  0.
     999903    2    3    3    0    0  0.42950269659E-01 -0.12625503361E+00  0.25349062175E-01  0.14035413189E+00  0.35660176794E-01 0.  0.
         14    1    1    2    0    0 -0.10397418223E-01  0.79159832003E-02  0.62731449968E-02  0.14495566352E-01  0.00000000000E+00 0. -1.
     999901    1    3    3    0    0 -0.32552851437E-01  0.11833905041E+00 -0.31622207172E-01  0.88908030176E+00  0.88000000000E+00 0.  1.
        -11    1    4    4    0    0  0.26537370162E-01 -0.11527668437E+00  0.21849030434E-01  0.12029375390E+00  0.51100000000E-03 0. -1.
         11    1    4    4    0    0  0.16412899497E-01 -0.10978349239E-01  0.35000317415E-02  0.20060377990E-01  0.51100000000E-03 0.  1.
</event>
<event>
 8    1  0.2928569E+004  0.1043930E+01  0.7957747E-01            NaN
         13   -1    0    0    0    0  0.00000000000E+00  0.00000000000E+00  0.74505805969E-08  0.10566000000E+00  0.10566000000E+00 0. -1.
     999900   -1    0    0    0    0 -0.00000000000E+00 -0.00000000000E+00 -0.74505805969E-08  0.93827000000E+00  0.93827000000E+00 0.  1.
     999902    2    1    2    0    0  0.12807561810E-01 -0.80005751749E-02  0.63545748662E-02  0.10275463660E+01  0.10274157439E+01 0.  0.
     999903    2    3    3    0    0 -0.18432496645E-02  0.11388990897E+00  0.61965831199E-01  0.13728542206E+00  0.45091173641E-01 0.  0.
         14    1    1    2    0    0 -0.12807561810E-01  0.80005751749E-02 -0.63545748662E-02  0.16383634040E-01  0.00000000000E+00 0.  1.
     999901    1    3    3    0    0  0.14650811474E-01 -0.12189048414E+00 -0.55611256333E-01  0.89026094390E+00  0.88000000000E+00 0.  1.
        -11    1    4    4    0    0  0.16924370844E-01  0.18091437821E-01  0.14865177717E-01  0.28895831542E-01  0.51100000000E-03 0. -1.
         11    1    4    4    0    0 -0.18767620509E-01  0.95798471146E-01  0.47100653482E-01  0.10838959052E+00  0.51100000000E-03 0.  1.
</event>
<event>
 8    1  0.2928569E+004  0.1043930E+01  0.7957747E-01            NaN
         13   -1    0    0    0    0  0.00000000000E+00  0.00000000000E+00  0.74505805969E-08  0.10566000000E+00  0.10566000000E+00 0. -1.
     999900   -1    0    0    0    0 -0.00000000000E+00 -0.00000000000E+00 -0.74505805969E-08  0.93827000000E+00  0.93827000000E+00 0.  1.
     999902    2    1    2    0    0 -0.12124505255E-01 -0.76163821581E-02  0.65393496464E-03  0.10295968030E+01  0.10294970307E+01 0.  0.
     999903    2    3    3    0    0  0.10955683745E+00 -0.72372556419E-01 -0.58584561381E-02  0.13884312073E+00  0.44750453763E-01 0.  0.
         14    1    1    2    0    0  0.12124505255E-01  0.76163821581E-02 -0.65393496464E-03  0.14333196985E-01  0.00000000000E+00 0. -1.
     999901    1    3    3    0    0 -0.12168134270E+00  0.64756174261E-01  0.65123911027E-02  0.89075368229E+00  0.88000000000E+00 0.  1.
        -11    1    4    4    0    0  0.77031979639E-01 -0.70233354192E-01 -0.14164668202E-01  0.10520241858E+00  0.51100000000E-03 0.  1.
         11    1    4    4    0    0  0.32524857807E-01 -0.21392022276E-02  0.83062120640E-02  0.33640702154E-01  0.51100000000E-03 0. -1.
</event>
<event>
 8    1  0.2928569E+004  0.1043930E+01  0.7957747E-01            NaN
         13   -1    0    0    0    0  0.00000000000E+00  0.00000000000E+00  0.74505805969E-08  0.10566000000E+00  0.10566000000E+00 0.  1.
     999900   -1    0    0    0    0 -0.00000000000E+00 -0.00000000000E+00 -0.74505805969E-08  0.93827000000E+00  0.93827000000E+00 0. -1.
     999902    2    1    2    0    0 -0.26204763996E-02 -0.13694775102E-01 -0.27056539885E-02  0.10297266791E+01  0.10296287191E+01 0.  0.
     999903    2    3    3    0    0 -0.13486095197E+00  0.12441790297E-01  0.10617835355E-01  0.13936260815E+00  0.31095395334E-01 0.  0.
         14    1    1    2    0    0  0.26204763996E-02  0.13694775102E-01  0.27056539885E-02  0.14203320920E-01  0.00000000000E+00 0. -1.
     999901    1    3    3    0    0  0.13224047557E+00 -0.26136565399E-01 -0.13323489344E-01  0.89036407093E+00  0.88000000000E+00 0. -1.
        -11    1    4    4    0    0 -0.11222695635E+00 -0.44044209308E-03  0.31830726347E-02  0.11227411452E+00  0.51100000000E-03 0.  1.
         11    1    4    4    0    0 -0.22633995626E-01  0.12882232390E-01  0.74347627204E-02  0.27088493628E-01  0.51100000000E-03 0. -1.
</event>
<event>
 8    1  0.2928569E+004  0.1043930E+01  0.7957747E-01            NaN
         13   -1    0    0    0    0  0.00000000000E+00  0.00000000000E+00  0.74505805969E-08  0.10566000000E+00  0.10566000000E+00 0. -1.
     999900   -1    0    0    0    0 -0.00000000000E+00 -0.00000000000E+00 -0.74505805969E-08  0.93827000000E+00  0.93827000000E+00 0. -1.
     999902    2    1    2    0    0  0.22910580715E-03 -0.11220689308E-01 -0.59243786579E-02  0.10312392703E+01  0.10311611794E+01 0.  0.
     999903    2    3    3    0    0  0.32581692324E-01 -0.80340487152E-01  0.10203786056E+00  0.14136282864E+00  0.45338325782E-01 0.  0.
         14    1    1    2    0    0 -0.22910580715E-03  0.11220689308E-01  0.59243786579E-02  0.12690729707E-01  0.00000000000E+00 0.  1.
     999901    1    3    3    0    0 -0.32352586516E-01  0.69119797844E-01 -0.10796223921E+00  0.88987644165E+00  0.88000000000E+00 0. -1.
        -11    1    4    4    0    0  0.27931076510E-01 -0.28449075217E-01  0.68931882900E-01  0.79632659863E-01  0.51100000000E-03 0. -1.
         11    1    4    4    0    0  0.46506158138E-02 -0.51891411935E-01  0.33105977655E-01  0.61730168779E-01  0.51100000000E-03 0.  1.
</event>
<event>
 8    1  0.2928569E+004  0.1043930E+01  0.7957747E-01            NaN
         13   -1    0    0    0    0  0.00000000000E+00  0.00000000000E+00  0.74505805969E-08  0.10566000000E+00  0.10566000000E+00 0.  1.
     999900   -1    0    0    0    0 -0.00000000000E+00 -0.00000000000E+00 -0.74505805969E-08  0.93827000000E+00  0.93827000000E+00 0. -1.
     999902    2    1    2    0    0  0.10996790267E-01 -0.81216227958E-02  0.73623057219E-03  0.10302394124E+01  0.10301484430E+01 0.  0.
     999903    2    3    3    0    0 -0.53064533572E-02 -0.13301622155E+00 -0.12407565815E-01  0.14117405152E+00  0.45328704922E-01 0.  0.
         14    1    1    2    0    0 -0.10996790267E-01  0.81216227958E-02 -0.73623057219E-03  0.13690587587E-01  0.00000000000E+00 0. -1.
     999901    1    3    3    0    0  0.16303243624E-01  0.12489459876E+00  0.13143796388E-01  0.88906536089E+00  0.88000000000E+00 0. -1.
        -11    1    4    4    0    0 -0.19639289471E-01 -0.38145029884E-01 -0.14237621311E-01  0.45207477007E-01  0.51100000000E-03 0. -1.
         11    1    4    4    0    0  0.14332836114E-01 -0.94871191671E-01  0.18300554955E-02  0.95966574515E-01  0.51100000000E-03 0.  1.
</event>
<event>
 8    1  0.2928569E+004  0.1043930E+01  0.7957747E-01            NaN
         13   -1    0    0    0    0  0.00000000000E+00  0.00000000000E+00  0.74505805969E-08  0.10566000000E+00  0.10566000000E+00 0. -1.
     999900   -1    0    0    0    0 -0.00000000000E+00 -0.00000000000E+00 -0.74505805969E-08  0.93827000000E+00  0.93827000000E+00 0.  1.
     999902    2    1    2    0    0 -0.69847506856E-02  0.70870461778E-02  0.92302415548E-02  0.10303575896E+01  0.10302681942E+01 0.  0.
     999903    2    3    3    0    0  0.60810939692E-01 -0.24471196767E-01  0.11578220098E+00  0.14078156787E+00  0.46012193290E-01 0.  0.
         14    1    1    2    0    0  0.69847506856E-02 -0.70870461778E-02 -0.92302415548E-02  0.13572410428E-01  0.00000000000E+00 0.  1.
     999901    1    3    3    0    0 -0.67795690378E-01  0.31558242945E-01 -0.10655195942E+00  0.88957602170E+00  0.88000000000E+00 0.  1.
        -11    1    4    4    0    0  0.51537459388E-01 -0.51717814229E-02  0.51575689270E-01  0.73096989596E-01  0.51100000000E-03 0. -1.
         11    1    4    4    0    0  0.92734803040E-02 -0.19299415344E-01  0.64206511707E-01  0.67684578274E-01  0.51100000000E-03 0.  1.
</event>
<event>
 8    1  0.2928569E+004  0.1043930E+01  0.7957747E-01            NaN
         13   -1    0    0    0    0  0.00000000000E+00  0.00000000000E+00  0.74505805969E-08  0.10566000000E+00  0.10566000000E+00 0.  1.
     999900   -1    0    0    0    0 -0.00000000000E+00 -0.00000000000E+00 -0.74505805969E-08  0.93827000000E+00  0.93827000000E+00 0. -1.
     999902    2    1    2    0    0 -0.11724433551E-01  0.56814719003E-02 -0.35213568455E-02  0.10304340221E+01  0.10303456374E+01 0.  0.
     999903    2    3    3    0    0 -0.88685479504E-01 -0.38713193826E-01  0.88323373906E-01  0.14120438726E+00  0.52667209457E-01 0.  0.
         14    1    1    2    0    0  0.11724433551E-01 -0.56814719003E-02  0.35213568455E-02  0.13495977885E-01  0.00000000000E+00 0.  1.
     999901    1    3    3    0    0  0.76961045954E-01  0.44394665726E-01 -0.91844730751E-01  0.88922963486E+00  0.88000000000E+00 0. -1.
        -11    1    4    4    0    0 -0.40027879642E-01 -0.39577504057E-01  0.25669526282E-01  0.61869181962E-01  0.51100000000E-03 0. -1.
         11    1    4    4    0    0 -0.48657599862E-01  0.86431023125E-03  0.62653847624E-01  0.79335205297E-01  0.51100000000E-03 0.  1.
</event>
<event>
 8    1  0.2928569E+004  0.1043930E+01  0.7957747E-01            NaN
         13   -1    0    0    0    0  0.00000000000E+00  0.00000000000E+00  0.74505805969E-08  0.10566000000E+00  0.10566000000E+00 0.  1.
     999900   -1    0    0    0    0 -0.00000000000E+00 -0.00000000000E+00 -0.74505805969E-08  0.93827000000E+00  0.93827000000E+00 0.  1.
     999902    2    1    2    0    0 -0.11991416955E-01  0.10299502757E-02 -0.80024553474E-02  0.10294768284E+01  0.10293753669E+01 0.  0.
     999903    2    3    3    0    0  0.16067016445E-01 -0.90197907193E-01  0.93292889716E-01  0.13853881449E+00  0.45778033713E-01 0.  0.
         14    1    1    2    0    0  0.11991416955E-01 -0.10299502757E-02  0.80024553474E-02  0.14453171615E-01  0.00000000000E+00 0. -1.
     999901    1    3    3    0    0 -0.28058433400E-01  0.91227857468E-01 -0.10129534506E+00  0.89093801389E+00  0.88000000000E+00 0.  1.
        -11    1    4    4    0    0 -0.88139298579E-02 -0.29102853588E-01  0.94346193589E-02  0.31842339894E-01  0.51100000000E-03 0. -1.
         11    1    4    4    0    0  0.24880946303E-01 -0.61095053605E-01  0.83858270357E-01  0.10669647460E+00  0.51100000000E-03 0.  1.
</event>
<event>
 8    1  0.2928569E+004  0.1043930E+01  0.7957747E-01            NaN
         13   -1    0    0    0    0  0.00000000000E+00  0.00000000000E+00  0.74505805969E-08  0.10566000000E+00  0.10566000000E+00 0.  1.
     999900   -1    0    0    0    0 -0.00000000000E+00 -0.00000000000E+00 -0.74505805969E-08  0.93827000000E+00  0.93827000000E+00 0. -1.
     999902    2    1    2    0    0  0.60340628455E-02  0.19970525540E-02 -0.12125346825E-01  0.10302397783E+01  0.10301488139E+01 0.  0.
     999903    2    3    3    0    0  0.75035564485E-01 -0.74353499419E-01 -0.85073217584E-01  0.14124483693E+00  0.39419193239E-01 0.  0.
         14    1    1    2    0    0 -0.60340628455E-02 -0.19970525540E-02  0.12125346825E-01  0.13690221654E-01  0.00000000000E+00 0.  1.
     999901    1    3    3    0    0 -0.69001501640E-01  0.76350551973E-01  0.72947870760E-01  0.88899494142E+00  0.88000000000E+00 0.  1.
        -11    1    4    4    0    0  0.97690164243E-02  0.30365740576E-02 -0.14833138137E-01  0.18026024850E-01  0.51100000000E-03 0.  1.
         11    1    4    4    0    0  0.65266548061E-01 -0.77390073476E-01 -0.70240079447E-01  0.12321881208E+00  0.51100000000E-03 0. -1.
</event>
<event>
 8    1  0.2928569E+004  0.1043930E+01  0.7957747E-01            NaN
         13   -1    0    0    0    0  0.00000000000E+00  0.00000000000E+00  0.74505805969E-08  0.10566000000E+00  0.10566000000E+00 0. -1.
     999900   -1    0    0    0    0 -0.00000000000E+00 -0.00000000000E+00 -0.74505805969E-08  0.93827000000E+00  0.93827000000E+00 0.  1.
     999902    2    1    2    0    0  0.51549208673E-02  0.96726089951E-02  0.86720176828E-02  0.10299537178E+01  0.10298588856E+01 0.  0.
     999903    2    3    3    0    0  0.44274025015E-01 -0.75892643490E-01  0.99751457901E-01  0.14026434437E+00  0.44764386737E-01 0.  0.
         14    1    1    2    0    0 -0.51549208673E-02 -0.96726089951E-02 -0.86720176828E-02  0.13976282217E-01  0.00000000000E+00 0.  1.
     999901    1    3    3    0    0 -0.39119104148E-01  0.85565252485E-01 -0.91079440218E-01  0.88968937342E+00  0.88000000000E+00 0. -1.
        -11    1    4    4    0    0  0.85266926841E-03 -0.45412260420E-01  0.42406862012E-01  0.62141801616E-01  0.51100000000E-03 0.  1.
         11    1    4    4    0    0  0.43421355747E-01 -0.30480383070E-01  0.57344595889E-01  0.78122542749E-01  0.51100000000E-03 0. -1.
</event>
<event>
 8    1  0.2928569E+004  0.1043930E+01  0.7957747E-01            NaN
         13   -1    0    0    0    0  0.00000000000E+00  0.00000000000E+00  0.74505805969E-08  0.10566000000E+00  0.10566000000E+00 0. -1.
     999900   -1    0    0    0    0 -0.00000000000E+00 -0.00000000000E+00 -0.74505805969E-08  0.93827000000E+00  0.93827000000E+00 0.  1.
     999902    2    1    2    0    0 -0.15274327156E-01 -0.41323703627E-02  0.13560954757E-02  0.10280485470E+01  0.10279258701E+01 0.  0.
     999903    2    3    3    0    0  0.51390600394E-01  0.92302965134E-01  0.75435261403E-01  0.13718845173E+00  0.44377488027E-01 0.  0.
         14    1    1    2    0    0  0.15274327156E-01  0.41323703627E-02 -0.13560954757E-02  0.15881453013E-01  0.00000000000E+00 0.  1.
     999901    1    3    3    0    0 -0.66664927550E-01 -0.96435335497E-01 -0.74079165927E-01  0.89086009526E+00  0.88000000000E+00 0.  1.
        -11    1    4    4    0    0  0.28422384916E-01  0.31658167808E-01  0.54292724609E-01  0.68978493893E-01  0.51100000000E-03 0.  1.
         11    1    4    4    0    0  0.22968215478E-01  0.60644797326E-01  0.21142536794E-01  0.68209957837E-01  0.51100000000E-03 0. -1.
</event>
<event>
 8    1  0.2928569E+004  0.1043930E+01  0.7957747E-01            NaN
         13   -1    0    0    0    0  0.00000000000E+00  0.00000000000E+00  0.74505805969E-08  0.10566000000E+00  0.10566000000E+00 0.  1.
     999900   -1    0    0    0    0 -0.00000000000E+00 -0.00000000000E+00 -0.74505805969E-08  0.93827000000E+00  0.93827000000E+00 0.  1.
     999902    2    1    2    0    0 -0.99352457343E-02 -0.91362703080E-02  0.58006059145E-04  0.10304324481E+01  0.10303440426E+01 0.  0.
     999903    2    3    3    0    0 -0.99954362532E-01 -0.58662450037E-01 -0.67792405586E-01  0.14186058142E+00  0.45787079758E-01 0.  0.
         14    1    1    2    0    0  0.99352457343E-02  0.91362703080E-02 -0.58006059145E-04  0.13497551913E-01  0.00000000000E+00 0.  1.
     999901    1    3    3    0    0  0.90019116798E-01  0.49526179729E-01  0.67850411645E-01  0.88857186666E+00  0.88000000000E+00 0. -1.
        -11    1    4    4    0    0 -0.47148291131E-01 -0.15577479819E-01 -0.62823028337E-02  0.50053448272E-01  0.51100000000E-03 0.  1.
         11    1    4    4    0    0 -0.52806071401E-01 -0.43084970218E-01 -0.61510102753E-01  0.91807133150E-01  0.51100000000E-03 0. -1.
</event>
<event>
 8    1  0.2928569E+004  0.1043930E+01  0.7957747E-01            NaN
         13   -1    0    0    0    0  0.00000000000E+00  0.00000000000E+00  0.74505805969E-08  0.10566000000E+00  0.10566000000E+00 0. -1.
     999900   -1    0    0    0    0 -0.00000000000E+00 -0.00000000000E+00 -0.74505805969E-08  0.93827000000E+00  0.93827000000E+00 0. -1.
     999902    2    1    2    0    0  0.10154029612E-01  0.26348795898E-02 -0.89454282779E-02  0.10301434995E+01  0.10300512424E+01 0.  0.
     999903    2    3    3    0    0 -0.12472605171E+00  0.31882624696E-02  0.39489116227E-01  0.13855006772E+00  0.45497010567E-01 0.  0.
         14    1    1    2    0    0 -0.10154029612E-01 -0.26348795898E-02  0.89454282779E-02  0.13786500458E-01  0.00000000000E+00 0. -1.
     999901    1    3    3    0    0  0.13488008133E+00 -0.55338287988E-03 -0.48434544505E-01  0.89159343182E+00  0.88000000000E+00 0. -1.
        -11    1    4    4    0    0 -0.97508386199E-01  0.47996298352E-02  0.96135047347E-02  0.98099961365E-01  0.51100000000E-03 0.  1.
         11    1    4    4    0    0 -0.27217665515E-01 -0.16113673655E-02  0.29875611492E-01  0.40450106352E-01  0.51100000000E-03 0. -1.
</event>
<event>
 8    1  0.2928569E+004  0.1043930E+01  0.7957747E-01            NaN
         13   -1    0    0    0    0  0.00000000000E+00  0.00000000000E+00  0.74505805969E-08  0.10566000000E+00  0.10566000000E+00 0.  1.
     999900   -1    0    0    0    0 -0.00000000000E+00 -0.00000000000E+00 -0.74505805969E-08  0.93827000000E+00  0.93827000000E+00 0.  1.
     999902    2    1    2    0    0 -0.79541227011E-02 -0.95098693575E-02  0.29816875968E-02  0.10311786807E+01  0.10310998377E+01 0.  0.
     999903    2    3    3    0    0  0.68391874367E-01 -0.32122340177E-01 -0.10976109503E+00  0.14042003205E+00  0.44283114169E-01 0.  0.
         14    1    1    2    0    0  0.79541227011E-02  0.95098693575E-02 -0.29816875968E-02  0.12751319307E-01  0.00000000000E+00 0. -1.
     999901    1    3    3    0    0 -0.76345997068E-01  0.22612470820E-01  0.11274278262E+00  0.89075864865E+00  0.88000000000E+00 0. -1.
        -11    1    4    4    0    0  0.48401435530E-01 -0.64125395954E-02 -0.89808320100E-01  0.10222335890E+00  0.51100000000E-03 0. -1.
         11    1    4    4    0    0  0.19990438838E-01 -0.25709800582E-01 -0.19952774926E-01  0.38196673142E-01  0.51100000000E-03 0.  1.
</event>
<event>
 8    1  0.2928569E+004  0.1043930E+01  0.7957747E-01            NaN
         13   -1    0    0    0    0  0.00000000000E+00  0.00000000000E+00  0.74505805969E-08  0.10566000000E+00  0.10566000000E+00 0. -1.
     999900   -1    0    0    0    0 -0.00000000000E+00 -0.00000000000E+00 -0.74505805969E-08  0.93827000000E+00  0.93827000000E+00 0. -1.
     999902    2    1    2    0    0 -0.86582834615E-02  0.98236858624E-02 -0.49269495544E-02  0.10299390919E+01  0.10298440598E+01 0.  0.
     999903    2    3    3    0    0 -0.13042689630E+00  0.27927370718E-01  0.69664801878E-03  0.14135203187E+00  0.46784594501E-01 0.  0.
         14    1    1    2    0    0  0.86582834615E-02 -0.98236858624E-02  0.49269495544E-02  0.13990908060E-01  0.00000000000E+00 0. -1.
     999901    1    3    3    0    0  0.12176861283E+00 -0.18103684855E-01 -0.56235975732E-02  0.88858706007E+00  0.88000000000E+00 0. -1.
        -11    1    4    4    0    0 -0.14927956814E-01  0.14752307708E-01 -0.12376232258E-01  0.24370201543E-01  0.51100000000E-03 0. -1.
         11    1    4    4    0    0 -0.11549893948E+00  0.13175063010E-01  0.13072880277E-01  0.11698183033E+00  0.51100000000E-03 0.  1.
</event>
<event>
 8    1  0.2928569E+004  0.1043930E+01  0.7957747E-01            NaN
         13   -1    0    0    0    0  0.00000000000E+00  0.00000000000E+00  0.74505805969E-08  0.10566000000E+00  0.10566000000E+00 0. -1.
     999900   -1    0    0    0    0 -0.00000000000E+00 -0.00000000000E+00 -0.74505805969E-08  0.93827000000E+00  0.93827000000E+00 0. -1.
     999902    2    1    2    0    0  0.11498236587E-01 -0.49424242309E-02  0.79070668110E-02  0.10291259902E+01  0.10290195066E+01 0.  0.
     999903    2    3    3    0    0  0.86802375216E-01  0.91623744727E-01 -0.38488302549E-01  0.13943600562E+00  0.45072023362E-01 0.  0.
         14    1    1    2    0    0 -0.11498236587E-01  0.49424242309E-02 -0.79070668110E-02  0.14804009843E-01  0.00000000000E+00 0. -1.
     999901    1    3    3    0    0 -0.75304138629E-01 -0.96566168958E-01  0.46395369360E-01  0.88968998453E+00  0.88000000000E+00 0. -1.
        -11    1    4    4    0    0  0.87769829841E-03  0.23900206893E-01 -0.15887656887E-02  0.23974476871E-01  0.51100000000E-03 0.  1.
         11    1    4    4    0    0  0.85924676918E-01  0.67723537835E-01 -0.36899536860E-01  0.11546152875E+00  0.51100000000E-03 0. -1.
</event>
<event>
 8    1  0.2928569E+004  0.1043930E+01  0.7957747E-01            NaN
         13   -1    0    0    0    0  0.00000000000E+00  0.00000000000E+00  0.74505805969E-08  0.10566000000E+00  0.10566000000E+00 0.  1.
     999900   -1    0    0    0    0 -0.00000000000E+00 -0.00000000000E+00 -0.74505805969E-08  0.93827000000E+00  0.93827000000E+00 0.  1.
     999902    2    1    2    0    0  0.89478523631E-02 -0.94735979298E-02  0.85575601027E-02  0.10283401009E+01  0.10282219207E+01 0.  0.
     999903    2    3    3    0    0 -0.92720484148E-01 -0.84490880588E-01 -0.37906475694E-01  0.13810252025E+00  0.43584493990E-01 0.  0.
         14    1    1    2    0    0 -0.89478523631E-02  0.94735979298E-02 -0.85575601027E-02  0.15589899120E-01  0.00000000000E+00 0. -1.
     999901    1    3    3    0    0  0.10166833651E+00  0.75017282658E-01  0.46464035797E-01  0.89023758063E+00  0.88000000000E+00 0. -1.
        -11    1    4    4    0    0 -0.41314420919E-01 -0.18241187695E-01  0.20538789815E-02  0.45211744540E-01  0.51100000000E-03 0. -1.
         11    1    4    4    0    0 -0.51406063228E-01 -0.66249692893E-01 -0.39960354676E-01  0.92890775709E-01  0.51100000000E-03 0.  1.
</event>
<event>
 8    1  0.2928569E+004  0.1043930E+01  0.7957747E-01            NaN
         13   -1    0    0    0    0  0.00000000000E+00  0.00000000000E+00  0.74505805969E-08  0.10566000000E+00  0.10566000000E+00 0. -1.
     999900   -1    0    0    0    0 -0.00000000000E+00 -0.00000000000E+00 -0.74505805969E-08  0.93827000000E+00  0.93827000000E+00 0.  1.
     999902    2    1    2    0    0 -0.12456843980E-01 -0.45992445685E-02 -0.92979885582E-02  0.10277195526E+01  0.10275916992E+01 0.  0.
     999903    2    3    3    0    0 -0.10554825717E+00 -0.70855207074E-01  0.32744691016E-01  0.13933706143E+00  0.46708745835E-01 0.  0.
         14    1    1    2    0    0  0.12456843980E-01  0.45992445685E-02  0.92979885582E-02  0.16210447365E-01  0.00000000000E+00 0. -1.
     999901    1    3    3    0    0  0.93091413187E-01  0.66255962505E-01 -0.42042679574E-01  0.88838249121E+00  0.88000000000E+00 0.  1.
        -11    1    4    4    0    0 -0.10059956091E+00 -0.77592261041E-01  0.30263019134E-01  0.13060222845E+00  0.51100000000E-03 0.  1.
         11    1    4    4    0    0 -0.49486962584E-02  0.67370539672E-02  0.24816718818E-02  0.87348329774E-02  0.51100000000E-03 0. -1.
</event>
<event>
 8    1  0.2928569E+004  0.1043930E+01  0.7957747E-01            NaN
         13   -1    0    0    0    0  0.00000000000E+00  0.00000000000E+00  0.74505805969E-08  0.10566000000E+00  0.10566000000E+00 0.  1.
     999900   -1    0    0    0    0 -0.00000000000E+00 -0.00000000000E+00 -0.74505805969E-08  0.93827000000E+00  0.93827000000E+00 0.  1.
     999902    2    1    2    0    0  0.92511073732E-02 -0.10946242111E-03  0.11192476059E-01  0.10294087573E+01  0.10293063310E+01 0.  0.
     999903    2    3    3    0    0 -0.60566244781E-01  0.12418620150E-01 -0.11423446515E+00  0.13768944433E+00  0.45676886045E-01 0.  0.
         14    1    1    2    0    0 -0.92511073732E-02  0.10946242111E-03 -0.11192476059E-01  0.14521242715E-01  0.00000000000E+00 0. -1.
     999901    1    3    3    0    0  0.69817352154E-01 -0.12528082571E-01  0.12542694121E+00  0.89171931295E+00  0.88000000000E+00 0. -1.
        -11    1    4    4    0    0 -0.10795610707E-01  0.22621022310E-01 -0.27857381352E-01  0.37477335520E-01  0.51100000000E-03 0. -1.
         11    1    4    4    0    0 -0.49770634073E-01 -0.10202402160E-01 -0.86377083797E-01  0.10021210881E+00  0.51100000000E-03 0.  1.
</event>
<event>
 8    1  0.2928569E+004  0.1043930E+01  0.7957747E-01            NaN
         13   -1    0    0    0    0  0.00000000000E+00  0.00000000000E+00  0.74505805969E-08  0.10566000000E+00  0.10566000000E+00 0. -1.
     999900   -1    0    0    0    0 -0.00000000000E+00 -0.00000000000E+00 -0.74505805969E-08  0.93827000000E+00  0.93827000000E+00 0. -1.
     999902    2    1    2    0    0  0.56218838412E-03  0.10093802486E-01  0.14095286857E-01  0.10265841643E+01  0.10264376106E+01 0.  0.
     999903    2    3    3    0    0  0.87910971185E-01  0.95661788533E-01  0.12856980925E-01  0.13812863728E+00  0.45107669405E-01 0.  0.
         14    1    1    2    0    0 -0.56218838412E-03 -0.10093802486E-01 -0.14095286857E-01  0.17345835696E-01  0.00000000000E+00 0. -1.
     999901    1    3    3    0    0 -0.87348782801E-01 -0.85567986048E-01  0.12383059319E-02  0.88845552702E+00  0.88000000000E+00 0. -1.
        -11    1    4    4    0    0  0.50145797740E-02 -0.12581952897E-03  0.10250799234E-01  0.11423740490E-01  0.51100000000E-03 0.  1.
         11    1    4    4    0    0  0.82896391411E-01  0.95787608062E-01  0.26061816913E-02  0.12670489679E+00  0.51100000000E-03 0. -1.
</event>
<event>
 8    1  0.2928569E+004  0.1043930E+01  0.7957747E-01            NaN
         13   -1    0    0    0    0  0.00000000000E+00  0.00000000000E+00  0.74505805969E-08  0.10566000000E+00  0.10566000000E+00 0.  1.
     999900   -1    0    0    0    0 -0.00000000000E+00 -0.00000000000E+00 -0.74505805969E-08  0.93827000000E+00  0.93827000000E+00 0. -1.
     999902    2    1    2    0    0  0.59544869726E-02 -0.60524715113E-02 -0.10807127387E-01  0.10301865532E+01  0.10300948753E+01 0.  0.
     999903    2    3    3    0    0 -0.12964024715E+00  0.14752555685E-01  0.17013113133E-01  0.13912384677E+00  0.45185917527E-01 0.  0.
         14    1    1    2    0    0 -0.59544869726E-02  0.60524715113E-02  0.10807127387E-01  0.13743446760E-01  0.00000000000E+00 0.  1.
     999901    1    3    3    0    0  0.13559473412E+00 -0.20805027197E-01 -0.27820240519E-01  0.89106270647E+00  0.88000000000E+00 0. -1.
        -11    1    4    4    0    0 -0.31230988330E-01 -0.16392034219E-02 -0.14531944441E-01  0.34489130899E-01  0.51100000000E-03 0. -1.
         11    1    4    4    0    0 -0.98409258815E-01  0.16391759107E-01  0.31545057574E-01  0.10463471587E+00  0.51100000000E-03 0.  1.
</event>
<event>
 8    1  0.2928569E+004  0.1043930E+01  0.7957747E-01            NaN
         13   -1    0    0    0    0  0.00000000000E+00  0.00000000000E+00  0.74505805969E-08  0.10566000000E+00  0.10566000000E+00 0. -1.
     999900   -1    0    0    0    0 -0.00000000000E+00 -0.00000000000E+00 -0.74505805969E-08  0.93827000000E+00  0.93827000000E+00 0.  1.
     999902    2    1    2    0    0  0.90463770325E-03  0.75489065852E-03 -0.14566933394E-01  0.10293154943E+01  0.10292117386E+01 0.  0.
     999903    2    3    3    0    0 -0.80706812704E-01 -0.41856846286E-01  0.92934609933E-01  0.13800591237E+00  0.46294761348E-01 0.  0.
         14    1    1    2    0    0 -0.90463770325E-03 -0.75489065852E-03  0.14566933394E-01  0.14614505732E-01  0.00000000000E+00 0. -1.
     999901    1    3    3    0    0  0.81611450407E-01  0.42611736944E-01 -0.10750154333E+00  0.89130958190E+00  0.88000000000E+00 0.  1.
        -11    1    4    4    0    0 -0.33560291533E-01  0.47226455846E-02  0.19577460519E-01  0.39142491368E-01  0.51100000000E-03 0. -1.
         11    1    4    4    0    0 -0.47146521170E-01 -0.46579491870E-01  0.73357149414E-01  0.98863421003E-01  0.51100000000E-03 0.  1.
</event>
<event>
 8    1  0.2928569E+004  0.1043930E+01  0.7957747E-01            NaN
         13   -1    0    0    0    0  0.00000000000E+00  0.00000000000E+00  0.74505805969E-08  0.10566000000E+00  0.10566000000E+00 0. -1.
     999900   -1    0    0    0    0 -0.00000000000E+00 -0.00000000000E+00 -0.74505805969E-08  0.93827000000E+00  0.93827000000E+00 0. -1.
     999902    2    1    2    0    0  0.29602871155E-02  0.11143741177E-01  0.89340933213E-02  0.10293435580E+01  0.10292402033E+01 0.  0.
     999903    2    3    3    0    0  0.92198533458E-01 -0.65539146623E-01  0.71923296500E-01  0.13928099299E+00  0.37819110460E-01 0.  0.
         14    1    1    2    0    0 -0.29602871155E-02 -0.11143741177E-01 -0.89340933213E-02  0.14586442016E-01  0.00000000000E+00 0.  1.
     999901    1    3    3    0    0 -0.89238246343E-01  0.76682887800E-01 -0.62989203179E-01  0.89006256500E+00  0.88000000000E+00 0. -1.
        -11    1    4    4    0    0  0.63198156388E-01 -0.31675450591E-01  0.61003950242E-01  0.93376036579E-01  0.51100000000E-03 0. -1.
         11    1    4    4    0    0  0.29000377071E-01 -0.33863696032E-01  0.10919346258E-01  0.45904956408E-01  0.51100000000E-03 0.  1.
</event>
<event>
 8    1  0.2928569E+004  0.1043930E+01  0.7957747E-01            NaN
         13   -1    0    0    0    0  0.00000000000E+00  0.00000000000E+00  0.74505805969E-08  0.10566000000E+00  0.10566000000E+00 0. -1.
     999900   -1    0    0    0    0 -0.00000000000E+00 -0.00000000000E+00 -0.74505805969E-08  0.93827000000E+00  0.93827000000E+00 0. -1.
     999902    2    1    2    0    0  0.14252614140E-01  0.36891728687E-03 -0.14398801979E-02  0.10296000885E+01  0.10295003622E+01 0.  0.
     999903    2    3    3    0    0 -0.11264681496E+00 -0.62033474336E-02  0.65191101034E-01  0.13798001947E+00  0.45396251802E-01 0.  0.
         14    1    1    2    0    0 -0.14252614140E-01 -0.36891728687E-03  0.14398801979E-02  0.14329911541E-01  0.00000000000E+00 0.  1.
     999901    1    3    3    0    0  0.12689942910E+00  0.65722647205E-02 -0.66630981231E-01  0.89162006899E+00  0.88000000000E+00 0. -1.
        -11    1    4    4    0    0 -0.10294851697E-01 -0.78619492560E-02  0.24701660932E-01  0.27896727252E-01  0.51100000000E-03 0.  1.
         11    1    4    4    0    0 -0.10235196326E+00  0.16586018224E-02  0.40489440101E-01  0.11008329221E+00  0.51100000000E-03 0. -1.
</event>
<event>
 8    1  0.2928569E+004  0.1043930E+01  0.7957747E-01            NaN
         13   -1    0    0    0    0  0.00000000000E+00  0.00000000000E+00  0.74505805969E-08  0.10566000000E+00  0.10566000000E+00 0.  1.
     999900   -1    0    0    0    0 -0.00000000000E+00 -0.00000000000E+00 -0.74505805969E-08  0.93827000000E+00  0.93827000000E+00 0. -1.
     999902    2    1    2    0    0  0.88830739395E-02 -0.64500518775E-02  0.90830824506E-02  0.10296816823E+01  0.10295830963E+01 0.  0.
     999903    2    3    3    0    0  0.68885997072E-01  0.11131764931E+00 -0.13902946672E-01  0.13951431610E+00  0.46195809668E-01 0.  0.
         14    1    1    2    0    0 -0.88830739395E-02  0.64500518775E-02 -0.90830824506E-02  0.14248317748E-01  0.00000000000E+00 0. -1.
     999901    1    3    3    0    0 -0.60002923133E-01 -0.11776770118E+00  0.22986029122E-01  0.89016736615E+00  0.88000000000E+00 0.  1.
        -11    1    4    4    0    0  0.20860893593E-01  0.71795735575E-01  0.37453791218E-02  0.74860493680E-01  0.51100000000E-03 0.  1.
         11    1    4    4    0    0  0.48025103479E-01  0.39521913732E-01 -0.17648325793E-01  0.64653822420E-01  0.51100000000E-03 0. -1.
</event>
<event>
 8    1  0.2928569E+004  0.1043930E+01  0.7957747E-01            NaN
         13   -1    0    0    0    0  0.00000000000E+00  0.00000000000E+00  0.74505805969E-08  0.10566000000E+00  0.10566000000E+00 0. -1.
     999900   -1    0    0    0    0 -0.00000000000E+00 -0.00000000000E+00 -0.74505805969E-08  0.93827000000E+00  0.93827000000E+00 0.  1.
     999902    2    1    2    0    0 -0.11127008787E-01 -0.71315034469E-02  0.40870160341E-02  0.10300962599E+01  0.10300033652E+01 0.  0.
     999903    2    3    3    0    0  0.88363815705E-01  0.60756523313E-01 -0.74715801411E-01  0.13840287514E+00  0.45534446465E-01 0.  0.
         14    1    1    2    0    0  0.11127008787E-01  0.71315034469E-02 -0.40870160341E-02  0.13833740131E-01  0.00000000000E+00 0.  1.
     999901    1    3    3    0    0 -0.99490824492E-01 -0.67888026760E-01  0.78802817445E-01  0.89169338473E+00  0.88000000000E+00 0. -1.
        -11    1    4    4    0    0  0.61825492573E-01  0.62383456830E-01 -0.45573985548E-01  0.98951182397E-01  0.51100000000E-03 0. -1.
         11    1    4    4    0    0  0.26538323132E-01 -0.16269335179E-02 -0.29141815863E-01  0.39451692741E-01  0.51100000000E-03 0.  1.
</event>
<event>
 8    1  0.2928569E+004  0.1043930E+01  0.7957747E-01            NaN
         13   -1    0    0    0    0  0.00000000000E+00  0.00000000000E+00  0.74505805969E-08  0.10566000000E+00  0.10566000000E+00 0.  1.
     999900   -1    0    0    0    0 -0.00000000000E+00 -0.00000000000E+00 -0.74505805969E-08  0.93827000000E+00  0.93827000000E+00 0.  1.
     999902    2    1    2    0    0  0.13926347763E-01  0.35575044484E-02 -0.32417799868E-02  0.10291954102E+01  0.10290899301E+01 0.  0.
     999903    2    3    3    0    0 -0.12310727780E+00  0.36090896078E-01 -0.68200710902E-02  0.13798867755E+00  0.50362755421E-01 0.  0.
         14    1    1    2    0    0 -0.13926347763E-01 -0.35575044484E-02  0.32417799868E-02  0.14734589828E-01  0.00000000000E+00 0.  1.
     999901    1    3    3    0    0  0.13703362557E+00 -0.32533391629E-01  0.35782911033E-02  0.89120673262E+00  0.88000000000E+00 0.  1.
        -11    1    4    4    0    0 -0.67770869754E-01 -0.62703392341E-02 -0.12242657316E-02  0.68073253844E-01  0.51100000000E-03 0. -1.
         11    1    4    4    0    0 -0.55336408050E-01  0.42361235312E-01 -0.55958053586E-02  0.69915423703E-01  0.51100000000E-03 0.  1.
</event>
<event>
 8    1  0.2928569E+004  0.1043930E+01  0.7957747E-01            NaN
         13   -1    0    0    0    0  0.00000000000E+00  0.00000000000E+00  0.74505805969E-08  0.10566000000E+00  0.10566000000E+00 0. -1.
     999900   -1    0    0    0    0 -0.00000000000E+00 -0.00000000000E+00 -0.74505805969E-08  0.93827000000E+00  0.93827000000E+00 0. -1.
     999902    2    1    2    0    0  0.64656052208E-02  0.11406516989E-01  0.50697419524E-02  0.10298724410E+01  0.10297764951E+01 0.  0.
     999903    2    3    3    0    0 -0.32635607346E-01 -0.10810641249E+00  0.66766429182E-01  0.13879515687E+00  0.45323947497E-01 0.  0.
         14    1    1    2    0    0 -0.64656052208E-02 -0.11406516989E-01 -0.50697419524E-02  0.14057558968E-01  0.00000000000E+00 0.  1.
     999901    1    3    3    0    0  0.39101212567E-01  0.11951292948E+00 -0.61696687230E-01  0.89107728416E+00  0.88000000000E+00 0.  1.
        -11    1    4    4    0    0 -0.10959512583E-01 -0.22258257410E-03  0.21410233750E-02  0.11180588587E-01  0.51100000000E-03 0. -1.
         11    1    4    4    0    0 -0.21676094763E-01 -0.10788382991E+00  0.64625405807E-01  0.12761456828E+00  0.51100000000E-03 0.  1.
</event>
<event>
 8    1  0.2928569E+004  0.1043930E+01  0.7957747E-01            NaN
         13   -1    0    0    0    0  0.00000000000E+00  0.00000000000E+00  0.74505805969E-08  0.10566000000E+00  0.10566000000E+00 0. -1.
     999900   -1    0    0    0    0 -0.00000000000E+00 -0.00000000000E+00 -0.74505805969E-08  0.93827000000E+00  0.93827000000E+00 0.  1.
     999902    2    1    2    0    0  0.10135943339E-01  0.65664182032E-02  0.65640941600E-02  0.10301843633E+01  0.10300926560E+01 0.  0.
     999903    2    3    3    0    0  0.23889785419E-01 -0.79002830846E-01 -0.10488827545E+00  0.13893081060E+00  0.38575259917E-01 0.  0.
         14    1    1    2    0    0 -0.10135943339E-01 -0.65664182032E-02 -0.65640941600E-02  0.13745636673E-01  0.00000000000E+00 0.  1.
     999901    1    3    3    0    0 -0.13753842080E-01  0.85569249049E-01  0.11145236961E+00  0.89125355273E+00  0.88000000000E+00 0. -1.
        -11    1    4    4    0    0  0.13876941643E-01 -0.56753363011E-01 -0.43418260134E-01  0.72793682119E-01  0.51100000000E-03 0. -1.
         11    1    4    4    0    0  0.10012843776E-01 -0.22249467835E-01 -0.61470015320E-01  0.66137128482E-01  0.51100000000E-03 0.  1.
</event>
<event>
 8    1  0.2928569E+004  0.1043930E+01  0.7957747E-01            NaN
         13   -1    0    0    0    0  0.00000000000E+00  0.00000000000E+00  0.74505805969E-08  0.10566000000E+00  0.10566000000E+00 0.  1.
     999900   -1    0    0    0    0 -0.00000000000E+00 -0.00000000000E+00 -0.74505805969E-08  0.93827000000E+00  0.93827000000E+00 0. -1.
     999902    2    1    2    0    0 -0.11535439041E-01  0.34380634990E-02 -0.43656834892E-02  0.10311258668E+01  0.10310463653E+01 0.  0.
     999903    2    3    3    0    0  0.28435916515E-01 -0.11253106482E+00 -0.65143036010E-01  0.14054154482E+00  0.45127251000E-01 0.  0.
         14    1    1    2    0    0  0.11535439041E-01 -0.34380634990E-02  0.43656834892E-02  0.12804133193E-01  0.00000000000E+00 0.  1.
     999901    1    3    3    0    0 -0.39971355557E-01  0.11596912832E+00  0.60777352521E-01  0.89058432199E+00  0.88000000000E+00 0. -1.
        -11    1    4    4    0    0  0.38069916962E-01 -0.89541806511E-01 -0.40208028057E-01  0.10528057908E+00  0.51100000000E-03 0.  1.
         11    1    4    4    0    0 -0.96340004471E-02 -0.22989258307E-01 -0.24935007954E-01  0.35260965738E-01  0.51100000000E-03 0. -1.
</event>
<event>
 8    1  0.2928569E+004  0.1043930E+01  0.7957747E-01            NaN
         13   -1    0    0    0    0  0.00000000000E+00  0.00000000000E+00  0.74505805969E-08  0.10566000000E+00  0.10566000000E+00 0.  1.
     999900   -1    0    0    0    0 -0.00000000000E+00 -0.00000000000E+00 -0.74505805969E-08  0.93827000000E+00  0.93827000000E+00 0.  1.
     999902    2    1    2    0    0 -0.75838141929E-02  0.22401466798E-02  0.11818513933E-01  0.10297099520E+01  0.10296117595E+01 0.  0.
     999903    2    3    3    0    0 -0.12324058738E+00  0.84598238909E-02  0.51788793964E-01  0.14122089921E+00  0.44737592632E-01 0.  0.
         14    1    1    2    0    0  0.75838141929E-02 -0.22401466798E-02 -0.11818513933E-01  0.14220048046E-01  0.00000000000E+00 0. -1.
     999901    1    3    3    0    0  0.11565677318E+00 -0.62196772111E-02 -0.39970280031E-01  0.88848905275E+00  0.88000000000E+00 0.  1.
        -11    1    4    4    0    0 -0.26482051674E-01  0.15982839949E-02 -0.74485935437E-02  0.27560773563E-01  0.51100000000E-03 0. -1.
         11    1    4    4    0    0 -0.96758535704E-01  0.68615398960E-02  0.59237387508E-01  0.11366012564E+00  0.51100000000E-03 0.  1.
</event>
<event>
 8    1  0.2928569E+004  0.1043930E+01  0.7957747E-01            NaN
         13   -1    0    0    0    0  0.00000000000E+00  0.00000000000E+00  0.74505805969E-08  0.10566000000E+00  0.10566000000E+00 0. -1.
     999900   -1    0    0    0    0 -0.00000000000E+00 -0.00000000000E+00 -0.74505805969E-08  0.93827000000E+00  0.93827000000E+00 0.  1.
     999902    2    1    2    0    0  0.68688441454E-02  0.61874554235E-02  0.99049588390E-02  0.10303810578E+01  0.10302919734E+01 0.  0.
     999903    2    3    3    0    0  0.12272892908E+00  0.42517726838E-01  0.32495222354E-01  0.14175640821E+00  0.46570298073E-01 0.  0.
         14    1    1    2    0    0 -0.68688441454E-02 -0.61874554235E-02 -0.99049588390E-02  0.13548942177E-01  0.00000000000E+00 0.  1.
     999901    1    3    3    0    0 -0.11586008494E+00 -0.36330271415E-01 -0.22590263515E-01  0.88862464962E+00  0.88000000000E+00 0. -1.
        -11    1    4    4    0    0  0.83343722989E-01  0.15141030571E-01  0.39167979678E-01  0.93326409561E-01  0.51100000000E-03 0.  1.
         11    1    4    4    0    0  0.39385206091E-01  0.27376696268E-01 -0.66727573239E-02  0.48429998645E-01  0.51100000000E-03 0. -1.
</event>
<event>
 8    1  0.2928569E+004  0.1043930E+01  0.7957747E-01            NaN
         13   -1    0    0    0    0  0.00000000000E+00  0.00000000000E+00  0.74505805969E-08  0.10566000000E+00  0.10566000000E+00 0. -1.
     999900   -1    0    0    0    0 -0.00000000000E+00 -0.00000000000E+00 -0.74505805969E-08  0.93827000000E+00  0.93827000000E+00 0. -1.
     999902    2    1    2    0    0 -0.11211526414E-01 -0.35944862681E-02 -0.63039503845E-02  0.10305749093E+01  0.10304883722E+01 0.  0.
     999903    2    3    3    0    0  0.80135335727E-01 -0.80057604075E-01 -0.67239361619E-01  0.14046032012E+00  0.48755284574E-01 0.  0.
         14    1    1    2    0    0  0.11211526414E-01  0.35944862681E-02  0.63039503845E-02  0.13355090659E-01  0.00000000000E+00 0. -1.
     999901    1    3    3    0    0 -0.91346862141E-01  0.76463117807E-01  0.60935411234E-01  0.89011458922E+00  0.88000000000E+00 0.  1.
        -11    1    4    4    0    0  0.49561883438E-01 -0.77778359867E-01 -0.45271403161E-01  0.10274052082E+00  0.51100000000E-03 0.  1.
         11    1    4    4    0    0  0.30573452289E-01 -0.22792442085E-02 -0.21967958458E-01  0.37719799295E-01  0.51100000000E-03 0. -1.
</event>
<event>
 8    1  0.2928569E+004  0.1043930E+01  0.7957747E-01            NaN
         13   -1    0    0    0    0  0.00000000000E+00  0.00000000000E+00  0.74505805969E-08  0.10566000000E+00  0.10566000000E+00 0.  1.
     999900   -1    0    0    0    0 -0.00000000000E+00 -0.00000000000E+00 -0.74505805969E-08  0.93827000000E+00  0.93827000000E+00 0. -1.
     999902    2    1    2    0    0 -0.52331806372E-02 -0.13484397162E-01  0.15533880405E-02  0.10293825548E+01  0.10292797560E+01 0.  0.
     999903    2    3    3    0    0 -0.12249275614E+00  0.15900527551E-01  0.47982391421E-01  0.13990577931E+00  0.44877779732E-01 0.  0.
         14    1    1    2    0    0  0.52331806372E-02  0.13484397162E-01 -0.15533880405E-02  0.14547445164E-01  0.00000000000E+00 0.  1.
     999901    1    3    3    0    0  0.11725957550E+00 -0.29384924712E-01 -0.46429003380E-01  0.88947677553E+00  0.88000000000E+00 0. -1.
        -11    1    4    4    0    0 -0.96220113128E-01  0.29372645981E-03  0.51507002381E-01  0.10914040893E+00  0.51100000000E-03 0.  1.
         11    1    4    4    0    0 -0.26272643014E-01  0.15606801091E-01 -0.35246109604E-02  0.30765370380E-01  0.51100000000E-03 0. -1.
</event>
<event>
 8    1  0.2928569E+004  0.1043930E+01  0.7957747E-01            NaN
         13   -1    0    0    0    0  0.00000000000E+00  0.00000000000E+00  0.74505805969E-08  0.10566000000E+00  0.10566000000E+00 0.  1.
     999900   -1    0    0    0    0 -0.00000000000E+00 -0.00000000000E+00 -0.74505805969E-08  0.93827000000E+00  0.93827000000E+00 0.  1.
     999902    2    1    2    0    0 -0.23856697555E-02 -0.84928341813E-02 -0.11480355062E-01  0.10294518024E+01  0.10293499868E+01 0.  0.
     999903    2    3    3    0    0 -0.12050842071E+00  0.52274367123E-01 -0.12834842204E-01  0.13948131321E+00  0.45115569809E-01 0.  0.
         14    1    1    2    0    0  0.23856697555E-02  0.84928341813E-02  0.11480355062E-01  0.14478197573E-01  0.00000000000E+00 0. -1.
     999901    1    3    3    0    0  0.11812275096E+00 -0.60767201304E-01  0.13544871422E-02  0.88997048922E+00  0.88000000000E+00 0. -1.
        -11    1    4    4    0    0 -0.52637735024E-01  0.26933652269E-02  0.68538200089E-02  0.53152811162E-01  0.51100000000E-03 0. -1.
         11    1    4    4    0    0 -0.67870685687E-01  0.49581001896E-01 -0.19688662213E-01  0.86328502045E-01  0.51100000000E-03 0.  1.
</event>
<event>
 8    1  0.2928569E+004  0.1043930E+01  0.7957747E-01            NaN
         13   -1    0    0    0    0  0.00000000000E+00  0.00000000000E+00  0.74505805969E-08  0.10566000000E+00  0.10566000000E+00 0.  1.
     999900   -1    0    0    0    0 -0.00000000000E+00 -0.00000000000E+00 -0.74505805969E-08  0.93827000000E+00  0.93827000000E+00 0.  1.
     999902    2    1    2    0    0 -0.10325512230E-01  0.18427082636E-03 -0.78096674899E-02  0.10309823722E+01  0.10309010674E+01 0.  0.
     999903    2    3    3    0    0 -0.30965670492E-01  0.49374977973E-01  0.11966954415E+00  0.14019805984E+00  0.44021982994E-01 0.  0.
         14    1    1    2    0    0  0.10325512230E-01 -0.18427082636E-03  0.78096674899E-02  0.12947627769E-01  0.00000000000E+00 0.  1.
     999901    1    3    3    0    0  0.20640158262E-01 -0.49190707146E-01 -0.12747921164E+00  0.89078431239E+00  0.88000000000E+00 0.  1.
        -11    1    4    4    0    0 -0.31201722427E-03 -0.59162346941E-02  0.29372482588E-01  0.29968367358E-01  0.51100000000E-03 0.  1.
         11    1    4    4    0    0 -0.30653653268E-01  0.55291212667E-01  0.90297061562E-01  0.11022969248E+00  0.51100000000E-03 0. -1.
</event>
<event>
 8    1  0.2928569E+004  0.1043930E+01  0.7957747E-01            NaN
         13   -1    0    0    0    0  0.00000000000E+00  0.00000000000E+00  0.74505805969E-08  0.10566000000E+00  0.10566000000E+00 0. -1.
     999900   -1    0    0    0    0 -0.00000000000E+00 -0.00000000000E+00 -0.74505805969E-08  0.93827000000E+00  0.93827000000E+00 0.  1.
     999902    2    1    2    0    0 -0.14708621994E-01 -0.11821460324E-02 -0.28416709202E-02  0.10289028205E+01  0.10287930783E+01 0.  0.
     999903    2    3    3    0    0 -0.14587545755E-01 -0.13055918755E+00 -0.13321062414E-01  0.13938145978E+00  0.44623342338E-01 0.  0.
         14    1    1    2    0    0  0.14708621994E-01  0.11821460324E-02  0.28416709202E-02  0.15027179504E-01  0.00000000000E+00 0.  1.
     999901    1    3    3    0    0 -0.12107623955E-03  0.12937704151E+00  0.10479391494E-01  0.88952136072E+00  0.88000000000E+00 0.  1.
        -11    1    4    4    0    0 -0.22774704640E-01 -0.54220909742E-01 -0.20467632963E-01  0.62271818223E-01  0.51100000000E-03 0.  1.
         11    1    4    4    0    0  0.81871588854E-02 -0.76338277805E-01  0.71465705492E-02  0.77109641553E-01  0.51100000000E-03 0. -1.
</event>
<event>
 8    1  0.2928569E+004  0.1043930E+01  0.7957747E-01            NaN
         13   -1    0    0    0    0  0.00000000000E+00  0.00000000000E+00  0.74505805969E-08  0.10566000000E+00  0.10566000000E+00 0.  1.
     999900   -1    0    0    0    0 -0.00000000000E+00 -0.00000000000E+00 -0.74505805969E-08  0.93827000000E+00  0.93827000000E+00 0. -1.
     999902    2    1    2    0    0  0.61177390301E-02 -0.56066965715E-02  0.10973842267E-01  0.10301718391E+01  0.10300799634E+01 0.  0.
     999903    2    3    3    0    0  0.12279835167E+00 -0.25263609339E-01  0.45507394351E-01  0.14158119892E+00  0.47503976864E-01 0.  0.
         14    1    1    2    0    0 -0.61177390301E-02  0.56066965715E-02 -0.10973842267E-01  0.13758160901E-01  0.00000000000E+00 0. -1.
     999901    1    3    3    0    0 -0.11668061264E+00  0.19656912767E-01 -0.34533552084E-01  0.88859064017E+00  0.88000000000E+00 0. -1.
        -11    1    4    4    0    0  0.68767687537E-01 -0.15935866362E-01  0.42158908423E-03  0.70593098418E-01  0.51100000000E-03 0.  1.
         11    1    4    4    0    0  0.54030664136E-01 -0.93277429772E-02  0.45085805267E-01  0.70988100507E-01  0.51100000000E-03 0. -1.
</event>
<event>
 8    1  0.2928569E+004  0.1043930E+01  0.7957747E-01            NaN
         13   -1    0    0    0    0  0.00000000000E+00  0.00000000000E+00  0.74505805969E-08  0.10566000000E+00  0.10566000000E+00 0.  1.
     999900   -1    0    0    0    0 -0.00000000000E+00 -0.00000000000E+00 -0.74505805969E-08  0.93827000000E+00  0.93827000000E+00 0. -1.
     999902    2    1    2    0    0  0.77172522146E-02  0.53811197786E-02 -0.11399638450E-01  0.10291494659E+01  0.10290433222E+01 0.  0.
     999903    2    3    3    0    0 -0.12121104038E+00  0.39078085329E-01 -0.25312741735E-01  0.13900814870E+00  0.49631818901E-01 0.  0.
         14    1    1    2    0    0 -0.77172522146E-02 -0.53811197786E-02  0.11399638450E-01  0.14780534111E-01  0.00000000000E+00 0.  1.
     999901    1    3    3    0    0  0.12892829260E+00 -0.33696965551E-01  0.13913103285E-01  0.89014131719E+00  0.88000000000E+00 0. -1.
        -11    1    4    4    0    0 -0.89459380434E-01  0.41282994687E-01 -0.30450327604E-03  0.98527256337E-01  0.51100000000E-03 0.  1.
         11    1    4    4    0    0 -0.31751659951E-01 -0.22049093581E-02 -0.25008238459E-01  0.40480892366E-01  0.51100000000E-03 0. -1.
</event>
<event>
 8    1  0.2928569E+004  0.1043930E+01  0.7957747E-01            NaN
         13   -1    0    0    0    0  0.00000000000E+00  0.00000000000E+00  0.74505805969E-08  0.10566000000E+00  0.10566000000E+00 0. -1.
     999900   -1    0    0    0    0 -0.00000000000E+00 -0.00000000000E+00 -0.74505805969E-08  0.93827000000E+00  0.93827000000E+00 0. -1.
     999902    2    1    2    0    0  0.43040120203E-02  0.12767819168E-01 -0.27987500492E-02  0.10301686510E+01  0.10300767324E+01 0.  0.
     999903    2    3    3    0    0 -0.12620231239E+00  0.19339849624E-01  0.34464322196E-01  0.13973974933E+00  0.45148140632E-01 0.  0.
         14    1    1    2    0    0 -0.43040120203E-02 -0.12767819168E-01  0.27987500492E-02  0.13761349048E-01  0.00000000000E+00 0. -1.
     999901    1    3    3    0    0  0.13050632441E+00 -0.65720304566E-02 -0.37263072245E-01  0.89042890162E+00  0.88000000000E+00 0. -1.
        -11    1    4    4    0    0 -0.72935745843E-01  0.13774818914E-01 -0.31474215792E-02  0.74293580082E-01  0.51100000000E-03 0.  1.
         11    1    4    4    0    0 -0.53266566544E-01  0.55650307106E-02  0.37611743775E-01  0.65446169246E-01  0.51100000000E-03 0. -1.
</event>
<event>
 8    1  0.2928569E+004  0.1043930E+01  0.7957747E-01            NaN
         13   -1    0    0    0    0  0.00000000000E+00  0.00000000000E+00  0.74505805969E-08  0.10566000000E+00  0.10566000000E+00 0. -1.
     999900   -1    0    0    0    0 -0.00000000000E+00 -0.00000000000E+00 -0.74505805969E-08  0.93827000000E+00  0.93827000000E+00 0. -1.
     999902    2    1    2    0    0  0.53713935095E-02  0.58483655021E-02 -0.97956212982E-02  0.10313201053E+01  0.10312430122E+01 0.  0.
     999903    2    3    3    0    0  0.41089791552E-01  0.75455266360E-01 -0.10473287437E+00  0.14276284401E+00  0.45059809866E-01 0.  0.
         14    1    1    2    0    0 -0.53713935095E-02 -0.58483655021E-02  0.97956212982E-02  0.12609894682E-01  0.00000000000E+00 0. -1.
     999901    1    3    3    0    0 -0.35718398043E-01 -0.69606900858E-01  0.94937253068E-01  0.88855726131E+00  0.88000000000E+00 0.  1.
        -11    1    4    4    0    0  0.88370377091E-02  0.51493121581E-01 -0.37054200438E-01  0.64053959259E-01  0.51100000000E-03 0. -1.
         11    1    4    4    0    0  0.32252753843E-01  0.23962144779E-01 -0.67678673928E-01  0.78708884749E-01  0.51100000000E-03 0.  1.
</event>
<event>
 7    1  0.2928569E+004  0.1043930E+01  0.7957747E-01            NaN
         13   -1    0    0    0    0  0.00000000000E+00  0.00000000000E+00  0.74505805969E-08  0.10566000000E+00  0.10566000000E+00 0.  1.
     999900   -1    0    0    0    0 -0.00000000000E+00 -0.00000000000E+00 -0.74505805969E-08  0.93827000000E+00  0.93827000000E+00 0. -1.
     999903    2    1    2    0    0  0.21369170678E-01 -0.45804316957E-01 -0.79297104218E-01  0.10419837482E+00  0.44884225174E-01 0.  0.
         14    1    1    2    0    0 -0.51766548850E-01 -0.91518872878E-03 -0.12323373148E-01  0.53221036029E-01  0.00000000000E+00 0. -1.
     999901    1    1    2    0    0  0.30397378173E-01  0.46719505686E-01  0.91620477366E-01  0.88651058916E+00  0.88000000000E+00 0.  1.
        -11    1    3    3    0    0  0.82187867394E-02  0.67487269162E-02 -0.26465345888E-01  0.28526644114E-01  0.51100000000E-03 0.  1.
         11    1    3    3    0    0  0.13150383938E-01 -0.52553043873E-01 -0.52831758330E-01  0.75671730701E-01  0.51100000000E-03 0. -1.
</event>
<event>
 7    1  0.2928569E+004  0.1043930E+01  0.7957747E-01            NaN
         13   -1    0    0    0    0  0.00000000000E+00  0.00000000000E+00  0.74505805969E-08  0.10566000000E+00  0.10566000000E+00 0.  1.
     999900   -1    0    0    0    0 -0.00000000000E+00 -0.00000000000E+00 -0.74505805969E-08  0.93827000000E+00  0.93827000000E+00 0. -1.
     999903    2    1    2    0    0 -0.67321352788E-01 -0.45374555298E-01  0.16300245672E-01  0.93749519834E-01  0.43957475477E-01 0.  0.
         14    1    1    2    0    0 -0.18651553038E-01  0.61852417978E-01 -0.12647318181E-01  0.65829755412E-01  0.00000000000E+00 0.  1.
     999901    1    1    2    0    0  0.85972905826E-01 -0.16477862680E-01 -0.36529274911E-02  0.88435072475E+00  0.88000000000E+00 0.  1.
        -11    1    3    3    0    0 -0.51008141473E-01 -0.32980777481E-01  0.31318321543E-01  0.68342231197E-01  0.51100000000E-03 0.  1.
         11    1    3    3    0    0 -0.16313211315E-01 -0.12393777818E-01 -0.15018075871E-01  0.25407288636E-01  0.51100000000E-03 0. -1.
</event>
<event>
 8    1  0.2928569E+004  0.1043930E+01  0.7957747E-01            NaN
         13   -1    0    0    0    0  0.00000000000E+00  0.00000000000E+00  0.74505805969E-08  0.10566000000E+00  0.10566000000E+00 0.  1.
     999900   -1    0    0    0    0 -0.00000000000E+00 -0.00000000000E+00 -0.74505805969E-08  0.93827000000E+00  0.93827000000E+00 0.  1.
     999902    2    1    2    0    0 -0.10568958796E-01  0.23608203276E-02 -0.10851074757E-01  0.10285995667E+01  0.10284853166E+01 0.  0.
     999903    2    3    3    0    0 -0.51687603532E-01  0.88250506645E-01 -0.85014392149E-01  0.14036087195E+00  0.44877246117E-01 0.  0.
         14    1    1    2    0    0  0.10568958796E-01 -0.23608203276E-02  0.10851074757E-01  0.15330433329E-01  0.00000000000E+00 0.  1.
     999901    1    3    3    0    0  0.41118644735E-01 -0.85889686317E-01  0.74163317392E-01  0.88823869473E+00  0.88000000000E+00 0. -1.
        -11    1    4    4    0    0 -0.29663963890E-01  0.83975387241E-01 -0.64597735385E-01  0.11002247477E+00  0.51100000000E-03 0. -1.
         11    1    4    4    0    0 -0.22023639642E-01  0.42751194038E-02 -0.20416656765E-01  0.30338397180E-01  0.51100000000E-03 0.  1.
</event>
<event>
 8    1  0.2928569E+004  0.1043930E+01  0.7957747E-01            NaN
         13   -1    0    0    0    0  0.00000000000E+00  0.00000000000E+00  0.74505805969E-08  0.10566000000E+00  0.10566000000E+00 0. -1.
     999900   -1    0    0    0    0 -0.00000000000E+00 -0.00000000000E+00 -0.74505805969E-08  0.93827000000E+00  0.93827000000E+00 0.  1.
     999902    2    1    2    0    0 -0.48265592937E-02  0.12807912333E-01 -0.19826086175E-02  0.10300999953E+01  0.10300071511E+01 0.  0.
     999903    2    3    3    0    0  0.96942007178E-01  0.88622460919E-01 -0.23255980842E-01  0.14074222519E+00  0.44898106543E-01 0.  0.
         14    1    1    2    0    0  0.48265592937E-02 -0.12807912333E-01  0.19826086175E-02  0.13830004696E-01  0.00000000000E+00 0. -1.
     999901    1    3    3    0    0 -0.10176856647E+00 -0.75814548586E-01  0.21273372224E-01  0.88935777012E+00  0.88000000000E+00 0.  1.
        -11    1    4    4    0    0  0.55543697674E-01  0.61134953396E-01  0.64381943800E-02  0.82851049154E-01  0.51100000000E-03 0. -1.
         11    1    4    4    0    0  0.41398309504E-01  0.27487507523E-01 -0.29694175222E-01  0.57891176035E-01  0.51100000000E-03 0.  1.
</event>
<event>
 8    1  0.2928569E+004  0.1043930E+01  0.7957747E-01            NaN
         13   -1    0    0    0    0  0.00000000000E+00  0.00000000000E+00  0.74505805969E-08  0.10566000000E+00  0.10566000000E+00 0. -1.
     999900   -1    0    0    0    0 -0.00000000000E+00 -0.00000000000E+00 -0.74505805969E-08  0.93827000000E+00  0.93827000000E+00 0. -1.
     999902    2    1    2    0    0 -0.41641896494E-02 -0.69894223319E-02 -0.11271762597E-01  0.10300287363E+01  0.10299349263E+01 0.  0.
     999903    2    3    3    0    0 -0.82084336674E-01 -0.33294778007E-01  0.97968655242E-01  0.13946880574E+00  0.44803011016E-01 0.  0.
         14    1    1    2    0    0  0.41641896494E-02  0.69894223319E-02  0.11271762597E-01  0.13901263684E-01  0.00000000000E+00 0. -1.
     999901    1    3    3    0    0  0.77920147024E-01  0.26305355675E-01 -0.10924041784E+00  0.89055993057E+00  0.88000000000E+00 0. -1.
        -11    1    4    4    0    0 -0.41248528882E-01 -0.94536716440E-02  0.16808189281E-01  0.45536681811E-01  0.51100000000E-03 0. -1.
         11    1    4    4    0    0 -0.40835807792E-01 -0.23841106363E-01  0.81160465961E-01  0.93932123933E-01  0.51100000000E-03 0.  1.
</event>
<event>
 8    1  0.2928569E+004  0.1043930E+01  0.7957747E-01            NaN
         13   -1    0    0    0    0  0.00000000000E+00  0.00000000000E+00  0.74505805969E-08  0.10566000000E+00  0.10566000000E+00 0. -1.
     999900   -1    0    0    0    0 -0.00000000000E+00 -0.00000000000E+00 -0.74505805969E-08  0.93827000000E+00  0.93827000000E+00 0.  1.
     999902    2    1    2    0    0 -0.48260632384E-02 -0.11457668891E-01 -0.47745142603E-02  0.10306121530E+01  0.10305261010E+01 0.  0.
     999903    2    3    3    0    0  0.29226344820E-01  0.10478413671E+00  0.73642043861E-01  0.13886057297E+00  0.45002372885E-01 0.  0.
         14    1    1    2    0    0  0.48260632384E-02  0.11457668891E-01  0.47745142603E-02  0.13317847018E-01  0.00000000000E+00 0.  1.
     999901    1    3    3    0    0 -0.34052408058E-01 -0.11624180560E+00 -0.78416558122E-01  0.89175158001E+00  0.88000000000E+00 0.  1.
        -11    1    4    4    0    0  0.25135414021E-01  0.31328376172E-01  0.43902242270E-01  0.59505665184E-01  0.51100000000E-03 0.  1.
         11    1    4    4    0    0  0.40909307981E-02  0.73455760533E-01  0.29739801591E-01  0.79354907788E-01  0.51100000000E-03 0. -1.
</event>
<event>
 8    1  0.2928569E+004  0.1043930E+01  0.7957747E-01            NaN
         13   -1    0    0    0    0  0.00000000000E+00  0.00000000000E+00  0.74505805969E-08  0.10566000000E+00  0.10566000000E+00 0.  1.
     999900   -1    0    0    0    0 -0.00000000000E+00 -0.00000000000E+00 -0.74505805969E-08  0.93827000000E+00  0.93827000000E+00 0. -1.
     999902    2    1    2    0    0  0.64729355809E-02 -0.12527948808E-01 -0.27496990232E-02  0.10295630504E+01  0.10294628043E+01 0.  0.
     999903    2    3    3    0    0 -0.90690745967E-02 -0.98443534650E-01 -0.89784770867E-01  0.14096969812E+00  0.45141700006E-01 0.  0.
         14    1    1    2    0    0 -0.64729355809E-02  0.12527948808E-01  0.27496990232E-02  0.14366949610E-01  0.00000000000E+00 0.  1.
     999901    1    3    3    0    0  0.15542010178E-01  0.85915585842E-01  0.87035071844E-01  0.88859335227E+00  0.88000000000E+00 0.  1.
        -11    1    4    4    0    0 -0.20208323620E-01 -0.53335296842E-01 -0.27661172722E-01  0.63391102137E-01  0.51100000000E-03 0. -1.
         11    1    4    4    0    0  0.11139249023E-01 -0.45108237808E-01 -0.62123598145E-01  0.77578595982E-01  0.51100000000E-03 0.  1.
</event>
<event>
 8    1  0.2928569E+004  0.1043930E+01  0.7957747E-01            NaN
         13   -1    0    0    0    0  0.00000000000E+00  0.00000000000E+00  0.74505805969E-08  0.10566000000E+00  0.10566000000E+00 0. -1.
     999900   -1    0    0    0    0 -0.00000000000E+00 -0.00000000000E+00 -0.74505805969E-08  0.93827000000E+00  0.93827000000E+00 0.  1.
     999902    2    1    2    0    0 -0.11636265931E-01  0.65472343041E-02  0.46598039662E-03  0.10305701310E+01  0.10304835316E+01 0.  0.
     999903    2    3    3    0    0 -0.67485452248E-02  0.27380862504E-01  0.13032596295E+00  0.14078277161E+00  0.45162790749E-01 0.  0.
         14    1    1    2    0    0  0.11636265931E-01 -0.65472343041E-02 -0.46598039662E-03  0.13359868995E-01  0.00000000000E+00 0.  1.
     999901    1    3    3    0    0 -0.48877207058E-02 -0.20833628200E-01 -0.12985998255E+00  0.88978735940E+00  0.88000000000E+00 0.  1.
        -11    1    4    4    0    0  0.15052858185E-01  0.27452606686E-01  0.81487752093E-01  0.87296901523E-01  0.51100000000E-03 0.  1.
         11    1    4    4    0    0 -0.21801403409E-01 -0.71744182023E-04  0.48838210856E-01  0.53485870082E-01  0.51100000000E-03 0. -1.
</event>
<event>
 8    1  0.2928569E+004  0.1043930E+01  0.7957747E-01            NaN
         13   -1    0    0    0    0  0.00000000000E+00  0.00000000000E+00  0.74505805969E-08  0.10566000000E+00  0.10566000000E+00 0.  1.
     999900   -1    0    0    0    0 -0.00000000000E+00 -0.00000000000E+00 -0.74505805969E-08  0.93827000000E+00  0.93827000000E+00 0.  1.
     999902    2    1    2    0    0  0.27885801959E-02  0.11124481407E-01  0.82163899781E-02  0.10298218701E+01  0.10297252278E+01 0.  0.
     999903    2    3    3    0    0 -0.61842663620E-01  0.77325289244E-01 -0.87782730370E-01  0.13977941279E+00  0.45041770489E-01 0.  0.
         14    1    1    2    0    0 -0.27885801959E-02 -0.11124481407E-01 -0.82163899781E-02  0.14108129938E-01  0.00000000000E+00 0. -1.
     999901    1    3    3    0    0  0.64631243816E-01 -0.66200807837E-01  0.95999120348E-01  0.89004245727E+00  0.88000000000E+00 0. -1.
        -11    1    4    4    0    0 -0.22330343803E-01  0.65781275092E-03 -0.21395130515E-01  0.30936866402E-01  0.51100000000E-03 0. -1.
         11    1    4    4    0    0 -0.39512319817E-01  0.76667476493E-01 -0.66387599855E-01  0.10884254639E+00  0.51100000000E-03 0.  1.
</event>
<event>
 8    1  0.2928569E+004  0.1043930E+01  0.7957747E-01            NaN
         13   -1    0    0    0    0  0.00000000000E+00  0.00000000000E+00  0.74505805969E-08  0.10566000000E+00  0.10566000000E+00 0.  1.
     999900   -1    0    0    0    0 -0.00000000000E+00 -0.00000000000E+00 -0.74505805969E-08  0.93827000000E+00  0.93827000000E+00 0. -1.
     999902    2    1    2    0    0 -0.64218850932E-02 -0.25738899731E-02  0.12006875959E-01  0.10300724898E+01  0.10299792734E+01 0.  0.
     999903    2    3    3    0    0 -0.42252922332E-01 -0.16399834352E-01 -0.12333221407E+00  0.13889815826E+00  0.45028872151E-01 0.  0.
         14    1    1    2    0    0  0.64218850932E-02  0.25738899731E-02 -0.12006875959E-01  0.13857510168E-01  0.00000000000E+00 0. -1.
     999901    1    3    3    0    0  0.35831037239E-01  0.13825944379E-01  0.13533909003E+00  0.89117433157E+00  0.88000000000E+00 0.  1.
        -11    1    4    4    0    0 -0.51840578424E-01 -0.14880721969E-01 -0.99916998828E-01  0.11354536201E+00  0.51100000000E-03 0. -1.
         11    1    4    4    0    0  0.95876560922E-02 -0.15191123830E-02 -0.23415215243E-01  0.25352796250E-01  0.51100000000E-03 0.  1.
</event>
<event>
 8    1  0.2928569E+004  0.1043930E+01  0.7957747E-01            NaN
         13   -1    0    0    0    0  0.00000000000E+00  0.00000000000E+00  0.74505805969E-08  0.10566000000E+00  0.10566000000E+00 0. -1.
     999900   -1    0    0    0    0 -0.00000000000E+00 -0.00000000000E+00 -0.74505805969E-08  0.93827000000E+00  0.93827000000E+00 0.  1.
     999902    2    1    2    0    0 -0.34773939414E-02  0.20050761094E-02 -0.14318652005E-01  0.10290593445E+01  0.10289518930E+01 0.  0.
     999903    2    3    3    0    0  0.40965095718E-01  0.88126703589E-02  0.12261781536E+00  0.13733456955E+00  0.45495638510E-01 0.  0.
         14    1    1    2    0    0  0.34773939414E-02 -0.20050761094E-02  0.14318652005E-01  0.14870655468E-01  0.00000000000E+00 0. -1.
     999901    1    3    3    0    0 -0.44442489659E-01 -0.68075942496E-02 -0.13693646736E+00  0.89172477498E+00  0.88000000000E+00 0.  1.
        -11    1    4    4    0    0  0.18218238201E-01 -0.99098722948E-02  0.14594608435E-01  0.25364808070E-01  0.51100000000E-03 0.  1.
         11    1    4    4    0    0  0.22746857517E-01  0.18722542654E-01  0.10802320692E+00  0.11196976148E+00  0.51100000000E-03 0. -1.
</event>
<event>
 8    1  0.2928569E+004  0.1043930E+01  0.7957747E-01            NaN
         13   -1    0    0    0    0  0.00000000000E+00  0.00000000000E+00  0.74505805969E-08  0.10566000000E+00  0.10566000000E+00 0.  1.
     999900   -1    0    0    0    0 -0.00000000000E+00 -0.00000000000E+00 -0.74505805969E-08  0.93827000000E+00  0.93827000000E+00 0. -1.
     999902    2    1    2    0    0 -0.66784409812E-02 -0.86949218038E-02  0.99910592269E-02  0.10290967770E+01  0.10289898697E+01 0.  0.
     999903    2    3    3    0    0  0.12968045963E-01 -0.86320084730E-02 -0.12964558355E+00  0.13787044191E+00  0.44244769567E-01 0.  0.
         14    1    1    2    0    0  0.66784409812E-02  0.86949218038E-02 -0.99910592269E-02  0.14833222967E-01  0.00000000000E+00 0. -1.
     999901    1    3    3    0    0 -0.19646486944E-01 -0.62913330860E-04  0.13963664277E+00  0.89122633512E+00  0.88000000000E+00 0.  1.
        -11    1    4    4    0    0 -0.15052877840E-01 -0.10764370964E-01 -0.44182420342E-01  0.47904156415E-01  0.51100000000E-03 0.  1.
         11    1    4    4    0    0  0.28020923803E-01  0.21323624915E-02 -0.85463163203E-01  0.89966285498E-01  0.51100000000E-03 0. -1.
</event>
<event>
 8    1  0.2928569E+004  0.1043930E+01  0.7957747E-01            NaN
         13   -1    0    0    0    0  0.00000000000E+00  0.00000000000E+00  0.74505805969E-08  0.10566000000E+00  0.10566000000E+00 0.  1.
     999900   -1    0    0    0    0 -0.00000000000E+00 -0.00000000000E+00 -0.74505805969E-08  0.93827000000E+00  0.93827000000E+00 0. -1.
     999902    2    1    2    0    0 -0.10441653756E-01  0.76647044461E-02  0.24121048125E-02  0.10307544895E+01  0.10306702788E+01 0.  0.
     999903    2    3    3    0    0  0.11249184171E+00 -0.42139120202E-01 -0.53057819940E-01  0.13908752375E+00  0.45826707304E-01 0.  0.
         14    1    1    2    0    0  0.10441653756E-01 -0.76647044461E-02 -0.24121048125E-02  0.13175510503E-01  0.00000000000E+00 0. -1.
     999901    1    3    3    0    0 -0.12293349547E+00  0.49803824648E-01  0.55469924752E-01  0.89166696575E+00  0.88000000000E+00 0.  1.
        -11    1    4    4    0    0  0.71657299081E-01 -0.49357693066E-01 -0.38302441470E-01  0.95069913853E-01  0.51100000000E-03 0.  1.
         11    1    4    4    0    0  0.40834542631E-01  0.72185728640E-02 -0.14755378469E-01  0.44017609894E-01  0.51100000000E-03 0. -1.
</event>
<event>
 8    1  0.2928569E+004  0.1043930E+01  0.7957747E-01            NaN
         13   -1    0    0    0    0  0.00000000000E+00  0.00000000000E+00  0.74505805969E-08  0.10566000000E+00  0.10566000000E+00 0.  1.
     999900   -1    0    0    0    0 -0.00000000000E+00 -0.00000000000E+00 -0.74505805969E-08  0.93827000000E+00  0.93827000000E+00 0.  1.
     999902    2    1    2    0    0 -0.33868321827E-02  0.32051997905E-02  0.13446330289E-01  0.10296980733E+01  0.10295997157E+01 0.  0.
     999903    2    3    3    0    0  0.38095892322E-01 -0.12268920270E+00 -0.27758295773E-01  0.13881758854E+00  0.44675076201E-01 0.  0.
         14    1    1    2    0    0  0.33868321827E-02 -0.32051997905E-02 -0.13446330289E-01  0.14231926650E-01  0.00000000000E+00 0. -1.
     999901    1    3    3    0    0 -0.41482724505E-01  0.12589440249E+00  0.41204626062E-01  0.89088048481E+00  0.88000000000E+00 0. -1.
        -11    1    4    4    0    0  0.46775651225E-01 -0.99071467678E-01 -0.29878655039E-01  0.11356105144E+00  0.51100000000E-03 0. -1.
         11    1    4    4    0    0 -0.86797589030E-02 -0.23617735017E-01  0.21203592659E-02  0.25256537101E-01  0.51100000000E-03 0.  1.
</event>
<event>
 8    1  0.2928569E+004  0.1043930E+01  0.7957747E-01            NaN
         13   -1    0    0    0    0  0.00000000000E+00  0.00000000000E+00  0.74505805969E-08  0.10566000000E+00  0.10566000000E+00 0. -1.
     999900   -1    0    0    0    0 -0.00000000000E+00 -0.00000000000E+00 -0.74505805969E-08  0.93827000000E+00  0.93827000000E+00 0. -1.
     999902    2    1    2    0    0 -0.81044042620E-03 -0.49244283149E-02 -0.13001963044E-01  0.10300031249E+01  0.10299089666E+01 0.  0.
     999903    2    3    3    0    0  0.43696733017E-01  0.80217710541E-01  0.95156261720E-01  0.13819133201E+00  0.41204909142E-01 0.  0.
         14    1    1    2    0    0  0.81044042620E-03  0.49244283149E-02  0.13001963044E-01  0.13926875131E-01  0.00000000000E+00 0. -1.
     999901    1    3    3    0    0 -0.44507173444E-01 -0.85142138856E-01 -0.10815822476E+00  0.89181179286E+00  0.88000000000E+00 0. -1.
        -11    1    4    4    0    0  0.19414744269E-01  0.60703269322E-01  0.41217369430E-01  0.75900934547E-01  0.51100000000E-03 0.  1.
         11    1    4    4    0    0  0.24281988748E-01  0.19514441220E-01  0.53938892290E-01  0.62290397464E-01  0.51100000000E-03 0. -1.
</event>
<event>
 8    1  0.2928569E+004  0.1043930E+01  0.7957747E-01            NaN
         13   -1    0    0    0    0  0.00000000000E+00  0.00000000000E+00  0.74505805969E-08  0.10566000000E+00  0.10566000000E+00 0.  1.
     999900   -1    0    0    0    0 -0.00000000000E+00 -0.00000000000E+00 -0.74505805969E-08  0.93827000000E+00  0.93827000000E+00 0.  1.
     999902    2    1    2    0    0 -0.25312258053E-02  0.60591688254E-02 -0.11690582646E-01  0.10305214075E+01  0.10304341711E+01 0.  0.
     999903    2    3    3    0    0 -0.15420166560E-01 -0.12908076012E+00 -0.25776600302E-01  0.14000058173E+00  0.45123226740E-01 0.  0.
         14    1    1    2    0    0  0.25312258053E-02 -0.60591688254E-02  0.11690582646E-01  0.13408592526E-01  0.00000000000E+00 0.  1.
     999901    1    3    3    0    0  0.12888940755E-01  0.13513992895E+00  0.14086017656E-01  0.89052082574E+00  0.88000000000E+00 0. -1.
        -11    1    4    4    0    0 -0.29173639594E-01 -0.96094340692E-01 -0.99739740822E-02  0.10092058680E+00  0.51100000000E-03 0.  1.
         11    1    4    4    0    0  0.13753473034E-01 -0.32986419429E-01 -0.15802626220E-01  0.39079994929E-01  0.51100000000E-03 0. -1.
</event>
<event>
 8    1  0.2928569E+004  0.1043930E+01  0.7957747E-01            NaN
         13   -1    0    0    0    0  0.00000000000E+00  0.00000000000E+00  0.74505805969E-08  0.10566000000E+00  0.10566000000E+00 0.  1.
     999900   -1    0    0    0    0 -0.00000000000E+00 -0.00000000000E+00 -0.74505805969E-08  0.93827000000E+00  0.93827000000E+00 0.  1.
     999902    2    1    2    0    0  0.81529122972E-02  0.71127221263E-02  0.79840915870E-02  0.10304835687E+01  0.10303958360E+01 0.  0.
     999903    2    3    3    0    0  0.98074212690E-01 -0.23185556737E-01 -0.86501541812E-01  0.14035360021E+00  0.45392676948E-01 0.  0.
         14    1    1    2    0    0 -0.81529122972E-02 -0.71127221263E-02 -0.79840915870E-02  0.13446431253E-01  0.00000000000E+00 0. -1.
     999901    1    3    3    0    0 -0.89921300392E-01  0.30298278863E-01  0.94485633399E-01  0.89012996854E+00  0.88000000000E+00 0. -1.
        -11    1    4    4    0    0  0.34102956293E-01 -0.15745308991E-01 -0.72954384703E-02  0.38267622432E-01  0.51100000000E-03 0.  1.
         11    1    4    4    0    0  0.63971256397E-01 -0.74402477453E-02 -0.79206103342E-01  0.10208597778E+00  0.51100000000E-03 0. -1.
</event>
<event>
 8    1  0.2928569E+004  0.1043930E+01  0.7957747E-01            NaN
         13   -1    0    0    0    0  0.00000000000E+00  0.00000000000E+00  0.74505805969E-08  0.10566000000E+00  0.10566000000E+00 0. -1.
     999900   -1    0    0    0    0 -0.00000000000E+00 -0.00000000000E+00 -0.74505805969E-08  0.93827000000E+00  0.93827000000E+00 0. -1.
     999902    2    1    2    0    0  0.12691897954E-01  0.22673671267E-02  0.11210095936E-03  0.10310366764E+01  0.10309560564E+01 0.  0.
     999903    2    3    3    0    0  0.55376205786E-01  0.35831537138E-01 -0.11696428460E+00  0.14162373309E+00  0.45013494435E-01 0.  0.
         14    1    1    2    0    0 -0.12691897954E-01 -0.22673671267E-02 -0.11210095936E-03  0.12893323620E-01  0.00000000000E+00 0. -1.
     999901    1    3    3    0    0 -0.42684307832E-01 -0.33564170012E-01  0.11707638556E+00  0.88941294329E+00  0.88000000000E+00 0.  1.
        -11    1    4    4    0    0  0.26271288009E-01  0.75560148309E-02 -0.13514219314E-01  0.30498675028E-01  0.51100000000E-03 0.  1.
         11    1    4    4    0    0  0.29104917777E-01  0.28275522307E-01 -0.10345006528E+00  0.11112505806E+00  0.51100000000E-03 0. -1.
</event>
<event>
 8    1  0.2928569E+004  0.1043930E+01  0.7957747E-01            NaN
         13   -1    0    0    0    0  0.00000000000E+00  0.00000000000E+00  0.74505805969E-08  0.10566000000E+00  0.10566000000E+00 0. -1.
     999900   -1    0    0    0    0 -0.00000000000E+00 -0.00000000000E+00 -0.74505805969E-08  0.93827000000E+00  0.93827000000E+00 0.  1.
     999902    2    1    2    0    0  0.10489246607E-02 -0.81837482569E-02 -0.11071998509E-01  0.10301219180E+01  0.10300293698E+01 0.  0.
     999903    2    3    3    0    0  0.98487933269E-01 -0.85677248879E-01 -0.28643844236E-01  0.14118526510E+00  0.45523019396E-01 0.  0.
         14    1    1    2    0    0 -0.10489246607E-02  0.81837482569E-02  0.11071998509E-01  0.13808082034E-01  0.00000000000E+00 0. -1.
     999901    1    3    3    0    0 -0.97439008609E-01  0.77493500622E-01  0.17571845727E-01  0.88893665286E+00  0.88000000000E+00 0.  1.
        -11    1    4    4    0    0  0.58389414710E-01 -0.76664233095E-01 -0.13160457527E-01  0.97263493406E-01  0.51100000000E-03 0.  1.
         11    1    4    4    0    0  0.40098518560E-01 -0.90130157843E-02 -0.15483386709E-01  0.43921771699E-01  0.51100000000E-03 0. -1.
</event>
<event>
 8    1  0.2928569E+004  0.1043930E+01  0.7957747E-01            NaN
         13   -1    0    0    0    0  0.00000000000E+00  0.00000000000E+00  0.74505805969E-08  0.10566000000E+00  0.10566000000E+00 0. -1.
     999900   -1    0    0    0    0 -0.00000000000E+00 -0.00000000000E+00 -0.74505805969E-08  0.93827000000E+00  0.93827000000E+00 0. -1.
     999902    2    1    2    0    0  0.21129734690E-02 -0.64876129181E-02 -0.13360026808E-01  0.10289285303E+01  0.10288191660E+01 0.  0.
     999903    2    3    3    0    0  0.43238014362E-01  0.72669925118E-01 -0.10217720854E+00  0.13997089539E+00  0.44735061273E-01 0.  0.
         14    1    1    2    0    0 -0.21129734690E-02  0.64876129181E-02  0.13360026808E-01  0.15001469747E-01  0.00000000000E+00 0. -1.
     999901    1    3    3    0    0 -0.41125040893E-01 -0.79157538036E-01  0.88817181734E-01  0.88895763487E+00  0.88000000000E+00 0.  1.
        -11    1    4    4    0    0  0.22255855771E-01  0.12802071277E-01 -0.89289047759E-02  0.27188280684E-01  0.51100000000E-03 0. -1.
         11    1    4    4    0    0  0.20982158591E-01  0.59867853841E-01 -0.93248303767E-01  0.11278261470E+00  0.51100000000E-03 0.  1.
</event>
<event>
 8    1  0.2928569E+004  0.1043930E+01  0.7957747E-01            NaN
         13   -1    0    0    0    0  0.00000000000E+00  0.00000000000E+00  0.74505805969E-08  0.10566000000E+00  0.10566000000E+00 0. -1.
     999900   -1    0    0    0    0 -0.00000000000E+00 -0.00000000000E+00 -0.74505805969E-08  0.93827000000E+00  0.93827000000E+00 0. -1.
     999902    2    1    2    0    0  0.12862032623E-01  0.63410023315E-02 -0.42160247292E-04  0.10295897779E+01  0.10294899070E+01 0.  0.
     999903    2    3    3    0    0  0.48371065914E-01  0.28362556254E-01  0.11828054936E+00  0.14068815006E+00  0.51562317599E-01 0.  0.
         14    1    1    2    0    0 -0.12862032623E-01 -0.63410023315E-02  0.42160247292E-04  0.14340222148E-01  0.00000000000E+00 0. -1.
     999901    1    3    3    0    0 -0.35509033291E-01 -0.22021553922E-01 -0.11832270960E+00  0.88890162779E+00  0.88000000000E+00 0. -1.
        -11    1    4    4    0    0  0.41800386149E-01 -0.44994412854E-02  0.56841838571E-01  0.70702001296E-01  0.51100000000E-03 0.  1.
         11    1    4    4    0    0  0.65706797653E-02  0.32861997539E-01  0.61438710786E-01  0.69986148764E-01  0.51100000000E-03 0. -1.
</event>
<event>
 8    1  0.2928569E+004  0.1043930E+01  0.7957747E-01            NaN
         13   -1    0    0    0    0  0.00000000000E+00  0.00000000000E+00  0.74505805969E-08  0.10566000000E+00  0.10566000000E+00 0.  1.
     999900   -1    0    0    0    0 -0.00000000000E+00 -0.00000000000E+00 -0.74505805969E-08  0.93827000000E+00  0.93827000000E+00 0. -1.
     999902    2    1    2    0    0 -0.85892264180E-02 -0.10060526131E-01  0.29752002766E-02  0.10303712090E+01  0.10302819942E+01 0.  0.
     999903    2    3    3    0    0 -0.60388788058E-01  0.89271163548E-01  0.77673453077E-01  0.14012977651E+00  0.44576255877E-01 0.  0.
         14    1    1    2    0    0  0.85892264180E-02  0.10060526131E-01 -0.29752002766E-02  0.13558790992E-01  0.00000000000E+00 0.  1.
     999901    1    3    3    0    0  0.51799561640E-01 -0.99331689678E-01 -0.74698252801E-01  0.89024143250E+00  0.88000000000E+00 0. -1.
        -11    1    4    4    0    0 -0.17100124605E-01  0.35149667672E-01  0.54463696290E-01  0.67040799022E-01  0.51100000000E-03 0.  1.
         11    1    4    4    0    0 -0.43288663453E-01  0.54121495876E-01  0.23209756788E-01  0.73088977490E-01  0.51100000000E-03 0. -1.
</event>
<event>
 8    1  0.2928569E+004  0.1043930E+01  0.7957747E-01            NaN
         13   -1    0    0    0    0  0.00000000000E+00  0.00000000000E+00  0.74505805969E-08  0.10566000000E+00  0.10566000000E+00 0. -1.
     999900   -1    0    0    0    0 -0.00000000000E+00 -0.00000000000E+00 -0.74505805969E-08  0.93827000000E+00  0.93827000000E+00 0.  1.
     999902    2    1    2    0    0  0.47766586895E-03 -0.84115513710E-02  0.10243497301E-01  0.10306668330E+01  0.10305814908E+01 0.  0.
     999903    2    3    3    0    0  0.69055446773E-01 -0.90681820728E-01 -0.67351153338E-01  0.14078356031E+00  0.47874687030E-01 0.  0.
         14    1    1    2    0    0 -0.47766586895E-03  0.84115513710E-02 -0.10243497301E-01  0.13263166971E-01  0.00000000000E+00 0.  1.
     999901    1    3    3    0    0 -0.68577780904E-01  0.82270269357E-01  0.77594650640E-01  0.88988327272E+00  0.88000000000E+00 0. -1.
        -11    1    4    4    0    0  0.28877928837E-01 -0.64673623248E-01 -0.20335835521E-01  0.73691381079E-01  0.51100000000E-03 0. -1.
         11    1    4    4    0    0  0.40177517936E-01 -0.26008197480E-01 -0.47015317818E-01  0.67092179233E-01  0.51100000000E-03 0.  1.
</event>
<event>
 8    1  0.2928569E+004  0.1043930E+01  0.7957747E-01            NaN
         13   -1    0    0    0    0  0.00000000000E+00  0.00000000000E+00  0.74505805969E-08  0.10566000000E+00  0.10566000000E+00 0. -1.
     999900   -1    0    0    0    0 -0.00000000000E+00 -0.00000000000E+00 -0.74505805969E-08  0.93827000000E+00  0.93827000000E+00 0. -1.
     999902    2    1    2    0    0  0.85548538037E-02  0.12056593051E-01 -0.60226146705E-02  0.10279669537E+01  0.10278430031E+01 0.  0.
     999903    2    3    3    0    0  0.77894439371E-01  0.10641419468E+00  0.13138113535E-01  0.14000385277E+00  0.45132518752E-01 0.  0.
         14    1    1    2    0    0 -0.85548538037E-02 -0.12056593051E-01  0.60226146705E-02  0.15963046297E-01  0.00000000000E+00 0. -1.
     999901    1    3    3    0    0 -0.69339585567E-01 -0.94357601630E-01 -0.19160728206E-01  0.88796310093E+00  0.88000000000E+00 0. -1.
        -11    1    4    4    0    0  0.77806421514E-01  0.92342210498E-01  0.22853296068E-01  0.12289612415E+00  0.51100000000E-03 0.  1.
         11    1    4    4    0    0  0.88017856633E-04  0.14071984183E-01 -0.97151825322E-02  0.17107728623E-01  0.51100000000E-03 0. -1.
</event>
<event>
 7    1  0.2928569E+004  0.1043930E+01  0.7957747E-01            NaN
         13   -1    0    0    0    0  0.00000000000E+00  0.00000000000E+00  0.74505805969E-08  0.10566000000E+00  0.10566000000E+00 0.  1.
     999900   -1    0    0    0    0 -0.00000000000E+00 -0.00000000000E+00 -0.74505805969E-08  0.93827000000E+00  0.93827000000E+00 0.  1.
     999903    2    1    2    0    0  0.24129912761E-01 -0.44397355455E-01  0.95958671308E-01  0.11935756145E+00  0.49847597893E-01 0.  0.
         14    1    1    2    0    0 -0.18041181910E-03  0.26159648409E-01 -0.32575364677E-01  0.41779350607E-01  0.00000000000E+00 0. -1.
     999901    1    1    2    0    0 -0.23949500942E-01  0.18237707046E-01 -0.63383306631E-01  0.88279308794E+00  0.88000000000E+00 0.  1.
        -11    1    3    3    0    0 -0.15222495931E-01 -0.15608247534E-01  0.35792015107E-01  0.41912662047E-01  0.51100000000E-03 0.  1.
         11    1    3    3    0    0  0.39352408692E-01 -0.28789107921E-01  0.60166656201E-01  0.77444899407E-01  0.51100000000E-03 0. -1.
</event>
<event>
 8    1  0.2928569E+004  0.1043930E+01  0.7957747E-01            NaN
         13   -1    0    0    0    0  0.00000000000E+00  0.00000000000E+00  0.74505805969E-08  0.10566000000E+00  0.10566000000E+00 0.  1.
     999900   -1    0    0    0    0 -0.00000000000E+00 -0.00000000000E+00 -0.74505805969E-08  0.93827000000E+00  0.93827000000E+00 0. -1.
     999902    2    1    2    0    0 -0.73342864985E-02  0.75168968280E-03 -0.13266440923E-01  0.10287525414E+01  0.10286405767E+01 0.  0.
     999903    2    3    3    0    0  0.42939820777E-01  0.11490542451E+00  0.44298726779E-01  0.13809418399E+00  0.45393189653E-01 0.  0.
         14    1    1    2    0    0  0.73342864985E-02 -0.75168968280E-03  0.13266440923E-01  0.15177458634E-01  0.00000000000E+00 0.  1.
     999901    1    3    3    0    0 -0.50274107276E-01 -0.11415373483E+00 -0.57565167702E-01  0.89065835738E+00  0.88000000000E+00 0.  1.
        -11    1    4    4    0    0  0.22497095698E-01  0.39081258839E-01 -0.49945416648E-02  0.45372576241E-01  0.51100000000E-03 0. -1.
         11    1    4    4    0    0  0.20442725080E-01  0.75824165669E-01  0.49293268443E-01  0.92721607746E-01  0.51100000000E-03 0.  1.
</event>
<event>
 8    1  0.2928569E+004  0.1043930E+01  0.7957747E-01            NaN
         13   -1    0    0    0    0  0.00000000000E+00  0.00000000000E+00  0.74505805969E-08  0.10566000000E+00  0.10566000000E+00 0. -1.
     999900   -1    0    0    0    0 -0.00000000000E+00 -0.00000000000E+00 -0.74505805969E-08  0.93827000000E+00  0.93827000000E+00 0. -1.
     999902    2    1    2    0    0 -0.15183002495E-01  0.35185043600E-02 -0.15116058126E-02  0.10282715074E+01  0.10281522769E+01 0.  0.
     999903    2    3    3    0    0 -0.87544747183E-01  0.15996452416E-01  0.97117724506E-01  0.13972231572E+00  0.46588666502E-01 0.  0.
         14    1    1    2    0    0  0.15183002495E-01 -0.35185043600E-02  0.15116058126E-02  0.15658492579E-01  0.00000000000E+00 0. -1.
     999901    1    3    3    0    0  0.72361744687E-01 -0.12477948056E-01 -0.98629330319E-01  0.88854919171E+00  0.88000000000E+00 0. -1.
        -11    1    4    4    0    0 -0.59765665936E-01 -0.84927296736E-02  0.42885991401E-01  0.74050865366E-01  0.51100000000E-03 0.  1.
         11    1    4    4    0    0 -0.27779081247E-01  0.24489182090E-01  0.54231733106E-01  0.65671450349E-01  0.51100000000E-03 0. -1.
</event>
<event>
 8    1  0.2928569E+004  0.1043930E+01  0.7957747E-01            NaN
         13   -1    0    0    0    0  0.00000000000E+00  0.00000000000E+00  0.74505805969E-08  0.10566000000E+00  0.10566000000E+00 0. -1.
     999900   -1    0    0    0    0 -0.00000000000E+00 -0.00000000000E+00 -0.74505805969E-08  0.93827000000E+00  0.93827000000E+00 0.  1.
     999902    2    1    2    0    0  0.91663795694E-02 -0.36459092191E-02  0.12050953391E-01  0.10283562835E+01  0.10282383504E+01 0.  0.
     999903    2    3    3    0    0 -0.92116002305E-02 -0.13093787773E+00  0.15631705976E-02  0.13894581077E+00  0.45540239617E-01 0.  0.
         14    1    1    2    0    0 -0.91663795694E-02  0.36459092191E-02 -0.12050953391E-01  0.15573716514E-01  0.00000000000E+00 0.  1.
     999901    1    3    3    0    0  0.18377979800E-01  0.12729196851E+00  0.10487782793E-01  0.88941047272E+00  0.88000000000E+00 0. -1.
        -11    1    4    4    0    0 -0.40851475427E-02 -0.44647844335E-02  0.10417490628E-01  0.12058522400E-01  0.51100000000E-03 0.  1.
         11    1    4    4    0    0 -0.51264526878E-02 -0.12647309330E+00 -0.88543200304E-02  0.12688728837E+00  0.51100000000E-03 0. -1.
</event>
<event>
 8    1  0.2928569E+004  0.1043930E+01  0.7957747E-01            NaN
         13   -1    0    0    0    0  0.00000000000E+00  0.00000000000E+00  0.74505805969E-08  0.10566000000E+00  0.10566000000E+00 0.  1.
     999900   -1    0    0    0    0 -0.00000000000E+00 -0.00000000000E+00 -0.74505805969E-08  0.93827000000E+00  0.93827000000E+00 0.  1.
     999902    2    1    2    0    0 -0.74205490883E-02 -0.49663270436E-02 -0.10588330313E-01  0.10300793072E+01  0.10299861831E+01 0.  0.
     999903    2    3    3    0    0  0.81183555510E-02  0.10655526934E+00  0.76076901429E-01  0.13868187257E+00  0.45000374757E-01 0.  0.
         14    1    1    2    0    0  0.74205490883E-02  0.49663270436E-02  0.10588330313E-01  0.13850692831E-01  0.00000000000E+00 0.  1.
     999901    1    3    3    0    0 -0.15538904639E-01 -0.11152159638E+00 -0.86665231742E-01  0.89139743460E+00  0.88000000000E+00 0.  1.
        -11    1    4    4    0    0 -0.12425796610E-01  0.52436175155E-01  0.55196099987E-01  0.77141580623E-01  0.51100000000E-03 0.  1.
         11    1    4    4    0    0  0.20544152161E-01  0.54119094182E-01  0.20880801442E-01  0.61540291947E-01  0.51100000000E-03 0. -1.
</event>
<event>
 8    1  0.2928569E+004  0.1043930E+01  0.7957747E-01            NaN
         13   -1    0    0    0    0  0.00000000000E+00  0.00000000000E+00  0.74505805969E-08  0.10566000000E+00  0.10566000000E+00 0.  1.
     999900   -1    0    0    0    0 -0.00000000000E+00 -0.00000000000E+00 -0.74505805969E-08  0.93827000000E+00  0.93827000000E+00 0.  1.
     999902    2    1    2    0    0 -0.28340570013E-02 -0.32751906802E-02  0.12282984572E-01  0.10309057740E+01  0.10308234982E+01 0.  0.
     999903    2    3    3    0    0  0.11336500647E+00  0.50208104992E-01  0.48289910967E-01  0.14092870462E+00  0.46438193165E-01 0.  0.
         14    1    1    2    0    0  0.28340570013E-02  0.32751906802E-02 -0.12282984572E-01  0.13024226007E-01  0.00000000000E+00 0. -1.
     999901    1    3    3    0    0 -0.11619906347E+00 -0.53483295672E-01 -0.36006926395E-01  0.88997706938E+00  0.88000000000E+00 0. -1.
        -11    1    4    4    0    0  0.82363006994E-01  0.15215753062E-01  0.42175534943E-01  0.93777507597E-01  0.51100000000E-03 0. -1.
         11    1    4    4    0    0  0.31001999477E-01  0.34992351930E-01  0.61143760245E-02  0.47151197019E-01  0.51100000000E-03 0.  1.
</event>
<event>
 8    1  0.2928569E+004  0.1043930E+01  0.7957747E-01            NaN
         13   -1    0    0    0    0  0.00000000000E+00  0.00000000000E+00  0.74505805969E-08  0.10566000000E+00  0.10566000000E+00 0. -1.
     999900   -1    0    0    0    0 -0.00000000000E+00 -0.00000000000E+00 -0.74505805969E-08  0.93827000000E+00  0.93827000000E+00 0. -1.
     999902    2    1    2    0    0  0.19983399167E-02  0.73305252704E-02  0.10494380593E-01  0.10309738437E+01  0.10308924310E+01 0.  0.
     999903    2    3    3    0    0  0.44568843263E-01  0.78016893831E-01 -0.98519311059E-01  0.14041626808E+00  0.44018816159E-01 0.  0.
         14    1    1    2    0    0 -0.19983399167E-02 -0.73305252704E-02 -0.10494380593E-01  0.12956156343E-01  0.00000000000E+00 0.  1.
     999901    1    3    3    0    0 -0.42570503347E-01 -0.70686368560E-01  0.10901369165E+00  0.89055757558E+00  0.88000000000E+00 0.  1.
        -11    1    4    4    0    0  0.39418758914E-01  0.31637759922E-01 -0.67709155245E-01  0.84496019031E-01  0.51100000000E-03 0. -1.
         11    1    4    4    0    0  0.51500843499E-02  0.46379133909E-01 -0.30810155815E-01  0.55920249045E-01  0.51100000000E-03 0.  1.
</event>
<event>
 8    1  0.2928569E+004  0.1043930E+01  0.7957747E-01            NaN
         13   -1    0    0    0    0  0.00000000000E+00  0.00000000000E+00  0.74505805969E-08  0.10566000000E+00  0.10566000000E+00 0. -1.
     999900   -1    0    0    0    0 -0.00000000000E+00 -0.00000000000E+00 -0.74505805969E-08  0.93827000000E+00  0.93827000000E+00 0. -1.
     999902    2    1    2    0    0  0.18427350745E-02 -0.28960944946E-02  0.13590087715E-01  0.10299130988E+01  0.10298177108E+01 0.  0.
     999903    2    3    3    0    0 -0.10893945297E+00  0.72295730767E-01 -0.19203444010E-01  0.13918198362E+00  0.43684953966E-01 0.  0.
         14    1    1    2    0    0 -0.18427350745E-02  0.28960944946E-02 -0.13590087715E-01  0.14016901226E-01  0.00000000000E+00 0.  1.
     999901    1    3    3    0    0  0.11078218804E+00 -0.75191825262E-01  0.32793531725E-01  0.89073111515E+00  0.88000000000E+00 0. -1.
        -11    1    4    4    0    0  0.31676097884E-02  0.74582655658E-02 -0.30411871576E-02  0.86700298355E-02  0.51100000000E-03 0.  1.
         11    1    4    4    0    0 -0.11210706276E+00  0.64837465201E-01 -0.16162256853E-01  0.13051195379E+00  0.51100000000E-03 0. -1.
</event>
<event>
 8    1  0.2928569E+004  0.1043930E+01  0.7957747E-01            NaN
         13   -1    0    0    0    0  0.00000000000E+00  0.00000000000E+00  0.74505805969E-08  0.10566000000E+00  0.10566000000E+00 0. -1.
     999900   -1    0    0    0    0 -0.00000000000E+00 -0.00000000000E+00 -0.74505805969E-08  0.93827000000E+00  0.93827000000E+00 0.  1.
     999902    2    1    2    0    0 -0.95226793330E-02  0.51396861107E-02 -0.86041287583E-02  0.10301050650E+01  0.10300122893E+01 0.  0.
     999903    2    3    3    0    0  0.93340804378E-01 -0.93103022251E-01  0.76474613973E-02  0.13853530321E+00  0.41867267108E-01 0.  0.
         14    1    1    2    0    0  0.95226793330E-02 -0.51396861107E-02  0.86041287583E-02  0.13824934961E-01  0.00000000000E+00 0. -1.
     999901    1    3    3    0    0 -0.10286348371E+00  0.98242708361E-01 -0.16251590156E-01  0.89156976183E+00  0.88000000000E+00 0.  1.
        -11    1    4    4    0    0  0.43988974622E-01 -0.70643489825E-01 -0.29997115399E-02  0.83275398127E-01  0.51100000000E-03 0.  1.
         11    1    4    4    0    0  0.49351829756E-01 -0.22459532426E-01  0.10647172937E-01  0.55259905082E-01  0.51100000000E-03 0. -1.
</event>
<event>
 8    1  0.2928569E+004  0.1043930E+01  0.7957747E-01            NaN
         13   -1    0    0    0    0  0.00000000000E+00  0.00000000000E+00  0.74505805969E-08  0.10566000000E+00  0.10566000000E+00 0. -1.
     999900   -1    0    0    0    0 -0.00000000000E+00 -0.00000000000E+00 -0.74505805969E-08  0.93827000000E+00  0.93827000000E+00 0.  1.
     999902    2    1    2    0    0  0.13117512681E-01  0.13991489124E-02  0.59020832772E-02  0.10294779640E+01  0.10293765186E+01 0.  0.
     999903    2    3    3    0    0 -0.50347244941E-01 -0.11990778465E+00  0.17796934408E-01  0.13881268736E+00  0.45160927849E-01 0.  0.
         14    1    1    2    0    0 -0.13117512681E-01 -0.13991489124E-02 -0.59020832772E-02  0.14452035968E-01  0.00000000000E+00 0.  1.
     999901    1    3    3    0    0  0.63464757622E-01  0.12130693356E+00 -0.11894851131E-01  0.89066527667E+00  0.88000000000E+00 0.  1.
        -11    1    4    4    0    0 -0.43610363705E-01 -0.10594740632E+00 -0.82771291949E-03  0.11457601388E+00  0.51100000000E-03 0.  1.
         11    1    4    4    0    0 -0.67368812362E-02 -0.13960378332E-01  0.18624647327E-01  0.24236673473E-01  0.51100000000E-03 0. -1.
</event>
<event>
 8    1  0.2928569E+004  0.1043930E+01  0.7957747E-01            NaN
         13   -1    0    0    0    0  0.00000000000E+00  0.00000000000E+00  0.74505805969E-08  0.10566000000E+00  0.10566000000E+00 0. -1.
     999900   -1    0    0    0    0 -0.00000000000E+00 -0.00000000000E+00 -0.74505805969E-08  0.93827000000E+00  0.93827000000E+00 0. -1.
     999902    2    1    2    0    0  0.24385456734E-02  0.80272608441E-02  0.12146652937E-01  0.10291677306E+01  0.10290618509E+01 0.  0.
     999903    2    3    3    0    0  0.71845304738E-01  0.36806322506E-01  0.10641222516E+00  0.14094955313E+00  0.45019569901E-01 0.  0.
         14    1    1    2    0    0 -0.24385456734E-02 -0.80272608441E-02 -0.12146652937E-01  0.14762269447E-01  0.00000000000E+00 0.  1.
     999901    1    3    3    0    0 -0.69406759065E-01 -0.28779061662E-01 -0.94265572228E-01  0.88821817742E+00  0.88000000000E+00 0. -1.
        -11    1    4    4    0    0  0.49827337698E-01  0.10988906644E-02  0.49504462800E-01  0.70249014946E-01  0.51100000000E-03 0.  1.
         11    1    4    4    0    0  0.22017967040E-01  0.35707431842E-01  0.56907762365E-01  0.70700538185E-01  0.51100000000E-03 0. -1.
</event>
<event>
 8    1  0.2928569E+004  0.1043930E+01  0.7957747E-01            NaN
         13   -1    0    0    0    0  0.00000000000E+00  0.00000000000E+00  0.74505805969E-08  0.10566000000E+00  0.10566000000E+00 0.  1.
     999900   -1    0    0    0    0 -0.00000000000E+00 -0.00000000000E+00 -0.74505805969E-08  0.93827000000E+00  0.93827000000E+00 0. -1.
     999902    2    1    2    0    0  0.12112397443E-01  0.69315980748E-02  0.26699012342E-02  0.10297213549E+01  0.10296233210E+01 0.  0.
     999903    2    3    3    0    0  0.53878847604E-01  0.12108089539E+00 -0.17782472874E-01  0.14113101167E+00  0.45146790180E-01 0.  0.
         14    1    1    2    0    0 -0.12112397443E-01 -0.69315980748E-02 -0.26699012342E-02  0.14208645125E-01  0.00000000000E+00 0.  1.
     999901    1    3    3    0    0 -0.41766450161E-01 -0.11414929732E+00  0.20452374108E-01  0.88859034321E+00  0.88000000000E+00 0. -1.
        -11    1    4    4    0    0  0.13052380927E-01  0.59902832508E-01  0.10737664174E-01  0.62243654642E-01  0.51100000000E-03 0. -1.
         11    1    4    4    0    0  0.40826466677E-01  0.61178062887E-01 -0.28520137048E-01  0.78887357023E-01  0.51100000000E-03 0.  1.
</event>
<event>
 8    1  0.2928569E+004  0.1043930E+01  0.7957747E-01            NaN
         13   -1    0    0    0    0  0.00000000000E+00  0.00000000000E+00  0.74505805969E-08  0.10566000000E+00  0.10566000000E+00 0. -1.
     999900   -1    0    0    0    0 -0.00000000000E+00 -0.00000000000E+00 -0.74505805969E-08  0.93827000000E+00  0.93827000000E+00 0. -1.
     999902    2    1    2    0    0 -0.37560130986E-03 -0.13402643988E-01 -0.12692458948E-02  0.10304621521E+01  0.10303741379E+01 0.  0.
     999903    2    3    3    0    0 -0.88494810994E-01 -0.98143158364E-01 -0.24340835631E-01  0.14171120377E+00  0.45013085731E-01 0.  0.
         14    1    1    2    0    0  0.37560130986E-03  0.13402643988E-01  0.12692458948E-02  0.13467847911E-01  0.00000000000E+00 0. -1.
     999901    1    3    3    0    0  0.88119209684E-01  0.84740514376E-01  0.23071589737E-01  0.88875094832E+00  0.88000000000E+00 0. -1.
        -11    1    4    4    0    0 -0.40689447309E-01 -0.74607094862E-01 -0.24425894228E-01  0.88423611981E-01  0.51100000000E-03 0. -1.
         11    1    4    4    0    0 -0.47805363685E-01 -0.23536063502E-01  0.85058596083E-04  0.53287591785E-01  0.51100000000E-03 0.  1.
</event>
<event>
 8    1  0.2928569E+004  0.1043930E+01  0.7957747E-01            NaN
         13   -1    0    0    0    0  0.00000000000E+00  0.00000000000E+00  0.74505805969E-08  0.10566000000E+00  0.10566000000E+00 0.  1.
     999900   -1    0    0    0    0 -0.00000000000E+00 -0.00000000000E+00 -0.74505805969E-08  0.93827000000E+00  0.93827000000E+00 0.  1.
     999902    2    1    2    0    0  0.16203485349E-03  0.13934459081E-01  0.24307089164E-02  0.10297841967E+01  0.10296870340E+01 0.  0.
     999903    2    3    3    0    0  0.11130171592E+00 -0.14184250154E-01 -0.69334532442E-01  0.13945114644E+00  0.45277808422E-01 0.  0.
         14    1    1    2    0    0 -0.16203485349E-03 -0.13934459081E-01 -0.24307089164E-02  0.14145803301E-01  0.00000000000E+00 0.  1.
     999901    1    3    3    0    0 -0.11113968107E+00  0.28118709236E-01  0.71765241358E-01  0.89033305026E+00  0.88000000000E+00 0.  1.
        -11    1    4    4    0    0  0.60805794233E-01  0.13895434620E-01 -0.44158164774E-01  0.76424029943E-01  0.51100000000E-03 0.  1.
         11    1    4    4    0    0  0.50495921686E-01 -0.28079684774E-01 -0.25176367668E-01  0.63027116497E-01  0.51100000000E-03 0. -1.
</event>
<event>
 8    1  0.2928569E+004  0.1043930E+01  0.7957747E-01            NaN
         13   -1    0    0    0    0  0.00000000000E+00  0.00000000000E+00  0.74505805969E-08  0.10566000000E+00  0.10566000000E+00 0. -1.
     999900   -1    0    0    0    0 -0.00000000000E+00 -0.00000000000E+00 -0.74505805969E-08  0.93827000000E+00  0.93827000000E+00 0.  1.
     999902    2    1    2    0    0  0.19556472165E-02 -0.13862988191E-01  0.56803492965E-02  0.10288212818E+01  0.10287103365E+01 0.  0.
     999903    2    3    3    0    0 -0.16916283143E-01  0.11425037097E+00 -0.58307131606E-01  0.13704576057E+00  0.45194147740E-01 0.  0.
         14    1    1    2    0    0 -0.19556472165E-02  0.13862988191E-01 -0.56803492965E-02  0.15108718204E-01  0.00000000000E+00 0. -1.
     999901    1    3    3    0    0  0.18871930360E-01 -0.12811335917E+00  0.63987480902E-01  0.89177552123E+00  0.88000000000E+00 0. -1.
        -11    1    4    4    0    0  0.14862004759E-01  0.50719316912E-01 -0.28005870468E-01  0.59815701911E-01  0.51100000000E-03 0. -1.
         11    1    4    4    0    0 -0.31778287903E-01  0.63531054063E-01 -0.30301261137E-01  0.77230058655E-01  0.51100000000E-03 0.  1.
</event>
<event>
 8    1  0.2928569E+004  0.1043930E+01  0.7957747E-01            NaN
         13   -1    0    0    0    0  0.00000000000E+00  0.00000000000E+00  0.74505805969E-08  0.10566000000E+00  0.10566000000E+00 0. -1.
     999900   -1    0    0    0    0 -0.00000000000E+00 -0.00000000000E+00 -0.74505805969E-08  0.93827000000E+00  0.93827000000E+00 0.  1.
     999902    2    1    2    0    0  0.11269348537E-01 -0.76317211721E-02 -0.19707326890E-02  0.10301777212E+01  0.10300859246E+01 0.  0.
     999903    2    3    3    0    0 -0.10010607172E+00  0.79039071259E-01 -0.28299651568E-01  0.13854465629E+00  0.46101530623E-01 0.  0.
         14    1    1    2    0    0 -0.11269348537E-01  0.76317211721E-02  0.19707326890E-02  0.13752278787E-01  0.00000000000E+00 0.  1.
     999901    1    3    3    0    0  0.11137542026E+00 -0.86670792431E-01  0.26328918879E-01  0.89163306493E+00  0.88000000000E+00 0. -1.
        -11    1    4    4    0    0 -0.53554599842E-01  0.65737111220E-01 -0.53424763517E-02  0.84960379768E-01  0.51100000000E-03 0. -1.
         11    1    4    4    0    0 -0.46551471882E-01  0.13301960038E-01 -0.22957175217E-01  0.53584276520E-01  0.51100000000E-03 0.  1.
</event>
<event>
 8    1  0.2928569E+004  0.1043930E+01  0.7957747E-01            NaN
         13   -1    0    0    0    0  0.00000000000E+00  0.00000000000E+00  0.74505805969E-08  0.10566000000E+00  0.10566000000E+00 0. -1.
     999900   -1    0    0    0    0 -0.00000000000E+00 -0.00000000000E+00 -0.74505805969E-08  0.93827000000E+00  0.93827000000E+00 0.  1.
     999902    2    1    2    0    0 -0.17250887589E-02 -0.42983427766E-02 -0.12611193200E-01  0.10304951991E+01  0.10304076191E+01 0.  0.
     999903    2    3    3    0    0  0.50597277104E-01 -0.96757959957E-01  0.75321764117E-01  0.13975471175E+00  0.43998000434E-01 0.  0.
         14    1    1    2    0    0  0.17250887589E-02  0.42983427766E-02  0.12611193200E-01  0.13434800921E-01  0.00000000000E+00 0. -1.
     999901    1    3    3    0    0 -0.52322365863E-01  0.92459617180E-01 -0.87932957317E-01  0.89074048733E+00  0.88000000000E+00 0.  1.
        -11    1    4    4    0    0  0.33061555022E-01 -0.77829214978E-01  0.76344552393E-01  0.11392631358E+00  0.51100000000E-03 0. -1.
         11    1    4    4    0    0  0.17535722082E-01 -0.18928744979E-01 -0.10227882757E-02  0.25828398175E-01  0.51100000000E-03 0.  1.
</event>
<event>
 8    1  0.2928569E+004  0.1043930E+01  0.7957747E-01            NaN
         13   -1    0    0    0    0  0.00000000000E+00  0.00000000000E+00  0.74505805969E-08  0.10566000000E+00  0.10566000000E+00 0. -1.
     999900   -1    0    0    0    0 -0.00000000000E+00 -0.00000000000E+00 -0.74505805969E-08  0.93827000000E+00  0.93827000000E+00 0.  1.
     999902    2    1    2    0    0  0.93643038933E-02  0.91503439337E-02 -0.11062139524E-02  0.10307906434E+01  0.10307068972E+01 0.  0.
     999903    2    3    3    0    0 -0.98744692093E-02  0.40125420768E-01  0.12689514900E+00  0.14078281499E+00  0.44831547183E-01 0.  0.
         14    1    1    2    0    0 -0.93643038933E-02 -0.91503439337E-02  0.11062139524E-02  0.13139356560E-01  0.00000000000E+00 0. -1.
     999901    1    3    3    0    0  0.19238773103E-01 -0.30975076834E-01 -0.12800136296E+00  0.89000782845E+00  0.88000000000E+00 0.  1.
        -11    1    4    4    0    0 -0.11360283466E-01  0.41035900659E-01  0.58464849306E-01  0.72328423934E-01  0.51100000000E-03 0.  1.
         11    1    4    4    0    0  0.14858142571E-02 -0.91047989119E-03  0.68430299698E-01  0.68454391060E-01  0.51100000000E-03 0. -1.
</event>
<event>
 8    1  0.2928569E+004  0.1043930E+01  0.7957747E-01            NaN
         13   -1    0    0    0    0  0.00000000000E+00  0.00000000000E+00  0.74505805969E-08  0.10566000000E+00  0.10566000000E+00 0.  1.
     999900   -1    0    0    0    0 -0.00000000000E+00 -0.00000000000E+00 -0.74505805969E-08  0.93827000000E+00  0.93827000000E+00 0.  1.
     999902    2    1    2    0    0 -0.16334157938E-01 -0.76014534147E-02 -0.43702916066E-02  0.10253912228E+01  0.10252236213E+01 0.  0.
     999903    2    3    3    0    0  0.71305183086E-01  0.46656005786E-01  0.93211147555E-01  0.13401775272E+00  0.44846716776E-01 0.  0.
         14    1    1    2    0    0  0.16334157938E-01  0.76014534147E-02  0.43702916066E-02  0.18538777152E-01  0.00000000000E+00 0.  1.
     999901    1    3    3    0    0 -0.87639341024E-01 -0.54257459201E-01 -0.97581439161E-01  0.89137347013E+00  0.88000000000E+00 0.  1.
        -11    1    4    4    0    0  0.22872235041E-01  0.13101454079E-01  0.33707359083E-02  0.26578378737E-01  0.51100000000E-03 0.  1.
         11    1    4    4    0    0  0.48432948045E-01  0.33554551707E-01  0.89840411646E-01  0.10743937399E+00  0.51100000000E-03 0. -1.
</event>
<event>
 8    1  0.2928569E+004  0.1043930E+01  0.7957747E-01            NaN
         13   -1    0    0    0    0  0.00000000000E+00  0.00000000000E+00  0.74505805969E-08  0.10566000000E+00  0.10566000000E+00 0.  1.
     999900   -1    0    0    0    0 -0.00000000000E+00 -0.00000000000E+00 -0.74505805969E-08  0.93827000000E+00  0.93827000000E+00 0. -1.
     999902    2    1    2    0    0 -0.10767414059E-01  0.78393449212E-02  0.33923762243E-02  0.10301858830E+01  0.10300941961E+01 0.  0.
     999903    2    3    3    0    0 -0.64974109160E-01  0.11661171661E+00  0.17239427388E-01  0.14172567828E+00  0.44373896761E-01 0.  0.
         14    1    1    2    0    0  0.10767414059E-01 -0.78393449212E-02 -0.33923762243E-02  0.13744116951E-01  0.00000000000E+00 0.  1.
     999901    1    3    3    0    0  0.54206695101E-01 -0.10877237169E+00 -0.13847051163E-01  0.88846020477E+00  0.88000000000E+00 0. -1.
        -11    1    4    4    0    0 -0.52758696178E-01  0.71814365139E-01 -0.69204671041E-02  0.89380853927E-01  0.51100000000E-03 0. -1.
         11    1    4    4    0    0 -0.12215412983E-01  0.44797351474E-01  0.24159894492E-01  0.52344824351E-01  0.51100000000E-03 0.  1.
</event>
<event>
 8    1  0.2928569E+004  0.1043930E+01  0.7957747E-01            NaN
         13   -1    0    0    0    0  0.00000000000E+00  0.00000000000E+00  0.74505805969E-08  0.10566000000E+00  0.10566000000E+00 0. -1.
     999900   -1    0    0    0    0 -0.00000000000E+00 -0.00000000000E+00 -0.74505805969E-08  0.93827000000E+00  0.93827000000E+00 0. -1.
     999902    2    1    2    0    0 -0.47274282484E-02  0.66138928365E-02 -0.11034164870E-01  0.10302243460E+01  0.10301331750E+01 0.  0.
     999903    2    3    3    0    0 -0.10830592122E-01 -0.11333549524E+00 -0.68417625759E-01  0.14021425289E+00  0.44909119245E-01 0.  0.
         14    1    1    2    0    0  0.47274282484E-02 -0.66138928365E-02  0.11034164870E-01  0.13705653968E-01  0.00000000000E+00 0. -1.
     999901    1    3    3    0    0  0.61031638732E-02  0.11994938808E+00  0.57383460889E-01  0.89001009314E+00  0.88000000000E+00 0. -1.
        -11    1    4    4    0    0 -0.27917558558E-01 -0.63327935947E-01 -0.33671630460E-01  0.76966599028E-01  0.51100000000E-03 0.  1.
         11    1    4    4    0    0  0.17086966436E-01 -0.50007559297E-01 -0.34745995299E-01  0.63247653863E-01  0.51100000000E-03 0. -1.
</event>
<event>
 8    1  0.2928569E+004  0.1043930E+01  0.7957747E-01            NaN
         13   -1    0    0    0    0  0.00000000000E+00  0.00000000000E+00  0.74505805969E-08  0.10566000000E+00  0.10566000000E+00 0.  1.
     999900   -1    0    0    0    0 -0.00000000000E+00 -0.00000000000E+00 -0.74505805969E-08  0.93827000000E+00  0.93827000000E+00 0.  1.
     999902    2    1    2    0    0  0.45247928902E-02  0.12158132964E-01  0.40759085514E-02  0.10303319495E+01  0.10302422138E+01 0.  0.
     999903    2    3    3    0    0  0.12989778689E+00  0.78794566384E-02 -0.34313153029E-01  0.14060703987E+00  0.40711501016E-01 0.  0.
         14    1    1    2    0    0 -0.45247928902E-02 -0.12158132964E-01 -0.40759085514E-02  0.13598050536E-01  0.00000000000E+00 0. -1.
     999901    1    3    3    0    0 -0.12537299400E+00  0.42786763256E-02  0.38389061580E-01  0.88972490959E+00  0.88000000000E+00 0. -1.
        -11    1    4    4    0    0  0.12801168354E+00  0.25891508248E-04 -0.34243734123E-01  0.13251372096E+00  0.51100000000E-03 0.  1.
         11    1    4    4    0    0  0.18861033467E-02  0.78535651302E-02 -0.69418905714E-04  0.80933189158E-02  0.51100000000E-03 0. -1.
</event>
<event>
 8    1  0.2928569E+004  0.1043930E+01  0.7957747E-01            NaN
         13   -1    0    0    0    0  0.00000000000E+00  0.00000000000E+00  0.74505805969E-08  0.10566000000E+00  0.10566000000E+00 0. -1.
     999900   -1    0    0    0    0 -0.00000000000E+00 -0.00000000000E+00 -0.74505805969E-08  0.93827000000E+00  0.93827000000E+00 0.  1.
     999902    2    1    2    0    0 -0.70467571577E-02  0.11301967225E-01  0.16777722706E-02  0.10305059109E+01  0.10304184714E+01 0.  0.
     999903    2    3    3    0    0 -0.10907234874E+00 -0.51240239007E-01  0.56989101371E-01  0.14068565259E+00  0.44970610576E-01 0.  0.
         14    1    1    2    0    0  0.70467571577E-02 -0.11301967225E-01 -0.16777722706E-02  0.13424089146E-01  0.00000000000E+00 0.  1.
     999901    1    3    3    0    0  0.10202559158E+00  0.62542206232E-01 -0.55311329100E-01  0.88982025827E+00  0.88000000000E+00 0. -1.
        -11    1    4    4    0    0 -0.29453953088E-01 -0.23283267990E-01  0.39514479712E-01  0.54509642713E-01  0.51100000000E-03 0.  1.
         11    1    4    4    0    0 -0.79618395651E-01 -0.27956971017E-01  0.17474621659E-01  0.86176009873E-01  0.51100000000E-03 0. -1.
</event>
<event>
 8    1  0.2928569E+004  0.1043930E+01  0.7957747E-01            NaN
         13   -1    0    0    0    0  0.00000000000E+00  0.00000000000E+00  0.74505805969E-08  0.10566000000E+00  0.10566000000E+00 0.  1.
     999900   -1    0    0    0    0 -0.00000000000E+00 -0.00000000000E+00 -0.74505805969E-08  0.93827000000E+00  0.93827000000E+00 0. -1.
     999902    2    1    2    0    0 -0.10224229247E-01  0.71726406403E-02  0.67302975823E-02  0.10297427331E+01  0.10296449960E+01 0.  0.
     999903    2    3    3    0    0  0.69164706013E-01  0.74961674615E-01  0.83790869745E-01  0.14022809690E+00  0.47328639211E-01 0.  0.
         14    1    1    2    0    0  0.10224229247E-01 -0.71726406403E-02 -0.67302975823E-02  0.14187266932E-01  0.00000000000E+00 0. -1.
     999901    1    3    3    0    0 -0.79388935260E-01 -0.67789033975E-01 -0.77060572162E-01  0.88951463616E+00  0.88000000000E+00 0. -1.
        -11    1    4    4    0    0  0.35111423161E-01  0.18842827230E-01  0.92655017653E-02  0.40914237355E-01  0.51100000000E-03 0.  1.
         11    1    4    4    0    0  0.34053282853E-01  0.56118847386E-01  0.74525367980E-01  0.99313859549E-01  0.51100000000E-03 0. -1.
</event>
<event>
 8    1  0.2928569E+004  0.1043930E+01  0.7957747E-01            NaN
         13   -1    0    0    0    0  0.00000000000E+00  0.00000000000E+00  0.74505805969E-08  0.10566000000E+00  0.10566000000E+00 0.  1.
     999900   -1    0    0    0    0 -0.00000000000E+00 -0.00000000000E+00 -0.74505805969E-08  0.93827000000E+00  0.93827000000E+00 0. -1.
     999902    2    1    2    0    0  0.42680266031E-02 -0.40923952148E-02 -0.10551780066E-01  0.10318343887E+01  0.10317634913E+01 0.  0.
     999903    2    3    3    0    0  0.76546206926E-01  0.37708321522E-01 -0.10563597766E+00  0.14278296169E+00  0.44122274031E-01 0.  0.
         14    1    1    2    0    0 -0.42680266031E-02  0.40923952148E-02  0.10551780066E-01  0.12095611280E-01  0.00000000000E+00 0.  1.
     999901    1    3    3    0    0 -0.72278180323E-01 -0.41800716737E-01  0.95084197596E-01  0.88905142703E+00  0.88000000000E+00 0.  1.
        -11    1    4    4    0    0  0.27392190986E-01  0.28346015372E-01 -0.21534095872E-01  0.44920008020E-01  0.51100000000E-03 0.  1.
         11    1    4    4    0    0  0.49154015940E-01  0.93623061497E-02 -0.84101881790E-01  0.97862953670E-01  0.51100000000E-03 0. -1.
</event>
<event>
 8    1  0.2928569E+004  0.1043930E+01  0.7957747E-01            NaN
         13   -1    0    0    0    0  0.00000000000E+00  0.00000000000E+00  0.74505805969E-08  0.10566000000E+00  0.10566000000E+00 0.  1.
     999900   -1    0    0    0    0 -0.00000000000E+00 -0.00000000000E+00 -0.74505805969E-08  0.93827000000E+00  0.93827000000E+00 0. -1.
     999902    2    1    2    0    0  0.77405400191E-02 -0.11006929339E-01  0.16113240418E-02  0.10303777006E+01  0.10302885718E+01 0.  0.
     999903    2    3    3    0    0 -0.23022183024E-02 -0.10459628518E+00 -0.83481046203E-01  0.14127672998E+00  0.45214447652E-01 0.  0.
         14    1    1    2    0    0 -0.77405400191E-02  0.11006929339E-01 -0.16113240418E-02  0.13552299378E-01  0.00000000000E+00 0.  1.
     999901    1    3    3    0    0  0.10042758322E-01  0.93589355842E-01  0.85092370245E-01  0.88910097064E+00  0.88000000000E+00 0.  1.
        -11    1    4    4    0    0  0.10753823155E-01 -0.69790636902E-02 -0.21102085982E-01  0.24696380225E-01  0.51100000000E-03 0.  1.
         11    1    4    4    0    0 -0.13056041458E-01 -0.97617221490E-01 -0.62378960221E-01  0.11658034976E+00  0.51100000000E-03 0. -1.
</event>
<event>
 7    1  0.2928569E+004  0.1043930E+01  0.7957747E-01            NaN
         13   -1    0    0    0    0  0.00000000000E+00  0.00000000000E+00  0.74505805969E-08  0.10566000000E+00  0.10566000000E+00 0.  1.
     999900   -1    0    0    0    0 -0.00000000000E+00 -0.00000000000E+00 -0.74505805969E-08  0.93827000000E+00  0.93827000000E+00 0. -1.
     999902    2    1    2    0    0 -0.65887824435E-02  0.12296945102E-01 -0.14703260903E-02  0.10299018579E+01  0.10298063158E+01 0.  0.
         14    1    1    2    0    0  0.65887824435E-02 -0.12296945102E-01  0.14703260903E-02  0.14028142134E-01  0.00000000000E+00 0. -1.
     999901    1    3    3    0    0 -0.64560455759E-01  0.99775776077E-01  0.83797466314E-01  0.89193344668E+00  0.88000000000E+00 0. -1.
        -11    1    3    3    0    0  0.27148948345E-01 -0.23264052941E-01 -0.18156618882E-01  0.40102437403E-01  0.51100000000E-03 0.  1.
         11    1    3    3    0    0  0.30822724971E-01 -0.64214778035E-01 -0.67111173522E-01  0.97865973786E-01  0.51100000000E-03 0. -1.
</event>
<event>
 8    1  0.2928569E+004  0.1043930E+01  0.7957747E-01            NaN
         13   -1    0    0    0    0  0.00000000000E+00  0.00000000000E+00  0.74505805969E-08  0.10566000000E+00  0.10566000000E+00 0.  1.
     999900   -1    0    0    0    0 -0.00000000000E+00 -0.00000000000E+00 -0.74505805969E-08  0.93827000000E+00  0.93827000000E+00 0.  1.
     999902    2    1    2    0    0 -0.76789193869E-02 -0.11551301302E-01 -0.91537217695E-03  0.10300290550E+01  0.10299352494E+01 0.  0.
     999903    2    3    3    0    0 -0.11649218960E+00  0.59510171684E-01 -0.22213207029E-01  0.14022926942E+00  0.45375441174E-01 0.  0.
         14    1    1    2    0    0  0.76789193869E-02  0.11551301302E-01  0.91537217695E-03  0.13900944966E-01  0.00000000000E+00 0.  1.
     999901    1    3    3    0    0  0.10881327022E+00 -0.71061472986E-01  0.21297834852E-01  0.88979978562E+00  0.88000000000E+00 0. -1.
        -11    1    4    4    0    0 -0.10926790505E+00  0.59758588114E-01 -0.31485900808E-01  0.12846083838E+00  0.51100000000E-03 0. -1.
         11    1    4    4    0    0 -0.72242845524E-02 -0.24841643018E-03  0.92726937790E-02  0.11768431031E-01  0.51100000000E-03 0.  1.
</event>
<event>
 8    1  0.2928569E+004  0.1043930E+01  0.7957747E-01            NaN
         13   -1    0    0    0    0  0.00000000000E+00  0.00000000000E+00  0.74505805969E-08  0.10566000000E+00  0.10566000000E+00 0.  1.
     999900   -1    0    0    0    0 -0.00000000000E+00 -0.00000000000E+00 -0.74505805969E-08  0.93827000000E+00  0.93827000000E+00 0. -1.
     999902    2    1    2    0    0  0.10939373832E-01  0.78115480136E-02 -0.43166026179E-02  0.10298118117E+01  0.10297150306E+01 0.  0.
     999903    2    3    3    0    0 -0.64280151511E-01  0.11314136224E+00  0.25366808706E-01  0.13984919921E+00  0.44513119491E-01 0.  0.
         14    1    1    2    0    0 -0.10939373832E-01 -0.78115480136E-02  0.43166026179E-02  0.14118188282E-01  0.00000000000E+00 0. -1.
     999901    1    3    3    0    0  0.75219525342E-01 -0.10532981423E+00 -0.29683411324E-01  0.88996261251E+00  0.88000000000E+00 0. -1.
        -11    1    4    4    0    0 -0.24841009069E-01  0.39506653293E-01 -0.12228616799E-01  0.48245741530E-01  0.51100000000E-03 0. -1.
         11    1    4    4    0    0 -0.39439142442E-01  0.73634708949E-01  0.37595425505E-01  0.91603457678E-01  0.51100000000E-03 0.  1.
</event>
<event>
 8    1  0.2928569E+004  0.1043930E+01  0.7957747E-01            NaN
         13   -1    0    0    0    0  0.00000000000E+00  0.00000000000E+00  0.74505805969E-08  0.10566000000E+00  0.10566000000E+00 0. -1.
     999900   -1    0    0    0    0 -0.00000000000E+00 -0.00000000000E+00 -0.74505805969E-08  0.93827000000E+00  0.93827000000E+00 0. -1.
     999902    2    1    2    0    0  0.11490015500E-01  0.93866393369E-02 -0.32590434613E-02  0.10287395155E+01  0.10286273572E+01 0.  0.
     999903    2    3    3    0    0 -0.48832701763E-02  0.13116208602E+00 -0.18652324100E-01  0.14006955599E+00  0.45213185963E-01 0.  0.
         14    1    1    2    0    0 -0.11490015500E-01 -0.93866393369E-02  0.32590434613E-02  0.15190484473E-01  0.00000000000E+00 0. -1.
     999901    1    3    3    0    0  0.16373285677E-01 -0.12177544668E+00  0.15393280639E-01  0.88866995954E+00  0.88000000000E+00 0. -1.
        -11    1    4    4    0    0  0.44815276817E-02  0.65289968563E-01  0.12455496885E-01  0.66620301778E-01  0.51100000000E-03 0. -1.
         11    1    4    4    0    0 -0.93647978580E-02  0.65872117453E-01 -0.31107820986E-01  0.73449254211E-01  0.51100000000E-03 0.  1.
</event>
<event>
 8    1  0.2928569E+004  0.1043930E+01  0.7957747E-01            NaN
         13   -1    0    0    0    0  0.00000000000E+00  0.00000000000E+00  0.74505805969E-08  0.10566000000E+00  0.10566000000E+00 0. -1.
     999900   -1    0    0    0    0 -0.00000000000E+00 -0.00000000000E+00 -0.74505805969E-08  0.93827000000E+00  0.93827000000E+00 0.  1.
     999902    2    1    2    0    0  0.32582586663E-03 -0.14158952404E-01 -0.18574920457E-03  0.10297660811E+01  0.10296686677E+01 0.  0.
     999903    2    3    3    0    0 -0.54794804237E-02 -0.92424071775E-01 -0.96062764249E-01  0.14108642425E+00  0.45881267245E-01 0.  0.
         14    1    1    2    0    0 -0.32582586663E-03  0.14158952404E-01  0.18574920457E-03  0.14163918894E-01  0.00000000000E+00 0. -1.
     999901    1    3    3    0    0  0.58053062903E-02  0.78265119371E-01  0.95877015045E-01  0.88867965685E+00  0.88000000000E+00 0.  1.
        -11    1    4    4    0    0 -0.13594498538E-01 -0.76541716481E-01 -0.95624095281E-01  0.12323827925E+00  0.51100000000E-03 0. -1.
         11    1    4    4    0    0  0.81150181143E-02 -0.15882355294E-01 -0.43866896801E-03  0.17848145006E-01  0.51100000000E-03 0.  1.
</event>
<event>
 8    1  0.2928569E+004  0.1043930E+01  0.7957747E-01            NaN
         13   -1    0    0    0    0  0.00000000000E+00  0.00000000000E+00  0.74505805969E-08  0.10566000000E+00  0.10566000000E+00 0. -1.
     999900   -1    0    0    0    0 -0.00000000000E+00 -0.00000000000E+00 -0.74505805969E-08  0.93827000000E+00  0.93827000000E+00 0. -1.
     999902    2    1    2    0    0  0.97831912384E-02 -0.94407900186E-02 -0.15906023706E-02  0.10302417071E+01  0.10301507684E+01 0.  0.
     999903    2    3    3    0    0  0.84395469619E-01  0.98275924321E-01 -0.28373881896E-01  0.14013652976E+00  0.45303611415E-01 0.  0.
         14    1    1    2    0    0 -0.97831912384E-02  0.94407900186E-02  0.15906023706E-02  0.13688292913E-01  0.00000000000E+00 0.  1.
     999901    1    3    3    0    0 -0.74612278381E-01 -0.10771671434E+00  0.26783279526E-01  0.89010517732E+00  0.88000000000E+00 0.  1.
        -11    1    4    4    0    0  0.72019080868E-01  0.78216973357E-01 -0.42553127042E-02  0.10640964119E+00  0.51100000000E-03 0. -1.
         11    1    4    4    0    0  0.12376388751E-01  0.20058950964E-01 -0.24118569192E-01  0.33726888578E-01  0.51100000000E-03 0.  1.
</event>
<event>
 8    1  0.2928569E+004  0.1043930E+01  0.7957747E-01            NaN
         13   -1    0    0    0    0  0.00000000000E+00  0.00000000000E+00  0.74505805969E-08  0.10566000000E+00  0.10566000000E+00 0. -1.
     999900   -1    0    0    0    0 -0.00000000000E+00 -0.00000000000E+00 -0.74505805969E-08  0.93827000000E+00  0.93827000000E+00 0. -1.
     999902    2    1    2    0    0 -0.11759482661E-01 -0.33389330367E-03 -0.75572118608E-02  0.10299475693E+01  0.10298526531E+01 0.  0.
     999903    2    3    3    0    0  0.12353587620E+00  0.16140379179E-01 -0.43135433305E-01  0.13874498536E+00  0.43218986633E-01 0.  0.
         14    1    1    2    0    0  0.11759482661E-01  0.33389330367E-03  0.75572118608E-02  0.13982430701E-01  0.00000000000E+00 0. -1.
     999901    1    3    3    0    0 -0.13529535887E+00 -0.16474272483E-01  0.35578221445E-01  0.89120258394E+00  0.88000000000E+00 0. -1.
        -11    1    4    4    0    0  0.85926585235E-01  0.28853435444E-01 -0.39499979246E-01  0.98875721330E-01  0.51100000000E-03 0.  1.
         11    1    4    4    0    0  0.37609290970E-01 -0.12713056265E-01 -0.36354540591E-02  0.39869264027E-01  0.51100000000E-03 0. -1.
</event>
<event>
 8    1  0.2928569E+004  0.1043930E+01  0.7957747E-01            NaN
         13   -1    0    0    0    0  0.00000000000E+00  0.00000000000E+00  0.74505805969E-08  0.10566000000E+00  0.10566000000E+00 0. -1.
     999900   -1    0    0    0    0 -0.00000000000E+00 -0.00000000000E+00 -0.74505805969E-08  0.93827000000E+00  0.93827000000E+00 0.  1.
     999902    2    1    2    0    0 -0.31546343799E-02 -0.13001311651E-01 -0.34558263137E-02  0.10301123100E+01  0.10300196321E+01 0.  0.
     999903    2    3    3    0    0 -0.39645553874E-01  0.87731850480E-01 -0.89692166646E-01  0.13942972701E+00  0.46122841271E-01 0.  0.
         14    1    1    2    0    0  0.31546343799E-02  0.13001311651E-01  0.34558263137E-02  0.13817690047E-01  0.00000000000E+00 0. -1.
     999901    1    3    3    0    0  0.36490919494E-01 -0.10073316213E+00  0.86236340332E-01  0.89068258294E+00  0.88000000000E+00 0.  1.
        -11    1    4    4    0    0 -0.16892282053E-02  0.46220330610E-01 -0.60196630592E-01  0.75914872781E-01  0.51100000000E-03 0. -1.
         11    1    4    4    0    0 -0.37956325669E-01  0.41511519869E-01 -0.29495536053E-01  0.63514854233E-01  0.51100000000E-03 0.  1.
</event>
<event>
 8    1  0.2928569E+004  0.1043930E+01  0.7957747E-01            NaN
         13   -1    0    0    0    0  0.00000000000E+00  0.00000000000E+00  0.74505805969E-08  0.10566000000E+00  0.10566000000E+00 0. -1.
     999900   -1    0    0    0    0 -0.00000000000E+00 -0.00000000000E+00 -0.74505805969E-08  0.93827000000E+00  0.93827000000E+00 0. -1.
     999902    2    1    2    0    0  0.12790450658E-02 -0.10676991488E-01  0.11609430540E-01  0.10281055575E+01  0.10279837666E+01 0.  0.
     999903    2    3    3    0    0  0.11704857869E+00  0.57116613746E-01  0.31208257600E-02  0.13789737159E+00  0.45202524229E-01 0.  0.
         14    1    1    2    0    0 -0.12790450658E-02  0.10676991488E-01 -0.11609430540E-01  0.15824442517E-01  0.00000000000E+00 0.  1.
     999901    1    3    3    0    0 -0.11576953363E+00 -0.67793605234E-01  0.84886047796E-02  0.89020818590E+00  0.88000000000E+00 0.  1.
        -11    1    4    4    0    0  0.61652001959E-01  0.64368473169E-02  0.87489335815E-02  0.62603572652E-01  0.51100000000E-03 0.  1.
         11    1    4    4    0    0  0.55396576736E-01  0.50679766429E-01 -0.56281078215E-02  0.75293798934E-01  0.51100000000E-03 0. -1.
</event>
<event>
 8    1  0.2928569E+004  0.1043930E+01  0.7957747E-01            NaN
         13   -1    0    0    0    0  0.00000000000E+00  0.00000000000E+00  0.74505805969E-08  0.10566000000E+00  0.10566000000E+00 0.  1.
     999900   -1    0    0    0    0 -0.00000000000E+00 -0.00000000000E+00 -0.74505805969E-08  0.93827000000E+00  0.93827000000E+00 0. -1.
     999902    2    1    2    0    0  0.13217193859E-01 -0.16315169538E-01 -0.10179497214E-01  0.10205954519E+01  0.10203286605E+01 0.  0.
     999903    2    3    3    0    0  0.10885203076E+00 -0.43263459881E-01  0.44518343752E-01  0.13331641679E+00  0.45507059816E-01 0.  0.
         14    1    1    2    0    0 -0.13217193859E-01  0.16315169538E-01  0.10179497214E-01  0.23334548079E-01  0.00000000000E+00 0. -1.
     999901    1    3    3    0    0 -0.95634836901E-01  0.26948290344E-01 -0.54697840966E-01  0.88727903513E+00  0.88000000000E+00 0. -1.
        -11    1    4    4    0    0  0.77027132030E-02 -0.20606199833E-01  0.75155707725E-02  0.23252788807E-01  0.51100000000E-03 0. -1.
         11    1    4    4    0    0  0.10114931756E+00 -0.22657260048E-01  0.37002772979E-01  0.11006362798E+00  0.51100000000E-03 0.  1.
</event>
<event>
 8    1  0.2928569E+004  0.1043930E+01  0.7957747E-01            NaN
         13   -1    0    0    0    0  0.00000000000E+00  0.00000000000E+00  0.74505805969E-08  0.10566000000E+00  0.10566000000E+00 0.  1.
     999900   -1    0    0    0    0 -0.00000000000E+00 -0.00000000000E+00 -0.74505805969E-08  0.93827000000E+00  0.93827000000E+00 0. -1.
     999902    2    1    2    0    0 -0.45397355916E-02 -0.33980331491E-02 -0.12928202280E-01  0.10298128387E+01  0.10297160718E+01 0.  0.
     999903    2    3    3    0    0  0.19619934494E-01  0.65994861576E-02  0.12871693099E+00  0.13810269308E+00  0.45561063049E-01 0.  0.
         14    1    1    2    0    0  0.45397355916E-02  0.33980331491E-02  0.12928202280E-01  0.14117161284E-01  0.00000000000E+00 0.  1.
     999901    1    3    3    0    0 -0.24159670085E-01 -0.99975193066E-02 -0.14164513327E+00  0.89171014564E+00  0.88000000000E+00 0. -1.
        -11    1    4    4    0    0  0.28953457167E-01 -0.74003625499E-02  0.56155544093E-01  0.63614261775E-01  0.51100000000E-03 0.  1.
         11    1    4    4    0    0 -0.93335226728E-02  0.13999848707E-01  0.72561386895E-01  0.74488431306E-01  0.51100000000E-03 0. -1.
</event>
<event>
 8    1  0.2928569E+004  0.1043930E+01  0.7957747E-01            NaN
         13   -1    0    0    0    0  0.00000000000E+00  0.00000000000E+00  0.74505805969E-08  0.10566000000E+00  0.10566000000E+00 0. -1.
     999900   -1    0    0    0    0 -0.00000000000E+00 -0.00000000000E+00 -0.74505805969E-08  0.93827000000E+00  0.93827000000E+00 0.  1.
     999902    2    1    2    0    0  0.10191947407E-01 -0.11155600379E-01  0.93817301750E-03  0.10287905357E+01  0.10286791351E+01 0.  0.
     999903    2    3    3    0    0 -0.83392248381E-01  0.72744305060E-01 -0.67452650499E-01  0.13723319002E+00  0.45134104340E-01 0.  0.
         14    1    1    2    0    0 -0.10191947407E-01  0.11155600379E-01 -0.93817301750E-03  0.15139464336E-01  0.00000000000E+00 0.  1.
     999901    1    3    3    0    0  0.93584195788E-01 -0.83899905439E-01  0.68390823517E-01  0.89155734565E+00  0.88000000000E+00 0. -1.
        -11    1    4    4    0    0 -0.17110440007E-01  0.33302013065E-01 -0.41398968058E-01  0.55820488252E-01  0.51100000000E-03 0.  1.
         11    1    4    4    0    0 -0.66281808374E-01  0.39442291994E-01 -0.26053682441E-01  0.81412701766E-01  0.51100000000E-03 0. -1.
</event>
<event>
 8    1  0.2928569E+004  0.1043930E+01  0.7957747E-01            NaN
         13   -1    0    0    0    0  0.00000000000E+00  0.00000000000E+00  0.74505805969E-08  0.10566000000E+00  0.10566000000E+00 0. -1.
     999900   -1    0    0    0    0 -0.00000000000E+00 -0.00000000000E+00 -0.74505805969E-08  0.93827000000E+00  0.93827000000E+00 0. -1.
     999902    2    1    2    0    0 -0.66072788168E-02 -0.10047355923E-01 -0.53452596235E-02  0.10307703155E+01  0.10306863083E+01 0.  0.
     999903    2    3    3    0    0 -0.80756265188E-01  0.79920937987E-01  0.68359876018E-01  0.14002634947E+00  0.45004168702E-01 0.  0.
         14    1    1    2    0    0  0.66072788168E-02  0.10047355923E-01  0.53452596235E-02  0.13159684451E-01  0.00000000000E+00 0. -1.
     999901    1    3    3    0    0  0.74148986371E-01 -0.89968293910E-01 -0.73705135641E-01  0.89074396608E+00  0.88000000000E+00 0.  1.
        -11    1    4    4    0    0 -0.76390241517E-01  0.53772091319E-01  0.63786953322E-01  0.11311915549E+00  0.51100000000E-03 0. -1.
         11    1    4    4    0    0 -0.43660236705E-02  0.26148846668E-01  0.45729226953E-02  0.26907193977E-01  0.51100000000E-03 0.  1.
</event>
<event>
 8    1  0.2928569E+004  0.1043930E+01  0.7957747E-01            NaN
         13   -1    0    0    0    0  0.00000000000E+00  0.00000000000E+00  0.74505805969E-08  0.10566000000E+00  0.10566000000E+00 0.  1.
     999900   -1    0    0    0    0 -0.00000000000E+00 -0.00000000000E+00 -0.74505805969E-08  0.93827000000E+00  0.93827000000E+00 0.  1.
     999902    2    1    2    0    0 -0.13530786233E-02  0.36580545160E-02 -0.13536456055E-01  0.10298428489E+01  0.10297464958E+01 0.  0.
     999903    2    3    3    0    0 -0.80045596449E-01 -0.10507653433E+00 -0.51890615028E-02  0.13962635712E+00  0.44946831546E-01 0.  0.
         14    1    1    2    0    0  0.13530786233E-02 -0.36580545160E-02  0.13536456055E-01  0.14087151136E-01  0.00000000000E+00 0.  1.
     999901    1    3    3    0    0  0.78692517826E-01  0.10873458885E+00 -0.83473945518E-02  0.89021649174E+00  0.88000000000E+00 0.  1.
        -11    1    4    4    0    0 -0.49531036186E-01 -0.63568923032E-01 -0.25078118031E-01  0.84400856904E-01  0.51100000000E-03 0.  1.
         11    1    4    4    0    0 -0.30514560264E-01 -0.41507611299E-01  0.19889056528E-01  0.55225500219E-01  0.51100000000E-03 0. -1.
</event>
<event>
 8    1  0.2928569E+004  0.1043930E+01  0.7957747E-01            NaN
         13   -1    0    0    0    0  0.00000000000E+00  0.00000000000E+00  0.74505805969E-08  0.10566000000E+00  0.10566000000E+00 0. -1.
     999900   -1    0    0    0    0 -0.00000000000E+00 -0.00000000000E+00 -0.74505805969E-08  0.93827000000E+00  0.93827000000E+00 0.  1.
     999902    2    1    2    0    0 -0.13894958595E-02  0.78147227948E-02  0.10737052543E-01  0.10305776636E+01  0.10304911624E+01 0.  0.
     999903    2    3    3    0    0 -0.42044350165E-01  0.49386665105E-01 -0.11572580577E+00  0.13963776766E+00  0.43582954993E-01 0.  0.
         14    1    1    2    0    0  0.13894958595E-02 -0.78147227948E-02 -0.10737052543E-01  0.13352336440E-01  0.00000000000E+00 0.  1.
     999901    1    3    3    0    0  0.40654854305E-01 -0.41571942310E-01  0.12646285831E+00  0.89093989590E+00  0.88000000000E+00 0. -1.
        -11    1    4    4    0    0 -0.10972994665E-01 -0.15218596521E-02 -0.20679940473E-02  0.11280974652E-01  0.51100000000E-03 0.  1.
         11    1    4    4    0    0 -0.31071355499E-01  0.50908524757E-01 -0.11365781172E+00  0.12835679301E+00  0.51100000000E-03 0. -1.
</event>
<event>
 8    1  0.2928569E+004  0.1043930E+01  0.7957747E-01            NaN
         13   -1    0    0    0    0  0.00000000000E+00  0.00000000000E+00  0.74505805969E-08  0.10566000000E+00  0.10566000000E+00 0.  1.
     999900   -1    0    0    0    0 -0.00000000000E+00 -0.00000000000E+00 -0.74505805969E-08  0.93827000000E+00  0.93827000000E+00 0.  1.
     999902    2    1    2    0    0  0.47212418069E-02  0.91032486963E-02 -0.98644330530E-02  0.10297009347E+01  0.10296026168E+01 0.  0.
     999903    2    3    3    0    0  0.11754496188E-01  0.60333885637E-01  0.11654962578E+00  0.13916482697E+00  0.44773740743E-01 0.  0.
         14    1    1    2    0    0 -0.47212418069E-02 -0.91032486963E-02  0.98644330530E-02  0.14229065341E-01  0.00000000000E+00 0.  1.
     999901    1    3    3    0    0 -0.70332543812E-02 -0.51230636940E-01 -0.12641405883E+00  0.89053610769E+00  0.88000000000E+00 0.  1.
        -11    1    4    4    0    0 -0.43912573802E-02  0.57453330373E-02  0.54408130415E-01  0.54888958538E-01  0.51100000000E-03 0.  1.
         11    1    4    4    0    0  0.16145753568E-01  0.54588552599E-01  0.62141495362E-01  0.84275868432E-01  0.51100000000E-03 0. -1.
</event>
<event>
 8    1  0.2928569E+004  0.1043930E+01  0.7957747E-01            NaN
         13   -1    0    0    0    0  0.00000000000E+00  0.00000000000E+00  0.74505805969E-08  0.10566000000E+00  0.10566000000E+00 0. -1.
     999900   -1    0    0    0    0 -0.00000000000E+00 -0.00000000000E+00 -0.74505805969E-08  0.93827000000E+00  0.93827000000E+00 0. -1.
     999902    2    1    2    0    0  0.13934880059E-02  0.13463748870E-01 -0.33155812589E-02  0.10299941677E+01  0.10298998874E+01 0.  0.
     999903    2    3    3    0    0 -0.60411608272E-01  0.39785558251E-01  0.11093794792E+00  0.14006912789E+00  0.45603500286E-01 0.  0.
         14    1    1    2    0    0 -0.13934880059E-02 -0.13463748870E-01  0.33155812589E-02  0.13935832288E-01  0.00000000000E+00 0.  1.
     999901    1    3    3    0    0  0.61805096278E-01 -0.26321809381E-01 -0.11425352918E+00  0.88992503982E+00  0.88000000000E+00 0. -1.
        -11    1    4    4    0    0 -0.54291358566E-01  0.11391184827E-01  0.62336553182E-01  0.83447095158E-01  0.51100000000E-03 0.  1.
         11    1    4    4    0    0 -0.61202497066E-02  0.28394373424E-01  0.48601394742E-01  0.56622032730E-01  0.51100000000E-03 0. -1.
</event>
<event>
 8    1  0.2928569E+004  0.1043930E+01  0.7957747E-01            NaN
         13   -1    0    0    0    0  0.00000000000E+00  0.00000000000E+00  0.74505805969E-08  0.10566000000E+00  0.10566000000E+00 0. -1.
     999900   -1    0    0    0    0 -0.00000000000E+00 -0.00000000000E+00 -0.74505805969E-08  0.93827000000E+00  0.93827000000E+00 0. -1.
     999902    2    1    2    0    0 -0.18503489878E-02 -0.20314378023E-02  0.11563844996E-01  0.10320441663E+01  0.10319757207E+01 0.  0.
     999903    2    3    3    0    0 -0.13836078423E-01 -0.79287893923E-01  0.10947414432E+00  0.14316923450E+00  0.45109137034E-01 0.  0.
         14    1    1    2    0    0  0.18503489878E-02  0.20314378023E-02 -0.11563844996E-01  0.11885833670E-01  0.00000000000E+00 0.  1.
     999901    1    3    3    0    0  0.11985729435E-01  0.77256456121E-01 -0.97910299324E-01  0.88887493183E+00  0.88000000000E+00 0. -1.
        -11    1    4    4    0    0  0.28346388801E-02 -0.31477296340E-01  0.12928709163E-01  0.34150666231E-01  0.51100000000E-03 0. -1.
         11    1    4    4    0    0 -0.16670717303E-01 -0.47810597583E-01  0.96545435157E-01  0.10901856827E+00  0.51100000000E-03 0.  1.
</event>
<event>
 8    1  0.2928569E+004  0.1043930E+01  0.7957747E-01            NaN
         13   -1    0    0    0    0  0.00000000000E+00  0.00000000000E+00  0.74505805969E-08  0.10566000000E+00  0.10566000000E+00 0. -1.
     999900   -1    0    0    0    0 -0.00000000000E+00 -0.00000000000E+00 -0.74505805969E-08  0.93827000000E+00  0.93827000000E+00 0.  1.
     999902    2    1    2    0    0 -0.59476367961E-02 -0.11906450911E-01  0.19450757384E-02  0.10304793020E+01  0.10303915133E+01 0.  0.
     999903    2    3    3    0    0  0.86707695064E-01  0.86605880542E-01  0.47977422212E-01  0.13895887774E+00  0.44597463302E-01 0.  0.
         14    1    1    2    0    0  0.59476367961E-02  0.11906450911E-01 -0.19450757384E-02  0.13450697988E-01  0.00000000000E+00 0.  1.
     999901    1    3    3    0    0 -0.92655331860E-01 -0.98512331453E-01 -0.46032346473E-01  0.89152042427E+00  0.88000000000E+00 0.  1.
        -11    1    4    4    0    0  0.34951587456E-01  0.11118918322E-01  0.25614275991E-01  0.44739200550E-01  0.51100000000E-03 0.  1.
         11    1    4    4    0    0  0.51756107608E-01  0.75486962220E-01  0.22363146221E-01  0.94219677190E-01  0.51100000000E-03 0. -1.
</event>
<event>
 8    1  0.2928569E+004  0.1043930E+01  0.7957747E-01            NaN
         13   -1    0    0    0    0  0.00000000000E+00  0.00000000000E+00  0.74505805969E-08  0.10566000000E+00  0.10566000000E+00 0.  1.
     999900   -1    0    0    0    0 -0.00000000000E+00 -0.00000000000E+00 -0.74505805969E-08  0.93827000000E+00  0.93827000000E+00 0. -1.
     999902    2    1    2    0    0 -0.83607349715E-02 -0.60630559146E-02 -0.89974322643E-02  0.10302326892E+01  0.10301416298E+01 0.  0.
     999903    2    3    3    0    0 -0.68118744175E-01  0.38708108253E-01 -0.10888452467E+00  0.14143973915E+00  0.44842827124E-01 0.  0.
         14    1    1    2    0    0  0.83607349715E-02  0.60630559146E-02  0.89974322643E-02  0.13697310818E-01  0.00000000000E+00 0.  1.
     999901    1    3    3    0    0  0.59758009203E-01 -0.44771164168E-01  0.99887092406E-01  0.88879295004E+00  0.88000000000E+00 0.  1.
        -11    1    4    4    0    0 -0.55567728804E-01  0.29718461029E-01 -0.49657274800E-01  0.80231324755E-01  0.51100000000E-03 0. -1.
         11    1    4    4    0    0 -0.12551015371E-01  0.89896472244E-02 -0.59227249871E-01  0.61208414391E-01  0.51100000000E-03 0.  1.
</event>
<event>
 8    1  0.2928569E+004  0.1043930E+01  0.7957747E-01            NaN
         13   -1    0    0    0    0  0.00000000000E+00  0.00000000000E+00  0.74505805969E-08  0.10566000000E+00  0.10566000000E+00 0.  1.
     999900   -1    0    0    0    0 -0.00000000000E+00 -0.00000000000E+00 -0.74505805969E-08  0.93827000000E+00  0.93827000000E+00 0.  1.
     999902    2    1    2    0    0  0.91319593503E-02  0.10271266150E-01  0.26094379677E-03  0.10301837394E+01  0.10300920236E+01 0.  0.
     999903    2    3    3    0    0  0.89756439800E-01 -0.68354239438E-01  0.67076477509E-01  0.14049469676E+00  0.50109734067E-01 0.  0.
         14    1    1    2    0    0 -0.91319593503E-02 -0.10271266150E-01 -0.26094379677E-03  0.13746260639E-01  0.00000000000E+00 0. -1.
     999901    1    3    3    0    0 -0.80624480450E-01  0.78625505588E-01 -0.66815533712E-01  0.88968904260E+00  0.88000000000E+00 0.  1.
        -11    1    4    4    0    0  0.30367550889E-01 -0.49519875275E-01  0.16910748267E-01  0.60503229023E-01  0.51100000000E-03 0. -1.
         11    1    4    4    0    0  0.59388888911E-01 -0.18834364163E-01  0.50165729242E-01  0.79991467738E-01  0.51100000000E-03 0.  1.
</event>
<event>
 8    1  0.2928569E+004  0.1043930E+01  0.7957747E-01            NaN
         13   -1    0    0    0    0  0.00000000000E+00  0.00000000000E+00  0.74505805969E-08  0.10566000000E+00  0.10566000000E+00 0.  1.
     999900   -1    0    0    0    0 -0.00000000000E+00 -0.00000000000E+00 -0.74505805969E-08  0.93827000000E+00  0.93827000000E+00 0.  1.
     999902    2    1    2    0    0  0.48324400694E-03 -0.61011879363E-02 -0.12126079991E-01  0.10303469284E+01  0.10302573916E+01 0.  0.
     999903    2    3    3    0    0 -0.47805207163E-02  0.12887790430E+00 -0.30738903023E-01  0.13984510370E+00  0.44490507702E-01 0.  0.
         14    1    1    2    0    0 -0.48324400694E-03  0.61011879363E-02  0.12126079991E-01  0.13583071631E-01  0.00000000000E+00 0.  1.
     999901    1    3    3    0    0  0.52637647232E-02 -0.13497909223E+00  0.18612823033E-01  0.89050182467E+00  0.88000000000E+00 0. -1.
        -11    1    4    4    0    0 -0.79893879540E-02  0.18117825250E-01  0.94861134218E-02  0.21962089621E-01  0.51100000000E-03 0.  1.
         11    1    4    4    0    0  0.32088672377E-02  0.11076007904E+00 -0.40225016445E-01  0.11788301408E+00  0.51100000000E-03 0. -1.
</event>
<event>
 8    1  0.2928569E+004  0.1043930E+01  0.7957747E-01            NaN
         13   -1    0    0    0    0  0.00000000000E+00  0.00000000000E+00  0.74505805969E-08  0.10566000000E+00  0.10566000000E+00 0.  1.
     999900   -1    0    0    0    0 -0.00000000000E+00 -0.00000000000E+00 -0.74505805969E-08  0.93827000000E+00  0.93827000000E+00 0.  1.
     999902    2    1    2    0    0  0.14174540887E-01  0.41038473522E-02 -0.48540502112E-02  0.10283954908E+01  0.10282781552E+01 0.  0.
     999903    2    3    3    0    0 -0.24838192276E-01  0.12728755891E+00 -0.19944549007E-01  0.13883158456E+00  0.45358189855E-01 0.  0.
         14    1    1    2    0    0 -0.14174540887E-01 -0.41038473522E-02  0.48540502112E-02  0.15534509194E-01  0.00000000000E+00 0.  1.
     999901    1    3    3    0    0  0.39012733163E-01 -0.12318371156E+00  0.15090498796E-01  0.88956390625E+00  0.88000000000E+00 0. -1.
        -11    1    4    4    0    0  0.45556940614E-02  0.72429962732E-01 -0.24055126287E-01  0.76457596558E-01  0.51100000000E-03 0. -1.
         11    1    4    4    0    0 -0.29393886337E-01  0.54857596180E-01  0.41105772798E-02  0.62373988002E-01  0.51100000000E-03 0.  1.
</event>
<event>
 8    1  0.2928569E+004  0.1043930E+01  0.7957747E-01            NaN
         13   -1    0    0    0    0  0.00000000000E+00  0.00000000000E+00  0.74505805969E-08  0.10566000000E+00  0.10566000000E+00 0.  1.
     999900   -1    0    0    0    0 -0.00000000000E+00 -0.00000000000E+00 -0.74505805969E-08  0.93827000000E+00  0.93827000000E+00 0. -1.
     999902    2    1    2    0    0 -0.34203343753E-02  0.12190865091E-01 -0.73558593904E-02  0.10292867577E+01  0.10291825907E+01 0.  0.
     999903    2    3    3    0    0 -0.49784892398E-01  0.38681938894E-02 -0.12335920211E+00  0.14042472415E+00  0.44811962359E-01 0.  0.
         14    1    1    2    0    0  0.34203343753E-02 -0.12190865091E-01  0.73558593904E-02  0.14643242342E-01  0.00000000000E+00 0.  1.
     999901    1    3    3    0    0  0.46364558023E-01  0.83226712018E-02  0.11600334272E+00  0.88886203351E+00  0.88000000000E+00 0.  1.
        -11    1    4    4    0    0 -0.19182982231E-01 -0.17493452103E-01 -0.28862578026E-01  0.38824183251E-01  0.51100000000E-03 0.  1.
         11    1    4    4    0    0 -0.30601910167E-01  0.21361645993E-01 -0.94496624087E-01  0.10160054090E+00  0.51100000000E-03 0. -1.
</event>
<event>
 8    1  0.2928569E+004  0.1043930E+01  0.7957747E-01            NaN
         13   -1    0    0    0    0  0.00000000000E+00  0.00000000000E+00  0.74505805969E-08  0.10566000000E+00  0.10566000000E+00 0.  1.
     999900   -1    0    0    0    0 -0.00000000000E+00 -0.00000000000E+00 -0.74505805969E-08  0.93827000000E+00  0.93827000000E+00 0. -1.
     999902    2    1    2    0    0 -0.36889539097E-02 -0.37631077594E-02 -0.11802556079E-01  0.10310044559E+01  0.10309234299E+01 0.  0.
     999903    2    3    3    0    0  0.68923207579E-01 -0.82408428583E-01 -0.80939128000E-01  0.14182647703E+00  0.44967204726E-01 0.  0.
         14    1    1    2    0    0  0.36889539097E-02  0.37631077594E-02  0.11802556079E-01  0.12925544126E-01  0.00000000000E+00 0.  1.
     999901    1    3    3    0    0 -0.72612161488E-01  0.78645320824E-01  0.69136571921E-01  0.88917797884E+00  0.88000000000E+00 0.  1.
        -11    1    4    4    0    0  0.55997698512E-01 -0.45585785068E-01 -0.31348614925E-01  0.78719773993E-01  0.51100000000E-03 0.  1.
         11    1    4    4    0    0  0.12925509067E-01 -0.36822643516E-01 -0.49590513075E-01  0.63106703037E-01  0.51100000000E-03 0. -1.
</event>
<event>
 8    1  0.2928569E+004  0.1043930E+01  0.7957747E-01            NaN
         13   -1    0    0    0    0  0.00000000000E+00  0.00000000000E+00  0.74505805969E-08  0.10566000000E+00  0.10566000000E+00 0. -1.
     999900   -1    0    0    0    0 -0.00000000000E+00 -0.00000000000E+00 -0.74505805969E-08  0.93827000000E+00  0.93827000000E+00 0. -1.
     999902    2    1    2    0    0 -0.79502502618E-02 -0.82569793778E-02 -0.77469652733E-02  0.10300952735E+01  0.10300023654E+01 0.  0.
     999903    2    3    3    0    0 -0.76044561653E-01  0.84079594509E-01 -0.65538565407E-01  0.14076814176E+00  0.51654744304E-01 0.  0.
         14    1    1    2    0    0  0.79502502618E-02  0.82569793778E-02  0.77469652733E-02  0.13834726546E-01  0.00000000000E+00 0. -1.
     999901    1    3    3    0    0  0.68094311391E-01 -0.92336573886E-01  0.57791600134E-01  0.88932713169E+00  0.88000000000E+00 0.  1.
        -11    1    4    4    0    0 -0.29464737496E-01  0.59987674205E-01 -0.56571733656E-01  0.87563199931E-01  0.51100000000E-03 0.  1.
         11    1    4    4    0    0 -0.46579824156E-01  0.24091920304E-01 -0.89668317506E-02  0.53204941829E-01  0.51100000000E-03 0. -1.
</event>
<event>
 8    1  0.2928569E+004  0.1043930E+01  0.7957747E-01            NaN
         13   -1    0    0    0    0  0.00000000000E+00  0.00000000000E+00  0.74505805969E-08  0.10566000000E+00  0.10566000000E+00 0.  1.
     999900   -1    0    0    0    0 -0.00000000000E+00 -0.00000000000E+00 -0.74505805969E-08  0.93827000000E+00  0.93827000000E+00 0.  1.
     999902    2    1    2    0    0 -0.13311790629E-01  0.79129058969E-03 -0.18443624810E-02  0.10304677720E+01  0.10303798317E+01 0.  0.
     999903    2    3    3    0    0 -0.65604730594E-01  0.11396604957E+00 -0.26594433997E-01  0.14133581119E+00  0.44455668651E-01 0.  0.
         14    1    1    2    0    0  0.13311790629E-01 -0.79129058969E-03  0.18443624810E-02  0.13462228029E-01  0.00000000000E+00 0.  1.
     999901    1    3    3    0    0  0.52292939965E-01 -0.11317475898E+00  0.24750071516E-01  0.88913196078E+00  0.88000000000E+00 0. -1.
        -11    1    4    4    0    0 -0.54063655403E-01  0.10999939092E+00 -0.33814210806E-01  0.12714718562E+00  0.51100000000E-03 0.  1.
         11    1    4    4    0    0 -0.11541075191E-01  0.39666586496E-02  0.72197768092E-02  0.14188625571E-01  0.51100000000E-03 0. -1.
</event>
<event>
 8    1  0.2928569E+004  0.1043930E+01  0.7957747E-01            NaN
         13   -1    0    0    0    0  0.00000000000E+00  0.00000000000E+00  0.74505805969E-08  0.10566000000E+00  0.10566000000E+00 0.  1.
     999900   -1    0    0    0    0 -0.00000000000E+00 -0.00000000000E+00 -0.74505805969E-08  0.93827000000E+00  0.93827000000E+00 0. -1.
     999902    2    1    2    0    0  0.35720105235E-02 -0.74352775124E-03  0.13028638732E-01  0.10304001249E+01  0.10303112927E+01 0.  0.
     999903    2    3    3    0    0  0.13344272552E+00  0.59222733328E-02  0.48857268326E-02  0.14080631731E+00  0.44277695855E-01 0.  0.
         14    1    1    2    0    0 -0.35720105235E-02  0.74352775124E-03 -0.13028638732E-01  0.13529875088E-01  0.00000000000E+00 0. -1.
     999901    1    3    3    0    0 -0.12987071500E+00 -0.66658010840E-02  0.81429118990E-02  0.88959380761E+00  0.88000000000E+00 0. -1.
        -11    1    4    4    0    0  0.43329987028E-01 -0.15561545320E-01 -0.96229110616E-02  0.47037336307E-01  0.51100000000E-03 0. -1.
         11    1    4    4    0    0  0.90112738494E-01  0.21483818653E-01  0.14508637894E-01  0.93768980998E-01  0.51100000000E-03 0.  1.
</event>
<event>
 8    1  0.2928569E+004  0.1043930E+01  0.7957747E-01            NaN
         13   -1    0    0    0    0  0.00000000000E+00  0.00000000000E+00  0.74505805969E-08  0.10566000000E+00  0.10566000000E+00 0.  1.
     999900   -1    0    0    0    0 -0.00000000000E+00 -0.00000000000E+00 -0.74505805969E-08  0.93827000000E+00  0.93827000000E+00 0.  1.
     999902    2    1    2    0    0 -0.93369144448E-02  0.87248748747E-02  0.53112631216E-02  0.10300912526E+01  0.10299982902E+01 0.  0.
     999903    2    3    3    0    0 -0.10993367720E+00 -0.44009120338E-02 -0.75141168384E-01  0.14061691983E+00  0.44968228198E-01 0.  0.
         14    1    1    2    0    0  0.93369144448E-02 -0.87248748747E-02 -0.53112631216E-02  0.13838747374E-01  0.00000000000E+00 0.  1.
     999901    1    3    3    0    0  0.10059676276E+00  0.13125786909E-01  0.80452431505E-01  0.88947433279E+00  0.88000000000E+00 0. -1.
        -11    1    4    4    0    0 -0.27097526365E-01 -0.71225493617E-02 -0.43819523766E-01  0.52013636948E-01  0.51100000000E-03 0.  1.
         11    1    4    4    0    0 -0.82836150840E-01  0.27216373278E-02 -0.31321644618E-01  0.88603282886E-01  0.51100000000E-03 0. -1.
</event>
<event>
 8    1  0.2928569E+004  0.1043930E+01  0.7957747E-01            NaN
         13   -1    0    0    0    0  0.00000000000E+00  0.00000000000E+00  0.74505805969E-08  0.10566000000E+00  0.10566000000E+00 0. -1.
     999900   -1    0    0    0    0 -0.00000000000E+00 -0.00000000000E+00 -0.74505805969E-08  0.93827000000E+00  0.93827000000E+00 0. -1.
     999902    2    1    2    0    0  0.10939878896E-01  0.44665684871E-02 -0.18722156636E-02  0.10319660385E+01  0.10318966848E+01 0.  0.
     999903    2    3    3    0    0 -0.13176619363E+00 -0.13285748499E-01 -0.10871259564E-01  0.14024794921E+00  0.44860473436E-01 0.  0.
         14    1    1    2    0    0 -0.10939878896E-01 -0.44665684871E-02  0.18722156636E-02  0.11963961542E-01  0.00000000000E+00 0. -1.
     999901    1    3    3    0    0  0.14270607253E+00  0.17752316986E-01  0.89990438999E-02  0.89171808924E+00  0.88000000000E+00 0. -1.
        -11    1    4    4    0    0 -0.30417660490E-01  0.13788462165E-01 -0.11551571251E-01  0.35341981805E-01  0.51100000000E-03 0.  1.
         11    1    4    4    0    0 -0.10134853314E+00 -0.27074210664E-01  0.68031168729E-03  0.10490596741E+00  0.51100000000E-03 0. -1.
</event>
<event>
 8    1  0.2928569E+004  0.1043930E+01  0.7957747E-01            NaN
         13   -1    0    0    0    0  0.00000000000E+00  0.00000000000E+00  0.74505805969E-08  0.10566000000E+00  0.10566000000E+00 0.  1.
     999900   -1    0    0    0    0 -0.00000000000E+00 -0.00000000000E+00 -0.74505805969E-08  0.93827000000E+00  0.93827000000E+00 0.  1.
     999902    2    1    2    0    0 -0.18717600310E-02 -0.13046978907E-01  0.13778721625E-02  0.10306776162E+01  0.10305924136E+01 0.  0.
     999903    2    3    3    0    0  0.70559493894E-02 -0.14384831929E-01 -0.13235416861E+00  0.14052832954E+00  0.44428320276E-01 0.  0.
         14    1    1    2    0    0  0.18717600310E-02  0.13046978907E-01 -0.13778721625E-02  0.13252383782E-01  0.00000000000E+00 0.  1.
     999901    1    3    3    0    0 -0.89277094204E-02  0.13378530229E-02  0.13373204077E+00  0.89014928668E+00  0.88000000000E+00 0. -1.
        -11    1    4    4    0    0  0.67986339756E-02  0.27964887727E-02 -0.11772494004E+00  0.11795534919E+00  0.51100000000E-03 0.  1.
         11    1    4    4    0    0  0.25731541384E-03 -0.17181320702E-01 -0.14629228568E-01  0.22572980348E-01  0.51100000000E-03 0. -1.
</event>
<event>
 8    1  0.2928569E+004  0.1043930E+01  0.7957747E-01            NaN
         13   -1    0    0    0    0  0.00000000000E+00  0.00000000000E+00  0.74505805969E-08  0.10566000000E+00  0.10566000000E+00 0. -1.
     999900   -1    0    0    0    0 -0.00000000000E+00 -0.00000000000E+00 -0.74505805969E-08  0.93827000000E+00  0.93827000000E+00 0.  1.
     999902    2    1    2    0    0  0.14729539723E-02  0.10709846374E-01 -0.91706509683E-02  0.10297535674E+01  0.10296559806E+01 0.  0.
     999903    2    3    3    0    0  0.76493336880E-01 -0.64075236556E-01  0.84673136000E-01  0.13844692944E+00  0.45179041424E-01 0.  0.
         14    1    1    2    0    0 -0.14729539723E-02 -0.10709846374E-01  0.91706509683E-02  0.14176432624E-01  0.00000000000E+00 0. -1.
     999901    1    3    3    0    0 -0.75020382908E-01  0.74785082930E-01 -0.93843786968E-01  0.89130663794E+00  0.88000000000E+00 0.  1.
        -11    1    4    4    0    0  0.28798537036E-01 -0.27746997523E-02  0.38241394907E-01  0.47955396980E-01  0.51100000000E-03 0.  1.
         11    1    4    4    0    0  0.47694799844E-01 -0.61300536804E-01  0.46431741093E-01  0.90491532458E-01  0.51100000000E-03 0. -1.
</event>
<event>
 8    1  0.2928569E+004  0.1043930E+01  0.7957747E-01            NaN
         13   -1    0    0    0    0  0.00000000000E+00  0.00000000000E+00  0.74505805969E-08  0.10566000000E+00  0.10566000000E+00 0.  1.
     999900   -1    0    0    0    0 -0.00000000000E+00 -0.00000000000E+00 -0.74505805969E-08  0.93827000000E+00  0.93827000000E+00 0.  1.
     999902    2    1    2    0    0 -0.36888445157E-02  0.25520612970E-01 -0.38485762672E-02  0.10178585444E+01  0.10175245921E+01 0.  0.
     999903    2    3    3    0    0 -0.48699340341E-01 -0.10020457753E+00  0.36333607983E-01  0.12687741313E+00  0.48632949592E-01 0.  0.
         14    1    1    2    0    0  0.36888445157E-02 -0.25520612970E-01  0.38485762672E-02  0.26071455646E-01  0.00000000000E+00 0. -1.
     999901    1    3    3    0    0  0.45010495826E-01  0.12572519050E+00 -0.40182184250E-01  0.89098113122E+00  0.88000000000E+00 0.  1.
        -11    1    4    4    0    0 -0.38769830242E-01 -0.80053111930E-01  0.60318088081E-02  0.89152926510E-01  0.51100000000E-03 0.  1.
         11    1    4    4    0    0 -0.99295100996E-02 -0.20151465602E-01  0.30301799175E-01  0.37724486623E-01  0.51100000000E-03 0. -1.
</event>
<event>
 8    1  0.2928569E+004  0.1043930E+01  0.7957747E-01            NaN
         13   -1    0    0    0    0  0.00000000000E+00  0.00000000000E+00  0.74505805969E-08  0.10566000000E+00  0.10566000000E+00 0. -1.
     999900   -1    0    0    0    0 -0.00000000000E+00 -0.00000000000E+00 -0.74505805969E-08  0.93827000000E+00  0.93827000000E+00 0.  1.
     999902    2    1    2    0    0 -0.10145789936E-01 -0.90010544919E-02 -0.36509944729E-02  0.10298841538E+01  0.10297883687E+01 0.  0.
     999903    2    3    3    0    0  0.32878572408E-01  0.51731131130E-01 -0.11736973108E+00  0.13945086308E+00  0.43746759762E-01 0.  0.
         14    1    1    2    0    0  0.10145789936E-01  0.90010544919E-02  0.36509944729E-02  0.14045846220E-01  0.00000000000E+00 0. -1.
     999901    1    3    3    0    0 -0.43024362345E-01 -0.60732185622E-01  0.11371873661E+00  0.89043329070E+00  0.88000000000E+00 0. -1.
        -11    1    4    4    0    0  0.13082669329E-02  0.14954755384E-02 -0.48512874626E-01  0.48556236828E-01  0.51100000000E-03 0.  1.
         11    1    4    4    0    0  0.31570305475E-01  0.50235655591E-01 -0.68856856453E-01  0.90894626255E-01  0.51100000000E-03 0. -1.
</event>
<event>
 8    1  0.2928569E+004  0.1043930E+01  0.7957747E-01            NaN
         13   -1    0    0    0    0  0.00000000000E+00  0.00000000000E+00  0.74505805969E-08  0.10566000000E+00  0.10566000000E+00 0.  1.
     999900   -1    0    0    0    0 -0.00000000000E+00 -0.00000000000E+00 -0.74505805969E-08  0.93827000000E+00  0.93827000000E+00 0.  1.
     999902    2    1    2    0    0  0.66487777444E-03  0.19312060343E-02  0.13470928737E-01  0.10303051132E+01  0.10302150206E+01 0.  0.
     999903    2    3    3    0    0  0.12932070261E+00 -0.12894324480E-01  0.29748250270E-01  0.14067762441E+00  0.44890175841E-01 0.  0.
         14    1    1    2    0    0 -0.66487777444E-03 -0.19312060343E-02 -0.13470928737E-01  0.13624886797E-01  0.00000000000E+00 0. -1.
     999901    1    3    3    0    0 -0.12865582484E+00  0.14825530514E-01 -0.16277321533E-01  0.88962748879E+00  0.88000000000E+00 0.  1.
        -11    1    4    4    0    0  0.69928823400E-01 -0.13170821497E-01  0.38068361018E-01  0.80702987011E-01  0.51100000000E-03 0.  1.
         11    1    4    4    0    0  0.59391879214E-01  0.27649701709E-03 -0.83201107477E-02  0.59974637398E-01  0.51100000000E-03 0. -1.
</event>
<event>
 8    1  0.2928569E+004  0.1043930E+01  0.7957747E-01            NaN
         13   -1    0    0    0    0  0.00000000000E+00  0.00000000000E+00  0.74505805969E-08  0.10566000000E+00  0.10566000000E+00 0.  1.
     999900   -1    0    0    0    0 -0.00000000000E+00 -0.00000000000E+00 -0.74505805969E-08  0.93827000000E+00  0.93827000000E+00 0. -1.
     999902    2    1    2    0    0 -0.87442245758E-02  0.57300252748E-02 -0.95494421591E-02  0.10297706745E+01  0.10296733247E+01 0.  0.
     999903    2    3    3    0    0  0.10590233564E+00  0.74245245506E-01  0.24988882209E-01  0.13902319905E+00  0.44444847446E-01 0.  0.
         14    1    1    2    0    0  0.87442245758E-02 -0.57300252748E-02  0.95494421591E-02  0.14159325501E-01  0.00000000000E+00 0.  1.
     999901    1    3    3    0    0 -0.11464656022E+00 -0.68515220231E-01 -0.34538324368E-01  0.89074747545E+00  0.88000000000E+00 0.  1.
        -11    1    4    4    0    0  0.47924769659E-01  0.39488398380E-01 -0.10009131955E-01  0.62901200283E-01  0.51100000000E-03 0.  1.
         11    1    4    4    0    0  0.57977565984E-01  0.34756847125E-01  0.34998014164E-01  0.76121998765E-01  0.51100000000E-03 0. -1.
</event>
<event>
 8    1  0.2928569E+004  0.1043930E+01  0.7957747E-01            NaN
         13   -1    0    0    0    0  0.00000000000E+00  0.00000000000E+00  0.74505805969E-08  0.10566000000E+00  0.10566000000E+00 0.  1.
     999900   -1    0    0    0    0 -0.00000000000E+00 -0.00000000000E+00 -0.74505805969E-08  0.93827000000E+00  0.93827000000E+00 0.  1.
     999902    2    1    2    0    0 -0.76770725213E-02  0.68111375514E-03 -0.11704525556E-01  0.10299158187E+01  0.10298204680E+01 0.  0.
     999903    2    3    3    0    0 -0.28060120365E-01 -0.98964795663E-02  0.12773339937E+00  0.13864128805E+00  0.44947466840E-01 0.  0.
         14    1    1    2    0    0  0.76770725213E-02 -0.68111375514E-03  0.11704525556E-01  0.14014181279E-01  0.00000000000E+00 0.  1.
     999901    1    3    3    0    0  0.20383047844E-01  0.10577593321E-01 -0.13943792492E+00  0.89127453067E+00  0.88000000000E+00 0.  1.
        -11    1    4    4    0    0 -0.25245332878E-01 -0.26733442857E-01  0.84344223881E-01  0.92012026509E-01  0.51100000000E-03 0.  1.
         11    1    4    4    0    0 -0.28147874870E-02  0.16836963291E-01  0.43389175484E-01  0.46629261539E-01  0.51100000000E-03 0. -1.
</event>
<event>
 8    1  0.2928569E+004  0.1043930E+01  0.7957747E-01            NaN
         13   -1    0    0    0    0  0.00000000000E+00  0.00000000000E+00  0.74505805969E-08  0.10566000000E+00  0.10566000000E+00 0.  1.
     999900   -1    0    0    0    0 -0.00000000000E+00 -0.00000000000E+00 -0.74505805969E-08  0.93827000000E+00  0.93827000000E+00 0.  1.
     999902    2    1    2    0    0 -0.48513542119E-02 -0.92663876943E-02 -0.97014239554E-02  0.10296639843E+01  0.10295651515E+01 0.  0.
     999903    2    3    3    0    0 -0.27985880989E-01  0.91864273302E-01  0.88682630016E-01  0.13812484378E+00  0.44627450718E-01 0.  0.
         14    1    1    2    0    0  0.48513542119E-02  0.92663876943E-02  0.97014239554E-02  0.14266015749E-01  0.00000000000E+00 0.  1.
     999901    1    3    3    0    0  0.23134526777E-01 -0.10113066100E+00 -0.98384053972E-01  0.89153914047E+00  0.88000000000E+00 0. -1.
        -11    1    4    4    0    0 -0.20936162214E-01  0.23749294263E-01  0.87135555732E-02  0.32841118098E-01  0.51100000000E-03 0.  1.
         11    1    4    4    0    0 -0.70497187753E-02  0.68114979039E-01  0.79969074443E-01  0.10528372568E+00  0.51100000000E-03 0. -1.
</event>
<event>
 8    1  0.2928569E+004  0.1043930E+01  0.7957747E-01            NaN
         13   -1    0    0    0    0  0.00000000000E+00  0.00000000000E+00  0.74505805969E-08  0.10566000000E+00  0.10566000000E+00 0.  1.
     999900   -1    0    0    0    0 -0.00000000000E+00 -0.00000000000E+00 -0.74505805969E-08  0.93827000000E+00  0.93827000000E+00 0.  1.
     999902    2    1    2    0    0 -0.44178257063E-02 -0.13279366490E-01  0.14978007479E-03  0.10299342438E+01  0.10298391454E+01 0.  0.
     999903    2    3    3    0    0  0.28945827190E-01 -0.13571062145E-01 -0.12864499086E+00  0.13993350701E+00  0.44830994543E-01 0.  0.
         14    1    1    2    0    0  0.44178257063E-02  0.13279366490E-01 -0.14978007479E-03  0.13995756229E-01  0.00000000000E+00 0.  1.
     999901    1    3    3    0    0 -0.33363652897E-01  0.29169565523E-03  0.12879477093E+00  0.89000073676E+00  0.88000000000E+00 0. -1.
        -11    1    4    4    0    0  0.39747422086E-01 -0.17069756143E-01 -0.10844898692E+00  0.11675905970E+00  0.51100000000E-03 0.  1.
         11    1    4    4    0    0 -0.10801594896E-01  0.34986939981E-02 -0.20196003932E-01  0.23174447303E-01  0.51100000000E-03 0. -1.
</event>
<event>
 8    1  0.2928569E+004  0.1043930E+01  0.7957747E-01            NaN
         13   -1    0    0    0    0  0.00000000000E+00  0.00000000000E+00  0.74505805969E-08  0.10566000000E+00  0.10566000000E+00 0.  1.
     999900   -1    0    0    0    0 -0.00000000000E+00 -0.00000000000E+00 -0.74505805969E-08  0.93827000000E+00  0.93827000000E+00 0.  1.
     999902    2    1    2    0    0  0.10475818968E-01  0.43279328227E-02 -0.70030419507E-02  0.10306064726E+01  0.10305203467E+01 0.  0.
     999903    2    3    3    0    0 -0.12343541568E+00 -0.45459792892E-01 -0.88471665429E-02  0.13908281213E+00  0.44304194603E-01 0.  0.
         14    1    1    2    0    0 -0.10475818968E-01 -0.43279328227E-02  0.70030419507E-02  0.13323527391E-01  0.00000000000E+00 0. -1.
     999901    1    3    3    0    0  0.13391123465E+00  0.49787725714E-01  0.18441245922E-02  0.89152366048E+00  0.88000000000E+00 0.  1.
        -11    1    4    4    0    0 -0.77872025278E-01 -0.23110835629E-01 -0.26349932718E-01  0.85397559213E-01  0.51100000000E-03 0.  1.
         11    1    4    4    0    0 -0.45563390406E-01 -0.22348957263E-01  0.17502766175E-01  0.53685252917E-01  0.51100000000E-03 0. -1.
</event>
<event>
 8    1  0.2928569E+004  0.1043930E+01  0.7957747E-01            NaN
         13   -1    0    0    0    0  0.00000000000E+00  0.00000000000E+00  0.74505805969E-08  0.10566000000E+00  0.10566000000E+00 0. -1.
     999900   -1    0    0    0    0 -0.00000000000E+00 -0.00000000000E+00 -0.74505805969E-08  0.93827000000E+00  0.93827000000E+00 0.  1.
     999902    2    1    2    0    0  0.27089762812E-02  0.13452598413E-01  0.43358223363E-03  0.10302005080E+01  0.10301090174E+01 0.  0.
     999903    2    3    3    0    0 -0.11975463648E+00  0.43275882381E-01  0.40088976801E-01  0.14033573456E+00  0.43278370813E-01 0.  0.
         14    1    1    2    0    0 -0.27089762812E-02 -0.13452598413E-01 -0.43358223363E-03  0.13729491983E-01  0.00000000000E+00 0. -1.
     999901    1    3    3    0    0  0.12246361276E+00 -0.29823283968E-01 -0.39655394567E-01  0.88986477345E+00  0.88000000000E+00 0.  1.
        -11    1    4    4    0    0 -0.45450255518E-01  0.35504198259E-01  0.52922304950E-02  0.57918413698E-01  0.51100000000E-03 0.  1.
         11    1    4    4    0    0 -0.74304380961E-01  0.77716841221E-02  0.34796746306E-01  0.82417320865E-01  0.51100000000E-03 0. -1.
</event>
<event>
 8    1  0.2928569E+004  0.1043930E+01  0.7957747E-01            NaN
         13   -1    0    0    0    0  0.00000000000E+00  0.00000000000E+00  0.74505805969E-08  0.10566000000E+00  0.10566000000E+00 0. -1.
     999900   -1    0    0    0    0 -0.00000000000E+00 -0.00000000000E+00 -0.74505805969E-08  0.93827000000E+00  0.93827000000E+00 0.  1.
     999902    2    1    2    0    0  0.99938208110E-02 -0.24877198913E-02  0.61480745388E-02  0.10319356670E+01  0.10318659587E+01 0.  0.
     999903    2    3    3    0    0  0.92043656512E-01 -0.62069608202E-01 -0.77183849772E-01  0.14220178170E+00  0.44037814296E-01 0.  0.
         14    1    1    2    0    0 -0.99938208110E-02  0.24877198913E-02 -0.61480745388E-02  0.11994333045E-01  0.00000000000E+00 0.  1.
     999901    1    3    3    0    0 -0.82049835701E-01  0.59581888310E-01  0.83331924311E-01  0.88973388525E+00  0.88000000000E+00 0. -1.
        -11    1    4    4    0    0  0.31320022057E-01 -0.45065998256E-01 -0.24821689110E-01  0.60235084060E-01  0.51100000000E-03 0.  1.
         11    1    4    4    0    0  0.60723634455E-01 -0.17003609946E-01 -0.52362160662E-01  0.81966697645E-01  0.51100000000E-03 0. -1.
</event>
<event>
 8    1  0.2928569E+004  0.1043930E+01  0.7957747E-01            NaN
         13   -1    0    0    0    0  0.00000000000E+00  0.00000000000E+00  0.74505805969E-08  0.10566000000E+00  0.10566000000E+00 0.  1.
     999900   -1    0    0    0    0 -0.00000000000E+00 -0.00000000000E+00 -0.74505805969E-08  0.93827000000E+00  0.93827000000E+00 0. -1.
     999902    2    1    2    0    0 -0.11016898356E-01  0.22632752845E-02 -0.71184175722E-02  0.10306196156E+01  0.10305336606E+01 0.  0.
     999903    2    3    3    0    0 -0.22940176029E-01 -0.78728613849E-01 -0.10619894616E+00  0.14128345766E+00  0.44253281555E-01 0.  0.
         14    1    1    2    0    0  0.11016898356E-01 -0.22632752845E-02  0.71184175722E-02  0.13310384409E-01  0.00000000000E+00 0.  1.
     999901    1    3    3    0    0  0.11923277673E-01  0.80991889133E-01  0.99080528588E-01  0.88933615793E+00  0.88000000000E+00 0.  1.
        -11    1    4    4    0    0 -0.42002291553E-02 -0.39519820050E-01 -0.82985037573E-01  0.92012149653E-01  0.51100000000E-03 0. -1.
         11    1    4    4    0    0 -0.18739946873E-01 -0.39208793799E-01 -0.23213908587E-01  0.49271308008E-01  0.51100000000E-03 0.  1.
</event>
<event>
 8    1  0.2928569E+004  0.1043930E+01  0.7957747E-01            NaN
         13   -1    0    0    0    0  0.00000000000E+00  0.00000000000E+00  0.74505805969E-08  0.10566000000E+00  0.10566000000E+00 0. -1.
     999900   -1    0    0    0    0 -0.00000000000E+00 -0.00000000000E+00 -0.74505805969E-08  0.93827000000E+00  0.93827000000E+00 0. -1.
     999902    2    1    2    0    0 -0.66582051670E-02 -0.13043705874E-02 -0.90541589045E-02  0.10326158110E+01  0.10325538254E+01 0.  0.
     999903    2    3    3    0    0 -0.10021524189E+00 -0.42832449236E-02  0.90103650419E-01  0.14211366956E+00  0.44901963884E-01 0.  0.
         14    1    1    2    0    0  0.66582051670E-02  0.13043705874E-02  0.90541589045E-02  0.11314188974E-01  0.00000000000E+00 0. -1.
     999901    1    3    3    0    0  0.93557036727E-01  0.29788743362E-02 -0.99157809324E-01  0.89050214147E+00  0.88000000000E+00 0. -1.
        -11    1    4    4    0    0 -0.35654814026E-01  0.49497089471E-03  0.62959990355E-02  0.36213415805E-01  0.51100000000E-03 0. -1.
         11    1    4    4    0    0 -0.64560427869E-01 -0.47782158183E-02  0.83807651384E-01  0.10590025375E+00  0.51100000000E-03 0.  1.
</event>
<event>
 8    1  0.2928569E+004  0.1043930E+01  0.7957747E-01            NaN
         13   -1    0    0    0    0  0.00000000000E+00  0.00000000000E+00  0.74505805969E-08  0.10566000000E+00  0.10566000000E+00 0. -1.
     999900   -1    0    0    0    0 -0.00000000000E+00 -0.00000000000E+00 -0.74505805969E-08  0.93827000000E+00  0.93827000000E+00 0.  1.
     999902    2    1    2    0    0 -0.11446559092E-01 -0.36621895721E-02 -0.70435173029E-02  0.10299999432E+01  0.10299057415E+01 0.  0.
     999903    2    3    3    0    0  0.93079614599E-01 -0.29186129322E-01 -0.89106615496E-01  0.13965644508E+00  0.45258026131E-01 0.  0.
         14    1    1    2    0    0  0.11446559092E-01  0.36621895721E-02  0.70435173029E-02  0.13930056838E-01  0.00000000000E+00 0. -1.
     999901    1    3    3    0    0 -0.10452617369E+00  0.25523939750E-01  0.82063098193E-01  0.89034349808E+00  0.88000000000E+00 0. -1.
        -11    1    4    4    0    0  0.92241739754E-01 -0.20311003281E-01 -0.66966761899E-01  0.11578378007E+00  0.51100000000E-03 0. -1.
         11    1    4    4    0    0  0.83787484523E-03 -0.88751260411E-02 -0.22139853598E-01  0.23872665013E-01  0.51100000000E-03 0.  1.
</event>
<event>
 7    1  0.2928569E+004  0.1043930E+01  0.7957747E-01            NaN
         13   -1    0    0    0    0  0.00000000000E+00  0.00000000000E+00  0.74505805969E-08  0.10566000000E+00  0.10566000000E+00 0. -1.
     999900   -1    0    0    0    0 -0.00000000000E+00 -0.00000000000E+00 -0.74505805969E-08  0.93827000000E+00  0.93827000000E+00 0.  1.
     999903    2    1    2    0    0 -0.65862742597E-01 -0.23385747181E-01  0.89174165202E-01  0.12214404088E+00  0.45632674147E-01 0.  0.
         14    1    1    2    0    0 -0.23836836597E-01 -0.36867084622E-03  0.18777511823E-01  0.30346756786E-01  0.00000000000E+00 0. -1.
     999901    1    1    2    0    0  0.89699579194E-01  0.23754418027E-01 -0.10795167702E+00  0.89143920233E+00  0.88000000000E+00 0.  1.
        -11    1    3    3    0    0 -0.41308396363E-01 -0.10818114595E-01  0.83776026998E-01  0.94032436074E-01  0.51100000000E-03 0.  1.
         11    1    3    3    0    0 -0.24554346234E-01 -0.12567632586E-01  0.53981382040E-02  0.28111604807E-01  0.51100000000E-03 0. -1.
</event>
<event>
 8    1  0.2928569E+004  0.1043930E+01  0.7957747E-01            NaN
         13   -1    0    0    0    0  0.00000000000E+00  0.00000000000E+00  0.74505805969E-08  0.10566000000E+00  0.10566000000E+00 0.  1.
     999900   -1    0    0    0    0 -0.00000000000E+00 -0.00000000000E+00 -0.74505805969E-08  0.93827000000E+00  0.93827000000E+00 0.  1.
     999902    2    1    2    0    0  0.27262922039E-02 -0.10941373285E-01 -0.11211439680E-01  0.10280289718E+01  0.10279059899E+01 0.  0.
     999903    2    3    3    0    0  0.11180740352E+00  0.66348735415E-01  0.68492821812E-02  0.13774888135E+00  0.44997682991E-01 0.  0.
         14    1    1    2    0    0 -0.27262922039E-02  0.10941373285E-01  0.11211439680E-01  0.15901028213E-01  0.00000000000E+00 0. -1.
     999901    1    3    3    0    0 -0.10908111132E+00 -0.77290108700E-01 -0.18060721861E-01  0.89028009043E+00  0.88000000000E+00 0. -1.
        -11    1    4    4    0    0  0.10961985484E+00  0.66167176507E-01  0.15345585907E-01  0.12895873739E+00  0.51100000000E-03 0. -1.
         11    1    4    4    0    0  0.21875486821E-02  0.18155890815E-03 -0.84963037260E-02  0.87901439623E-02  0.51100000000E-03 0.  1.
</event>
<event>
 8    1  0.2928569E+004  0.1043930E+01  0.7957747E-01            NaN
         13   -1    0    0    0    0  0.00000000000E+00  0.00000000000E+00  0.74505805969E-08  0.10566000000E+00  0.10566000000E+00 0. -1.
     999900   -1    0    0    0    0 -0.00000000000E+00 -0.00000000000E+00 -0.74505805969E-08  0.93827000000E+00  0.93827000000E+00 0. -1.
     999902    2    1    2    0    0  0.10629333635E-01  0.79198925410E-02 -0.27203578598E-02  0.10303982677E+01  0.10303094110E+01 0.  0.
     999903    2    3    3    0    0  0.45098102681E-01 -0.96488766628E-01  0.78974398020E-01  0.13980111004E+00  0.44311103284E-01 0.  0.
         14    1    1    2    0    0 -0.10629333635E-01 -0.79198925410E-02  0.27203578598E-02  0.13531732272E-01  0.00000000000E+00 0.  1.
     999901    1    3    3    0    0 -0.34468769046E-01  0.10440865917E+00 -0.81694755880E-01  0.89059715769E+00  0.88000000000E+00 0.  1.
        -11    1    4    4    0    0  0.46575763812E-01 -0.51048497106E-01  0.39553124122E-01  0.79623875693E-01  0.51100000000E-03 0.  1.
         11    1    4    4    0    0 -0.14776611314E-02 -0.45440269522E-01  0.39421273898E-01  0.60177234345E-01  0.51100000000E-03 0. -1.
</event>
<event>
 8    1  0.2928569E+004  0.1043930E+01  0.7957747E-01            NaN
         13   -1    0    0    0    0  0.00000000000E+00  0.00000000000E+00  0.74505805969E-08  0.10566000000E+00  0.10566000000E+00 0. -1.
     999900   -1    0    0    0    0 -0.00000000000E+00 -0.00000000000E+00 -0.74505805969E-08  0.93827000000E+00  0.93827000000E+00 0. -1.
     999902    2    1    2    0    0 -0.13219879221E-01 -0.72064700287E-02 -0.58511247872E-03  0.10288621278E+01  0.10287517860E+01 0.  0.
     999903    2    3    3    0    0  0.84233474602E-01 -0.99867709496E-01  0.51930267276E-02  0.13862808643E+00  0.46064532743E-01 0.  0.
         14    1    1    2    0    0  0.13219879221E-01  0.72064700287E-02  0.58511247872E-03  0.15067872229E-01  0.00000000000E+00 0. -1.
     999901    1    3    3    0    0 -0.97453353823E-01  0.92661239468E-01 -0.57781392063E-02  0.89023404134E+00  0.88000000000E+00 0.  1.
        -11    1    4    4    0    0  0.54365086119E-01 -0.35630167625E-01  0.16056302326E-01  0.66956234954E-01  0.51100000000E-03 0. -1.
         11    1    4    4    0    0  0.29868388483E-01 -0.64237541871E-01 -0.10863275599E-01  0.71671851476E-01  0.51100000000E-03 0.  1.
</event>
<event>
 8    1  0.2928569E+004  0.1043930E+01  0.7957747E-01            NaN
         13   -1    0    0    0    0  0.00000000000E+00  0.00000000000E+00  0.74505805969E-08  0.10566000000E+00  0.10566000000E+00 0.  1.
     999900   -1    0    0    0    0 -0.00000000000E+00 -0.00000000000E+00 -0.74505805969E-08  0.93827000000E+00  0.93827000000E+00 0.  1.
     999902    2    1    2    0    0 -0.12789238686E-01 -0.47414887900E-02  0.31793557602E-02  0.10299244780E+01  0.10298292460E+01 0.  0.
     999903    2    3    3    0    0  0.33206510983E-01  0.11797199782E+00 -0.46781180958E-01  0.13881827562E+00  0.45408921059E-01 0.  0.
         14    1    1    2    0    0  0.12789238686E-01  0.47414887900E-02 -0.31793557602E-02  0.14005521952E-01  0.00000000000E+00 0. -1.
     999901    1    3    3    0    0 -0.45995749668E-01 -0.12271348661E+00  0.49960536719E-01  0.89110620243E+00  0.88000000000E+00 0.  1.
        -11    1    4    4    0    0  0.20926887504E-01  0.28653270480E-01 -0.31343660273E-01  0.47345862439E-01  0.51100000000E-03 0. -1.
         11    1    4    4    0    0  0.12279623479E-01  0.89318727340E-01 -0.15437520686E-01  0.91472413176E-01  0.51100000000E-03 0.  1.
</event>
<event>
 8    1  0.2928569E+004  0.1043930E+01  0.7957747E-01            NaN
         13   -1    0    0    0    0  0.00000000000E+00  0.00000000000E+00  0.74505805969E-08  0.10566000000E+00  0.10566000000E+00 0. -1.
     999900   -1    0    0    0    0 -0.00000000000E+00 -0.00000000000E+00 -0.74505805969E-08  0.93827000000E+00  0.93827000000E+00 0. -1.
     999902    2    1    2    0    0 -0.60777781113E-02 -0.55940597996E-03  0.11697699203E-01  0.10307357403E+01  0.10306512882E+01 0.  0.
     999903    2    3    3    0    0 -0.10420159171E+00  0.67385925293E-02  0.85454355891E-01  0.14218546713E+00  0.44842834199E-01 0.  0.
         14    1    1    2    0    0  0.60777781113E-02  0.55940597996E-03 -0.11697699203E-01  0.13194259678E-01  0.00000000000E+00 0.  1.
     999901    1    3    3    0    0  0.98123813598E-01 -0.72979985092E-02 -0.73756656688E-01  0.88855027319E+00  0.88000000000E+00 0. -1.
        -11    1    4    4    0    0 -0.73345126116E-01  0.24850763707E-01  0.63983167250E-01  0.10045483958E+00  0.51100000000E-03 0.  1.
         11    1    4    4    0    0 -0.30856465593E-01 -0.18112171178E-01  0.21471188641E-01  0.41730627558E-01  0.51100000000E-03 0. -1.
</event>
<event>
 8    1  0.2928569E+004  0.1043930E+01  0.7957747E-01            NaN
         13   -1    0    0    0    0  0.00000000000E+00  0.00000000000E+00  0.74505805969E-08  0.10566000000E+00  0.10566000000E+00 0.  1.
     999900   -1    0    0    0    0 -0.00000000000E+00 -0.00000000000E+00 -0.74505805969E-08  0.93827000000E+00  0.93827000000E+00 0.  1.
     999902    2    1    2    0    0 -0.41999340254E-02  0.10369488677E-01 -0.76817765427E-02  0.10303588751E+01  0.10302694968E+01 0.  0.
     999903    2    3    3    0    0 -0.12968899736E-01  0.30929178424E-01  0.12816303757E+00  0.13965499098E+00  0.44192147136E-01 0.  0.
         14    1    1    2    0    0  0.41999340254E-02 -0.10369488677E-01  0.76817765427E-02  0.13571124938E-01  0.00000000000E+00 0.  1.
     999901    1    3    3    0    0  0.87689657102E-02 -0.20559689747E-01 -0.13584481411E+00  0.89070388408E+00  0.88000000000E+00 0.  1.
        -11    1    4    4    0    0 -0.27075655410E-01  0.78621057644E-02  0.58986980529E-01  0.65380645575E-01  0.51100000000E-03 0.  1.
         11    1    4    4    0    0  0.14106755674E-01  0.23067072659E-01  0.69176057037E-01  0.74274345403E-01  0.51100000000E-03 0. -1.
</event>
<event>
 8    1  0.2928569E+004  0.1043930E+01  0.7957747E-01            NaN
         13   -1    0    0    0    0  0.00000000000E+00  0.00000000000E+00  0.74505805969E-08  0.10566000000E+00  0.10566000000E+00 0. -1.
     999900   -1    0    0    0    0 -0.00000000000E+00 -0.00000000000E+00 -0.74505805969E-08  0.93827000000E+00  0.93827000000E+00 0. -1.
     999902    2    1    2    0    0 -0.13137269405E-01 -0.18121360627E-02 -0.56534954143E-02  0.10295135616E+01  0.10294126189E+01 0.  0.
     999903    2    3    3    0    0  0.61193981861E-01 -0.10589743282E+00 -0.54293182568E-01  0.13893807181E+00  0.37377378616E-01 0.  0.
         14    1    1    2    0    0  0.13137269405E-01  0.18121360627E-02  0.56534954143E-02  0.14416438358E-01  0.00000000000E+00 0.  1.
     999901    1    3    3    0    0 -0.74331251266E-01  0.10408529676E+00  0.48639687154E-01  0.89057548983E+00  0.88000000000E+00 0. -1.
        -11    1    4    4    0    0  0.26036447651E-01 -0.48256256392E-01 -0.44690899619E-01  0.70739667210E-01  0.51100000000E-03 0. -1.
         11    1    4    4    0    0  0.35157534210E-01 -0.57641176428E-01 -0.96022829494E-02  0.68198404604E-01  0.51100000000E-03 0.  1.
</event>
<event>
 8    1  0.2928569E+004  0.1043930E+01  0.7957747E-01            NaN
         13   -1    0    0    0    0  0.00000000000E+00  0.00000000000E+00  0.74505805969E-08  0.10566000000E+00  0.10566000000E+00 0. -1.
     999900   -1    0    0    0    0 -0.00000000000E+00 -0.00000000000E+00 -0.74505805969E-08  0.93827000000E+00  0.93827000000E+00 0.  1.
     999902    2    1    2    0    0  0.66715213964E-02  0.97517566677E-02  0.74438238733E-02  0.10299651703E+01  0.10298704945E+01 0.  0.
     999903    2    3    3    0    0 -0.10211569191E+00 -0.62606749606E-01  0.54882140428E-01  0.13905507093E+00  0.44463960486E-01 0.  0.
         14    1    1    2    0    0 -0.66715213964E-02 -0.97517566677E-02 -0.74438238733E-02  0.13964829741E-01  0.00000000000E+00 0.  1.
     999901    1    3    3    0    0  0.10878721331E+00  0.72358506273E-01 -0.47438316555E-01  0.89091009933E+00  0.88000000000E+00 0.  1.
        -11    1    4    4    0    0 -0.29638056815E-01 -0.28678212972E-01  0.40386848896E-01  0.57725323695E-01  0.51100000000E-03 0. -1.
         11    1    4    4    0    0 -0.72477635098E-01 -0.33928536634E-01  0.14495291533E-01  0.81329747234E-01  0.51100000000E-03 0.  1.
</event>
<event>
 8    1  0.2928569E+004  0.1043930E+01  0.7957747E-01            NaN
         13   -1    0    0    0    0  0.00000000000E+00  0.00000000000E+00  0.74505805969E-08  0.10566000000E+00  0.10566000000E+00 0. -1.
     999900   -1    0    0    0    0 -0.00000000000E+00 -0.00000000000E+00 -0.74505805969E-08  0.93827000000E+00  0.93827000000E+00 0. -1.
     999902    2    1    2    0    0 -0.39191427446E-02 -0.56210015993E-02 -0.14185636333E-01  0.10281760285E+01  0.10280553283E+01 0.  0.
     999903    2    3    3    0    0  0.25467806166E-01  0.12676757824E+00 -0.18020136262E-01  0.13778003111E+00  0.44045245118E-01 0.  0.
         14    1    1    2    0    0  0.39191427446E-02  0.56210015993E-02  0.14185636333E-01  0.15753971467E-01  0.00000000000E+00 0. -1.
     999901    1    3    3    0    0 -0.29386948910E-01 -0.13238857984E+00  0.38344999297E-02  0.89039599742E+00  0.88000000000E+00 0.  1.
        -11    1    4    4    0    0 -0.11925025819E-01  0.46859875021E-01 -0.73560677078E-02  0.48912441984E-01  0.51100000000E-03 0. -1.
         11    1    4    4    0    0  0.37392831984E-01  0.79907703220E-01 -0.10664068554E-01  0.88867589125E-01  0.51100000000E-03 0.  1.
</event>
<event>
 8    1  0.2928569E+004  0.1043930E+01  0.7957747E-01            NaN
         13   -1    0    0    0    0  0.00000000000E+00  0.00000000000E+00  0.74505805969E-08  0.10566000000E+00  0.10566000000E+00 0.  1.
     999900   -1    0    0    0    0 -0.00000000000E+00 -0.00000000000E+00 -0.74505805969E-08  0.93827000000E+00  0.93827000000E+00 0.  1.
     999902    2    1    2    0    0  0.13423143948E-01 -0.45311904899E-03 -0.37103003237E-02  0.10299961406E+01  0.10299018871E+01 0.  0.
     999903    2    3    3    0    0 -0.34035220553E-01  0.10208064862E+00 -0.77001950715E-01  0.13975059248E+00  0.44967461823E-01 0.  0.
         14    1    1    2    0    0 -0.13423143948E-01  0.45311904899E-03  0.37103003237E-02  0.13933859437E-01  0.00000000000E+00 0.  1.
     999901    1    3    3    0    0  0.47458364500E-01 -0.10253376767E+00  0.73291650391E-01  0.89024554809E+00  0.88000000000E+00 0. -1.
        -11    1    4    4    0    0 -0.31882774248E-01  0.81120811104E-01 -0.37315006004E-01  0.94814387526E-01  0.51100000000E-03 0. -1.
         11    1    4    4    0    0 -0.21524463046E-02  0.20959837515E-01 -0.39686944711E-01  0.44936204949E-01  0.51100000000E-03 0.  1.
</event>
<event>
 8    1  0.2928569E+004  0.1043930E+01  0.7957747E-01            NaN
         13   -1    0    0    0    0  0.00000000000E+00  0.00000000000E+00  0.74505805969E-08  0.10566000000E+00  0.10566000000E+00 0. -1.
     999900   -1    0    0    0    0 -0.00000000000E+00 -0.00000000000E+00 -0.74505805969E-08  0.93827000000E+00  0.93827000000E+00 0.  1.
     999902    2    1    2    0    0 -0.11352338447E-01 -0.68956031229E-02  0.60561735868E-02  0.10293319806E+01  0.10292284606E+01 0.  0.
     999903    2    3    3    0    0 -0.11682646136E+00  0.58675098799E-02 -0.62833379583E-01  0.14026873306E+00  0.45215419267E-01 0.  0.
         14    1    1    2    0    0  0.11352338447E-01  0.68956031229E-02 -0.60561735868E-02  0.14598019357E-01  0.00000000000E+00 0. -1.
     999901    1    3    3    0    0  0.10547412291E+00 -0.12763113003E-01  0.68889553170E-01  0.88906324758E+00  0.88000000000E+00 0. -1.
        -11    1    4    4    0    0 -0.10380228306E+00  0.15147780125E-01 -0.39748647665E-01  0.11218103816E+00  0.51100000000E-03 0. -1.
         11    1    4    4    0    0 -0.13024178303E-01 -0.92802702447E-02 -0.23084731918E-01  0.28087694904E-01  0.51100000000E-03 0.  1.
</event>
<event>
 8    1  0.2928569E+004  0.1043930E+01  0.7957747E-01            NaN
         13   -1    0    0    0    0  0.00000000000E+00  0.00000000000E+00  0.74505805969E-08  0.10566000000E+00  0.10566000000E+00 0. -1.
     999900   -1    0    0    0    0 -0.00000000000E+00 -0.00000000000E+00 -0.74505805969E-08  0.93827000000E+00  0.93827000000E+00 0.  1.
     999902    2    1    2    0    0  0.13589290970E-01  0.77225277278E-03 -0.38229293243E-02  0.10297921079E+01  0.10296950547E+01 0.  0.
     999903    2    3    3    0    0 -0.41137336880E-01 -0.94721194457E-01  0.81616632641E-01  0.13882975126E+00  0.44136605520E-01 0.  0.
         14    1    1    2    0    0 -0.13589290970E-01 -0.77225277278E-03  0.38229293243E-02  0.14137892065E-01  0.00000000000E+00 0.  1.
     999901    1    3    3    0    0  0.54726627850E-01  0.95493447230E-01 -0.85439561965E-01  0.89096235667E+00  0.88000000000E+00 0.  1.
        -11    1    4    4    0    0 -0.26601097951E-01 -0.33942386527E-01  0.57423756119E-01  0.71815408535E-01  0.51100000000E-03 0. -1.
         11    1    4    4    0    0 -0.14536238928E-01 -0.60778807931E-01  0.24192876522E-01  0.67014342727E-01  0.51100000000E-03 0.  1.
</event>
<event>
 8    1  0.2928569E+004  0.1043930E+01  0.7957747E-01            NaN
         13   -1    0    0    0    0  0.00000000000E+00  0.00000000000E+00  0.74505805969E-08  0.10566000000E+00  0.10566000000E+00 0. -1.
     999900   -1    0    0    0    0 -0.00000000000E+00 -0.00000000000E+00 -0.74505805969E-08  0.93827000000E+00  0.93827000000E+00 0. -1.
     999902    2    1    2    0    0  0.36506282837E-02  0.12644089984E-01 -0.34789713544E-02  0.10303173831E+01  0.10302274538E+01 0.  0.
     999903    2    3    3    0    0  0.11683029328E-01 -0.15006939219E-01  0.13095772259E+00  0.13964217651E+00  0.44590480541E-01 0.  0.
         14    1    1    2    0    0 -0.36506282837E-02 -0.12644089984E-01  0.34789713544E-02  0.13612616945E-01  0.00000000000E+00 0. -1.
     999901    1    3    3    0    0 -0.80324010441E-02  0.27651029203E-01 -0.13443669394E+00  0.89067520655E+00  0.88000000000E+00 0. -1.
        -11    1    4    4    0    0  0.24075546199E-01  0.39834180202E-02  0.51173333958E-01  0.56696302995E-01  0.51100000000E-03 0. -1.
         11    1    4    4    0    0 -0.12392516871E-01 -0.18990357239E-01  0.79784388631E-01  0.82945873512E-01  0.51100000000E-03 0.  1.
</event>
<event>
 8    1  0.2928569E+004  0.1043930E+01  0.7957747E-01            NaN
         13   -1    0    0    0    0  0.00000000000E+00  0.00000000000E+00  0.74505805969E-08  0.10566000000E+00  0.10566000000E+00 0. -1.
     999900   -1    0    0    0    0 -0.00000000000E+00 -0.00000000000E+00 -0.74505805969E-08  0.93827000000E+00  0.93827000000E+00 0. -1.
     999902    2    1    2    0    0  0.28241585484E-02  0.96632012674E-03  0.17543842159E-01  0.10261340442E+01  0.10259797174E+01 0.  0.
     999903    2    3    3    0    0 -0.44144560392E-02 -0.12840886346E+00 -0.72274183512E-02  0.13630037937E+00  0.44913630482E-01 0.  0.
         14    1    1    2    0    0 -0.28241585484E-02 -0.96632012674E-03 -0.17543842159E-01  0.17795955827E-01  0.00000000000E+00 0.  1.
     999901    1    3    3    0    0  0.72386145876E-02  0.12937518359E+00  0.24771260510E-01  0.88983366480E+00  0.88000000000E+00 0. -1.
        -11    1    4    4    0    0  0.76072292979E-02 -0.69673484722E-01  0.16188709120E-01  0.71934691456E-01  0.51100000000E-03 0.  1.
         11    1    4    4    0    0 -0.12021685337E-01 -0.58735378739E-01 -0.23416127471E-01  0.64365687915E-01  0.51100000000E-03 0. -1.
</event>
<event>
 8    1  0.2928569E+004  0.1043930E+01  0.7957747E-01            NaN
         13   -1    0    0    0    0  0.00000000000E+00  0.00000000000E+00  0.74505805969E-08  0.10566000000E+00  0.10566000000E+00 0. -1.
     999900   -1    0    0    0    0 -0.00000000000E+00 -0.00000000000E+00 -0.74505805969E-08  0.93827000000E+00  0.93827000000E+00 0.  1.
     999902    2    1    2    0    0 -0.13683395105E-01  0.67023201025E-02  0.19357012213E-03  0.10286920912E+01  0.10285792262E+01 0.  0.
     999903    2    3    3    0    0 -0.63764787214E-01  0.11651182724E+00  0.10468308005E-01  0.14039493146E+00  0.44274115821E-01 0.  0.
         14    1    1    2    0    0  0.13683395105E-01 -0.67023201025E-02 -0.19357012213E-03  0.15237908838E-01  0.00000000000E+00 0. -1.
     999901    1    3    3    0    0  0.50081392109E-01 -0.10980950714E+00 -0.10274737883E-01  0.88829715970E+00  0.88000000000E+00 0. -1.
        -11    1    4    4    0    0 -0.42622701063E-01  0.88160194716E-01  0.26668886436E-01  0.10149091192E+00  0.51100000000E-03 0.  1.
         11    1    4    4    0    0 -0.21142086151E-01  0.28351632526E-01 -0.16200578431E-01  0.38904019538E-01  0.51100000000E-03 0. -1.
</event>
<event>
 8    1  0.2928569E+004  0.1043930E+01  0.7957747E-01            NaN
         13   -1    0    0    0    0  0.00000000000E+00  0.00000000000E+00  0.74505805969E-08  0.10566000000E+00  0.10566000000E+00 0.  1.
     999900   -1    0    0    0    0 -0.00000000000E+00 -0.00000000000E+00 -0.74505805969E-08  0.93827000000E+00  0.93827000000E+00 0.  1.
     999902    2    1    2    0    0 -0.97774503140E-02  0.16328793452E-02 -0.26404389685E-02  0.10336715036E+01  0.10336205980E+01 0.  0.
     999903    2    3    3    0    0 -0.57421789434E-01 -0.21537503526E-01  0.12088342058E+00  0.14346647469E+00  0.46996829995E-01 0.  0.
         14    1    1    2    0    0  0.97774503140E-02 -0.16328793452E-02  0.26404389685E-02  0.10258496359E-01  0.00000000000E+00 0.  1.
     999901    1    3    3    0    0  0.47644339120E-01  0.23170382871E-01 -0.12352385955E+00  0.89020502895E+00  0.88000000000E+00 0.  1.
        -11    1    4    4    0    0 -0.34184288983E-01 -0.15420972831E-01  0.11154525403E+00  0.11768167587E+00  0.51100000000E-03 0. -1.
         11    1    4    4    0    0 -0.23237500451E-01 -0.61165306946E-02  0.93381665434E-02  0.25784798823E-01  0.51100000000E-03 0.  1.
</event>
<event>
 8    1  0.2928569E+004  0.1043930E+01  0.7957747E-01            NaN
         13   -1    0    0    0    0  0.00000000000E+00  0.00000000000E+00  0.74505805969E-08  0.10566000000E+00  0.10566000000E+00 0.  1.
     999900   -1    0    0    0    0 -0.00000000000E+00 -0.00000000000E+00 -0.74505805969E-08  0.93827000000E+00  0.93827000000E+00 0.  1.
     999902    2    1    2    0    0 -0.94141970770E-02  0.70819007469E-02 -0.68502458259E-02  0.10303025904E+01  0.10302124642E+01 0.  0.
     999903    2    3    3    0    0 -0.59745722198E-01 -0.11268587344E+00 -0.37022518223E-01  0.14025318267E+00  0.45084709154E-01 0.  0.
         14    1    1    2    0    0  0.94141970770E-02 -0.70819007469E-02  0.68502458259E-02  0.13627409610E-01  0.00000000000E+00 0. -1.
     999901    1    3    3    0    0  0.50331525121E-01  0.11976777419E+00  0.30172272397E-01  0.89004940772E+00  0.88000000000E+00 0.  1.
        -11    1    4    4    0    0 -0.12230047129E-01 -0.71049135605E-01 -0.20229618450E-01  0.74880253116E-01  0.51100000000E-03 0.  1.
         11    1    4    4    0    0 -0.47515675069E-01 -0.41636737839E-01 -0.16792899773E-01  0.65372929558E-01  0.51100000000E-03 0. -1.
</event>
<event>
 8    1  0.2928569E+004  0.1043930E+01  0.7957747E-01            NaN
         13   -1    0    0    0    0  0.00000000000E+00  0.00000000000E+00  0.74505805969E-08  0.10566000000E+00  0.10566000000E+00 0. -1.
     999900   -1    0    0    0    0 -0.00000000000E+00 -0.00000000000E+00 -0.74505805969E-08  0.93827000000E+00  0.93827000000E+00 0. -1.
     999902    2    1    2    0    0  0.33869059331E-02  0.12524306786E-01 -0.50803925085E-02  0.10299965948E+01  0.10299023476E+01 0.  0.
     999903    2    3    3    0    0 -0.10072659249E+00  0.87098295859E-01 -0.71402698940E-02  0.14072433982E+00  0.44948824078E-01 0.  0.
         14    1    1    2    0    0 -0.33869059331E-02 -0.12524306786E-01  0.50803925085E-02  0.13933405195E-01  0.00000000000E+00 0. -1.
     999901    1    3    3    0    0  0.10411349842E+00 -0.74573989072E-01  0.20598773855E-02  0.88927225499E+00  0.88000000000E+00 0. -1.
        -11    1    4    4    0    0 -0.58696241910E-01  0.55264713629E-01  0.17539908944E-01  0.82506647693E-01  0.51100000000E-03 0. -1.
         11    1    4    4    0    0 -0.42030350581E-01  0.31833582229E-01 -0.24680178838E-01  0.58217692122E-01  0.51100000000E-03 0.  1.
</event>
<event>
 8    1  0.2928569E+004  0.1043930E+01  0.7957747E-01            NaN
         13   -1    0    0    0    0  0.00000000000E+00  0.00000000000E+00  0.74505805969E-08  0.10566000000E+00  0.10566000000E+00 0.  1.
     999900   -1    0    0    0    0 -0.00000000000E+00 -0.00000000000E+00 -0.74505805969E-08  0.93827000000E+00  0.93827000000E+00 0. -1.
     999902    2    1    2    0    0  0.10210107272E-01  0.64983578971E-02  0.64465516985E-02  0.10302174884E+01  0.10301262255E+01 0.  0.
     999903    2    3    3    0    0 -0.96862011671E-01 -0.87026193989E-01 -0.15979688534E-01  0.13852571613E+00  0.44477138387E-01 0.  0.
         14    1    1    2    0    0 -0.10210107272E-01 -0.64983578971E-02 -0.64465516985E-02  0.13712511611E-01  0.00000000000E+00 0. -1.
     999901    1    3    3    0    0  0.10707211894E+00  0.93524551886E-01  0.22426240233E-01  0.89169177226E+00  0.88000000000E+00 0.  1.
        -11    1    4    4    0    0 -0.19760444510E-01 -0.44498805776E-01  0.16701782450E-02  0.48720319161E-01  0.51100000000E-03 0.  1.
         11    1    4    4    0    0 -0.77101567161E-01 -0.42527388213E-01 -0.17649866779E-01  0.89805396971E-01  0.51100000000E-03 0. -1.
</event>
<event>
 8    1  0.2928569E+004  0.1043930E+01  0.7957747E-01            NaN
         13   -1    0    0    0    0  0.00000000000E+00  0.00000000000E+00  0.74505805969E-08  0.10566000000E+00  0.10566000000E+00 0.  1.
     999900   -1    0    0    0    0 -0.00000000000E+00 -0.00000000000E+00 -0.74505805969E-08  0.93827000000E+00  0.93827000000E+00 0.  1.
     999902    2    1    2    0    0 -0.81992357116E-02  0.34783273301E-03  0.11777553260E-01  0.10295752372E+01  0.10294751623E+01 0.  0.
     999903    2    3    3    0    0 -0.77647611709E-01  0.10788944765E+00  0.34591662877E-02  0.14027356094E+00  0.44670141558E-01 0.  0.
         14    1    1    2    0    0  0.81992357116E-02 -0.34783273301E-03 -0.11777553260E-01  0.14354762786E-01  0.00000000000E+00 0. -1.
     999901    1    3    3    0    0  0.69448375997E-01 -0.10754161492E+00  0.83183869721E-02  0.88930167628E+00  0.88000000000E+00 0.  1.
        -11    1    4    4    0    0 -0.63908754134E-01  0.64090841009E-01 -0.13138321834E-01  0.91459506766E-01  0.51100000000E-03 0.  1.
         11    1    4    4    0    0 -0.13738857575E-01  0.43798606646E-01  0.16597488121E-01  0.48814054170E-01  0.51100000000E-03 0. -1.
</event>
<event>
 8    1  0.2928569E+004  0.1043930E+01  0.7957747E-01            NaN
         13   -1    0    0    0    0  0.00000000000E+00  0.00000000000E+00  0.74505805969E-08  0.10566000000E+00  0.10566000000E+00 0. -1.
     999900   -1    0    0    0    0 -0.00000000000E+00 -0.00000000000E+00 -0.74505805969E-08  0.93827000000E+00  0.93827000000E+00 0. -1.
     999902    2    1    2    0    0  0.75353343568E-02 -0.65957813091E-02 -0.86226234827E-02  0.10307150376E+01  0.10306303186E+01 0.  0.
     999903    2    3    3    0    0  0.82132614126E-01 -0.12136572626E-01  0.10391183682E+00  0.14040079014E+00  0.44962755038E-01 0.  0.
         14    1    1    2    0    0 -0.75353343568E-02  0.65957813091E-02  0.86226234827E-02  0.13214962379E-01  0.00000000000E+00 0.  1.
     999901    1    3    3    0    0 -0.74597279769E-01  0.55407913172E-02 -0.11253446031E+00  0.89031424748E+00  0.88000000000E+00 0. -1.
        -11    1    4    4    0    0  0.58872378066E-01 -0.15320809727E-01  0.41299107096E-01  0.73529323931E-01  0.51100000000E-03 0.  1.
         11    1    4    4    0    0  0.23260236060E-01  0.31842371009E-02  0.62612729728E-01  0.66871466206E-01  0.51100000000E-03 0. -1.
</event>
<event>
 8    1  0.2928569E+004  0.1043930E+01  0.7957747E-01            NaN
         13   -1    0    0    0    0  0.00000000000E+00  0.00000000000E+00  0.74505805969E-08  0.10566000000E+00  0.10566000000E+00 0. -1.
     999900   -1    0    0    0    0 -0.00000000000E+00 -0.00000000000E+00 -0.74505805969E-08  0.93827000000E+00  0.93827000000E+00 0.  1.
     999902    2    1    2    0    0 -0.11233861283E-01 -0.13622293215E-01 -0.57779821645E-02  0.10253517442E+01  0.10251834215E+01 0.  0.
     999903    2    3    3    0    0 -0.49867002234E-01  0.49985785152E-01  0.10620025419E+00  0.13513961629E+00  0.44709342106E-01 0.  0.
         14    1    1    2    0    0  0.11233861283E-01  0.13622293215E-01  0.57779821645E-02  0.18578255829E-01  0.00000000000E+00 0.  1.
     999901    1    3    3    0    0  0.38633140951E-01 -0.63608078367E-01 -0.11197823635E+00  0.89021212788E+00  0.88000000000E+00 0.  1.
        -11    1    4    4    0    0 -0.39261487020E-01  0.33426126176E-01  0.10303097437E+00  0.11521463915E+00  0.51100000000E-03 0. -1.
         11    1    4    4    0    0 -0.10605515214E-01  0.16559658976E-01  0.31692798203E-02  0.19924977137E-01  0.51100000000E-03 0.  1.
</event>
<event>
 8    1  0.2928569E+004  0.1043930E+01  0.7957747E-01            NaN
         13   -1    0    0    0    0  0.00000000000E+00  0.00000000000E+00  0.74505805969E-08  0.10566000000E+00  0.10566000000E+00 0.  1.
     999900   -1    0    0    0    0 -0.00000000000E+00 -0.00000000000E+00 -0.74505805969E-08  0.93827000000E+00  0.93827000000E+00 0. -1.
     999902    2    1    2    0    0  0.21906744897E-01  0.11028040303E-02 -0.49677919480E-02  0.10214399888E+01  0.10211923668E+01 0.  0.
     999903    2    3    3    0    0  0.67844406365E-02 -0.11843211230E+00  0.38621233691E-01  0.13216090801E+00  0.43620087735E-01 0.  0.
         14    1    1    2    0    0 -0.21906744897E-01 -0.11028040303E-02  0.49677919480E-02  0.22490011239E-01  0.00000000000E+00 0.  1.
     999901    1    3    3    0    0  0.15122304260E-01  0.11953491633E+00 -0.43589025639E-01  0.88927908075E+00  0.88000000000E+00 0.  1.
        -11    1    4    4    0    0  0.13577558561E-01 -0.98427702952E-01  0.46375201440E-01  0.10965073294E+00  0.51100000000E-03 0.  1.
         11    1    4    4    0    0 -0.67931179242E-02 -0.20004409352E-01 -0.77539677495E-02  0.22510175066E-01  0.51100000000E-03 0. -1.
</event>
<event>
 8    1  0.2928569E+004  0.1043930E+01  0.7957747E-01            NaN
         13   -1    0    0    0    0  0.00000000000E+00  0.00000000000E+00  0.74505805969E-08  0.10566000000E+00  0.10566000000E+00 0. -1.
     999900   -1    0    0    0    0 -0.00000000000E+00 -0.00000000000E+00 -0.74505805969E-08  0.93827000000E+00  0.93827000000E+00 0. -1.
     999902    2    1    2    0    0  0.80854201878E-02 -0.11526301214E-01  0.74288436161E-02  0.10280109122E+01  0.10278876486E+01 0.  0.
     999903    2    3    3    0    0 -0.75835579796E-01  0.84181425671E-01 -0.61333791595E-01  0.13619758911E+00  0.44163352411E-01 0.  0.
         14    1    1    2    0    0 -0.80854201878E-02  0.11526301214E-01 -0.74288436161E-02  0.15919087812E-01  0.00000000000E+00 0. -1.
     999901    1    3    3    0    0  0.83920999984E-01 -0.95707726885E-01  0.68762635211E-01  0.89181332308E+00  0.88000000000E+00 0.  1.
        -11    1    4    4    0    0 -0.68305429960E-01  0.46983547392E-01 -0.48922816328E-01  0.96264160340E-01  0.51100000000E-03 0.  1.
         11    1    4    4    0    0 -0.75301498364E-02  0.37197878279E-01 -0.12410975267E-01  0.39933428767E-01  0.51100000000E-03 0. -1.
</event>
<event>
 8    1  0.2928569E+004  0.1043930E+01  0.7957747E-01            NaN
         13   -1    0    0    0    0  0.00000000000E+00  0.00000000000E+00  0.74505805969E-08  0.10566000000E+00  0.10566000000E+00 0.  1.
     999900   -1    0    0    0    0 -0.00000000000E+00 -0.00000000000E+00 -0.74505805969E-08  0.93827000000E+00  0.93827000000E+00 0.  1.
     999902    2    1    2    0    0  0.10963923483E-01  0.67540454074E-02 -0.27737752743E-02  0.10307573550E+01  0.10306731811E+01 0.  0.
     999903    2    3    3    0    0 -0.80164788678E-01 -0.38224950636E-01  0.97588868163E-01  0.13924167230E+00  0.44464771688E-01 0.  0.
         14    1    1    2    0    0 -0.10963923483E-01 -0.67540454074E-02  0.27737752743E-02  0.13172645018E-01  0.00000000000E+00 0. -1.
     999901    1    3    3    0    0  0.91128712161E-01  0.44978996043E-01 -0.10036264344E+00  0.89151568268E+00  0.88000000000E+00 0.  1.
        -11    1    4    4    0    0 -0.26277579231E-01 -0.35486755924E-01  0.33292124301E-01  0.55303233882E-01  0.51100000000E-03 0. -1.
         11    1    4    4    0    0 -0.53887209447E-01 -0.27381947114E-02  0.64296743862E-01  0.83938438421E-01  0.51100000000E-03 0.  1.
</event>
<event>
 8    1  0.2928569E+004  0.1043930E+01  0.7957747E-01            NaN
         13   -1    0    0    0    0  0.00000000000E+00  0.00000000000E+00  0.74505805969E-08  0.10566000000E+00  0.10566000000E+00 0.  1.
     999900   -1    0    0    0    0 -0.00000000000E+00 -0.00000000000E+00 -0.74505805969E-08  0.93827000000E+00  0.93827000000E+00 0. -1.
     999902    2    1    2    0    0 -0.40888657571E-02 -0.81343134814E-02  0.10024511169E-01  0.10303883345E+01  0.10302993464E+01 0.  0.
     999903    2    3    3    0    0  0.60294566910E-01  0.69918372256E-01 -0.93115781682E-01  0.13860620412E+00  0.44912330636E-01 0.  0.
         14    1    1    2    0    0  0.40888657571E-02  0.81343134814E-02 -0.10024511169E-01  0.13541665450E-01  0.00000000000E+00 0. -1.
     999901    1    3    3    0    0 -0.64383432668E-01 -0.78052685737E-01  0.10314029285E+00  0.89178213043E+00  0.88000000000E+00 0. -1.
        -11    1    4    4    0    0  0.77032198183E-02 -0.60277045787E-02 -0.13332464668E-01  0.16543535087E-01  0.51100000000E-03 0.  1.
         11    1    4    4    0    0  0.52591347092E-01  0.75946076834E-01 -0.79783317015E-01  0.12206266903E+00  0.51100000000E-03 0. -1.
</event>
<event>
 8    1  0.2928569E+004  0.1043930E+01  0.7957747E-01            NaN
         13   -1    0    0    0    0  0.00000000000E+00  0.00000000000E+00  0.74505805969E-08  0.10566000000E+00  0.10566000000E+00 0. -1.
     999900   -1    0    0    0    0 -0.00000000000E+00 -0.00000000000E+00 -0.74505805969E-08  0.93827000000E+00  0.93827000000E+00 0.  1.
     999902    2    1    2    0    0 -0.79611484650E-02  0.39573077434E-02 -0.12663508779E-01  0.10284572942E+01  0.10283408975E+01 0.  0.
     999903    2    3    3    0    0 -0.11191429180E+00 -0.62097787239E-01  0.30964725836E-01  0.13880963676E+00  0.43913063207E-01 0.  0.
         14    1    1    2    0    0  0.79611484650E-02 -0.39573077434E-02  0.12663508779E-01  0.15472705776E-01  0.00000000000E+00 0. -1.
     999901    1    3    3    0    0  0.10395314334E+00  0.66055094982E-01 -0.43628234614E-01  0.88964765747E+00  0.88000000000E+00 0.  1.
        -11    1    4    4    0    0 -0.86931010311E-01 -0.47067614343E-01  0.37578187783E-02  0.98927969739E-01  0.51100000000E-03 0.  1.
         11    1    4    4    0    0 -0.24983281492E-01 -0.15030172896E-01  0.27206907057E-01  0.39881667017E-01  0.51100000000E-03 0. -1.
</event>
<event>
 8    1  0.2928569E+004  0.1043930E+01  0.7957747E-01            NaN
         13   -1    0    0    0    0  0.00000000000E+00  0.00000000000E+00  0.74505805969E-08  0.10566000000E+00  0.10566000000E+00 0.  1.
     999900   -1    0    0    0    0 -0.00000000000E+00 -0.00000000000E+00 -0.74505805969E-08  0.93827000000E+00  0.93827000000E+00 0.  1.
     999902    2    1    2    0    0 -0.97108899352E-02  0.78882330463E-02 -0.62461642629E-02  0.10299464321E+01  0.10298515003E+01 0.  0.
     999903    2    3    3    0    0  0.90367060466E-01  0.83222007931E-01  0.49298977962E-01  0.13934212228E+00  0.43517003491E-01 0.  0.
         14    1    1    2    0    0  0.97108899352E-02 -0.78882330463E-02  0.62461642629E-02  0.13983567925E-01  0.00000000000E+00 0.  1.
     999901    1    3    3    0    0 -0.10007795040E+00 -0.75333774885E-01 -0.55545142225E-01  0.89060430979E+00  0.88000000000E+00 0.  1.
        -11    1    4    4    0    0  0.22189759570E-01  0.33885807868E-01  0.35896078177E-01  0.54124143911E-01  0.51100000000E-03 0. -1.
         11    1    4    4    0    0  0.68177300896E-01  0.49336200063E-01  0.13402899785E-01  0.85217978372E-01  0.51100000000E-03 0.  1.
</event>
<event>
 8    1  0.2928569E+004  0.1043930E+01  0.7957747E-01            NaN
         13   -1    0    0    0    0  0.00000000000E+00  0.00000000000E+00  0.74505805969E-08  0.10566000000E+00  0.10566000000E+00 0. -1.
     999900   -1    0    0    0    0 -0.00000000000E+00 -0.00000000000E+00 -0.74505805969E-08  0.93827000000E+00  0.93827000000E+00 0. -1.
     999902    2    1    2    0    0 -0.86535284946E-02 -0.48829913852E-02 -0.99715793405E-02  0.10298530843E+01  0.10297568722E+01 0.  0.
     999903    2    3    3    0    0  0.33151236005E-01 -0.11519636478E+00  0.55495373277E-01  0.13957076923E+00  0.45067241558E-01 0.  0.
         14    1    1    2    0    0  0.86535284946E-02  0.48829913852E-02  0.99715793405E-02  0.14076915671E-01  0.00000000000E+00 0. -1.
     999901    1    3    3    0    0 -0.41804764500E-01  0.11031337340E+00 -0.65466952617E-01  0.89028231509E+00  0.88000000000E+00 0. -1.
        -11    1    4    4    0    0  0.96491735696E-02 -0.92795148852E-01  0.52264144167E-01  0.10693852481E+00  0.51100000000E-03 0. -1.
         11    1    4    4    0    0  0.23502062436E-01 -0.22401215931E-01  0.32312291102E-02  0.32632244429E-01  0.51100000000E-03 0.  1.
</event>
<event>
 8    1  0.2928569E+004  0.1043930E+01  0.7957747E-01            NaN
         13   -1    0    0    0    0  0.00000000000E+00  0.00000000000E+00  0.74505805969E-08  0.10566000000E+00  0.10566000000E+00 0.  1.
     999900   -1    0    0    0    0 -0.00000000000E+00 -0.00000000000E+00 -0.74505805969E-08  0.93827000000E+00  0.93827000000E+00 0. -1.
     999902    2    1    2    0    0 -0.79715896735E-02 -0.11839655753E-01  0.87623474142E-02  0.10271817935E+01  0.10270452446E+01 0.  0.
     999903    2    3    3    0    0 -0.78241760975E-01  0.27842452568E-01  0.10149276480E+00  0.13863719862E+00  0.44972393861E-01 0.  0.
         14    1    1    2    0    0  0.79715896735E-02  0.11839655753E-01 -0.87623474142E-02  0.16748206545E-01  0.00000000000E+00 0. -1.
     999901    1    3    3    0    0  0.70270171302E-01 -0.39682108321E-01 -0.92730417387E-01  0.88854459483E+00  0.88000000000E+00 0. -1.
        -11    1    4    4    0    0 -0.43259914773E-01  0.12717191830E-01  0.21349415823E-01  0.49891941947E-01  0.51100000000E-03 0.  1.
         11    1    4    4    0    0 -0.34981846202E-01  0.15125260738E-01  0.80143348979E-01  0.88745256676E-01  0.51100000000E-03 0. -1.
</event>
<event>
 8    1  0.2928569E+004  0.1043930E+01  0.7957747E-01            NaN
         13   -1    0    0    0    0  0.00000000000E+00  0.00000000000E+00  0.74505805969E-08  0.10566000000E+00  0.10566000000E+00 0. -1.
     999900   -1    0    0    0    0 -0.00000000000E+00 -0.00000000000E+00 -0.74505805969E-08  0.93827000000E+00  0.93827000000E+00 0. -1.
     999902    2    1    2    0    0  0.64127516464E-02 -0.13261227992E-01  0.48605344092E-02  0.10284184447E+01  0.10283014583E+01 0.  0.
     999903    2    3    3    0    0 -0.12262070847E+00 -0.37439435178E-01  0.27340898534E-01  0.13839620553E+00  0.44367054454E-01 0.  0.
         14    1    1    2    0    0 -0.64127516464E-02  0.13261227992E-01 -0.48605344092E-02  0.15511555250E-01  0.00000000000E+00 0.  1.
     999901    1    3    3    0    0  0.12903346012E+00  0.24178207186E-01 -0.22480364125E-01  0.89002223922E+00  0.88000000000E+00 0. -1.
        -11    1    4    4    0    0 -0.53121079795E-01 -0.38919199537E-01  0.87283183331E-02  0.66430398712E-01  0.51100000000E-03 0.  1.
         11    1    4    4    0    0 -0.69499628674E-01  0.14797643586E-02  0.18612580201E-01  0.71965806819E-01  0.51100000000E-03 0. -1.
</event>
<event>
 8    1  0.2928569E+004  0.1043930E+01  0.7957747E-01            NaN
         13   -1    0    0    0    0  0.00000000000E+00  0.00000000000E+00  0.74505805969E-08  0.10566000000E+00  0.10566000000E+00 0. -1.
     999900   -1    0    0    0    0 -0.00000000000E+00 -0.00000000000E+00 -0.74505805969E-08  0.93827000000E+00  0.93827000000E+00 0. -1.
     999902    2    1    2    0    0  0.80249412468E-02 -0.10517618308E-01 -0.30994040612E-02  0.10303422746E+01  0.10302526760E+01 0.  0.
     999903    2    3    3    0    0  0.10792298433E+00 -0.16854074674E-01  0.76581938986E-01  0.14109040579E+00  0.45937771464E-01 0.  0.
         14    1    1    2    0    0 -0.80249412468E-02  0.10517618308E-01  0.30994040612E-02  0.13587725432E-01  0.00000000000E+00 0. -1.
     999901    1    3    3    0    0 -0.99898043086E-01  0.63364563663E-02 -0.79681343047E-01  0.88925186878E+00  0.88000000000E+00 0.  1.
        -11    1    4    4    0    0  0.37523805619E-01  0.14767406922E-01  0.17822692852E-01  0.44091062550E-01  0.51100000000E-03 0.  1.
         11    1    4    4    0    0  0.70399178715E-01 -0.31621481597E-01  0.58759246134E-01  0.96999343242E-01  0.51100000000E-03 0. -1.
</event>
<event>
 8    1  0.2928569E+004  0.1043930E+01  0.7957747E-01            NaN
         13   -1    0    0    0    0  0.00000000000E+00  0.00000000000E+00  0.74505805969E-08  0.10566000000E+00  0.10566000000E+00 0. -1.
     999900   -1    0    0    0    0 -0.00000000000E+00 -0.00000000000E+00 -0.74505805969E-08  0.93827000000E+00  0.93827000000E+00 0.  1.
     999902    2    1    2    0    0  0.87195781429E-02  0.47082024761E-02 -0.10325891485E-01  0.10296183876E+01  0.10295189177E+01 0.  0.
     999903    2    3    3    0    0  0.74077127537E-01 -0.10992623860E+00 -0.10781743267E-02  0.13973177429E+00  0.44188318901E-01 0.  0.
         14    1    1    2    0    0 -0.87195781429E-02 -0.47082024761E-02  0.10325891485E-01  0.14311612366E-01  0.00000000000E+00 0. -1.
     999901    1    3    3    0    0 -0.65357549394E-01  0.11463444108E+00 -0.92477171584E-02  0.88988661335E+00  0.88000000000E+00 0.  1.
        -11    1    4    4    0    0  0.57008714686E-01 -0.46403206496E-01 -0.61058989249E-02  0.73761739716E-01  0.51100000000E-03 0.  1.
         11    1    4    4    0    0  0.17068412851E-01 -0.63523032108E-01  0.50277245982E-02  0.65970034570E-01  0.51100000000E-03 0. -1.
</event>
<event>
 8    1  0.2928569E+004  0.1043930E+01  0.7957747E-01            NaN
         13   -1    0    0    0    0  0.00000000000E+00  0.00000000000E+00  0.74505805969E-08  0.10566000000E+00  0.10566000000E+00 0. -1.
     999900   -1    0    0    0    0 -0.00000000000E+00 -0.00000000000E+00 -0.74505805969E-08  0.93827000000E+00  0.93827000000E+00 0.  1.
     999902    2    1    2    0    0  0.39000722034E-02  0.20838286479E-02 -0.13640831736E-01  0.10295903628E+01  0.10294905002E+01 0.  0.
     999903    2    3    3    0    0  0.25702837932E-01  0.22130021369E-01  0.12590751289E+00  0.13810230850E+00  0.45488153260E-01 0.  0.
         14    1    1    2    0    0 -0.39000722034E-02 -0.20838286479E-02  0.13640831736E-01  0.14339637216E-01  0.00000000000E+00 0. -1.
     999901    1    3    3    0    0 -0.21802765728E-01 -0.20046192721E-01 -0.13954834463E+00  0.89148805428E+00  0.88000000000E+00 0.  1.
        -11    1    4    4    0    0 -0.75183397931E-02  0.19351543015E-01  0.69923673940E-01  0.72942367308E-01  0.51100000000E-03 0.  1.
         11    1    4    4    0    0  0.33221177725E-01  0.27784783535E-02  0.55983838955E-01  0.65159941195E-01  0.51100000000E-03 0. -1.
</event>
<event>
 8    1  0.2928569E+004  0.1043930E+01  0.7957747E-01            NaN
         13   -1    0    0    0    0  0.00000000000E+00  0.00000000000E+00  0.74505805969E-08  0.10566000000E+00  0.10566000000E+00 0.  1.
     999900   -1    0    0    0    0 -0.00000000000E+00 -0.00000000000E+00 -0.74505805969E-08  0.93827000000E+00  0.93827000000E+00 0.  1.
     999902    2    1    2    0    0 -0.13795280155E-01  0.88451491457E-02 -0.11745194099E-02  0.10275005778E+01  0.10273692187E+01 0.  0.
     999903    2    3    3    0    0 -0.12101873458E+00 -0.51443277564E-01  0.36454387939E-02  0.13893161842E+00  0.44685125585E-01 0.  0.
         14    1    1    2    0    0  0.13795280155E-01 -0.88451491457E-02  0.11745194099E-02  0.16429422199E-01  0.00000000000E+00 0. -1.
     999901    1    3    3    0    0  0.10722345442E+00  0.60288426710E-01 -0.48199582038E-02  0.88856895938E+00  0.88000000000E+00 0. -1.
        -11    1    4    4    0    0 -0.38669148559E-01 -0.12846470149E-01 -0.19366248036E-01  0.45118150777E-01  0.51100000000E-03 0.  1.
         11    1    4    4    0    0 -0.82349586017E-01 -0.38596807415E-01  0.23011686830E-01  0.93813467645E-01  0.51100000000E-03 0. -1.
</event>
<event>
 8    1  0.2928569E+004  0.1043930E+01  0.7957747E-01            NaN
         13   -1    0    0    0    0  0.00000000000E+00  0.00000000000E+00  0.74505805969E-08  0.10566000000E+00  0.10566000000E+00 0. -1.
     999900   -1    0    0    0    0 -0.00000000000E+00 -0.00000000000E+00 -0.74505805969E-08  0.93827000000E+00  0.93827000000E+00 0.  1.
     999902    2    1    2    0    0  0.15273331558E-02  0.10876349547E-01  0.19323048856E-02  0.10327782500E+01  0.10327180410E+01 0.  0.
     999903    2    3    3    0    0 -0.29447806054E-01 -0.48383704706E-01 -0.12256381668E+00  0.14150360233E+00  0.42346477433E-01 0.  0.
         14    1    1    2    0    0 -0.15273331558E-02 -0.10876349547E-01 -0.19323048856E-02  0.11151750007E-01  0.00000000000E+00 0.  1.
     999901    1    3    3    0    0  0.30975139209E-01  0.59260054254E-01  0.12449612157E+00  0.89127464766E+00  0.88000000000E+00 0. -1.
        -11    1    4    4    0    0 -0.26150992107E-01 -0.17518301287E-01 -0.28557374495E-01  0.42503529585E-01  0.51100000000E-03 0. -1.
         11    1    4    4    0    0 -0.32968139471E-02 -0.30865403419E-01 -0.94006442185E-01  0.99000072746E-01  0.51100000000E-03 0.  1.
</event>
<event>
 8    1  0.2928569E+004  0.1043930E+01  0.7957747E-01            NaN
         13   -1    0    0    0    0  0.00000000000E+00  0.00000000000E+00  0.74505805969E-08  0.10566000000E+00  0.10566000000E+00 0. -1.
     999900   -1    0    0    0    0 -0.00000000000E+00 -0.00000000000E+00 -0.74505805969E-08  0.93827000000E+00  0.93827000000E+00 0. -1.
     999902    2    1    2    0    0 -0.41884192586E-02 -0.57004414760E-02  0.11634571514E-01  0.10303137912E+01  0.10302238141E+01 0.  0.
     999903    2    3    3    0    0  0.65749996429E-01 -0.46198703390E-01 -0.10448753446E+00  0.13901370998E+00  0.44156363981E-01 0.  0.
         14    1    1    2    0    0  0.41884192586E-02  0.57004414760E-02 -0.11634571514E-01  0.13616208842E-01  0.00000000000E+00 0.  1.
     999901    1    3    3    0    0 -0.69938415688E-01  0.40498261914E-01  0.11612210598E+00  0.89130008118E+00  0.88000000000E+00 0.  1.
        -11    1    4    4    0    0 -0.27918578638E-03 -0.18648203248E-02 -0.29943603208E-01  0.30007265681E-01  0.51100000000E-03 0.  1.
         11    1    4    4    0    0  0.66029182216E-01 -0.44333883065E-01 -0.74543931253E-01  0.10900644430E+00  0.51100000000E-03 0. -1.
</event>
<event>
 8    1  0.2928569E+004  0.1043930E+01  0.7957747E-01            NaN
         13   -1    0    0    0    0  0.00000000000E+00  0.00000000000E+00  0.74505805969E-08  0.10566000000E+00  0.10566000000E+00 0.  1.
     999900   -1    0    0    0    0 -0.00000000000E+00 -0.00000000000E+00 -0.74505805969E-08  0.93827000000E+00  0.93827000000E+00 0.  1.
     999902    2    1    2    0    0 -0.11281280528E-01 -0.71089507455E-02 -0.15664809604E-02  0.10305039681E+01  0.10304165031E+01 0.  0.
     999903    2    3    3    0    0 -0.36133337311E-01 -0.96162757640E-01  0.85560103671E-01  0.14138122794E+00  0.45991588922E-01 0.  0.
         14    1    1    2    0    0  0.11281280528E-01  0.71089507455E-02  0.15664809604E-02  0.13426031940E-01  0.00000000000E+00 0.  1.
     999901    1    3    3    0    0  0.24852056783E-01  0.89053806895E-01 -0.87126584631E-01  0.88912274012E+00  0.88000000000E+00 0.  1.
        -11    1    4    4    0    0 -0.13791678013E-01 -0.65350598986E-01  0.28110453305E-01  0.72466336159E-01  0.51100000000E-03 0. -1.
         11    1    4    4    0    0 -0.22341659297E-01 -0.30812158654E-01  0.57449650366E-01  0.68914891781E-01  0.51100000000E-03 0.  1.
</event>
<event>
 8    1  0.2928569E+004  0.1043930E+01  0.7957747E-01            NaN
         13   -1    0    0    0    0  0.00000000000E+00  0.00000000000E+00  0.74505805969E-08  0.10566000000E+00  0.10566000000E+00 0. -1.
     999900   -1    0    0    0    0 -0.00000000000E+00 -0.00000000000E+00 -0.74505805969E-08  0.93827000000E+00  0.93827000000E+00 0.  1.
     999902    2    1    2    0    0 -0.49781241907E-02 -0.82206827403E-03  0.20132944160E-01  0.10231744476E+01  0.10229639081E+01 0.  0.
     999903    2    3    3    0    0  0.66645271532E-01  0.55716385582E-01  0.94415544412E-01  0.13534315036E+00  0.43099483559E-01 0.  0.
         14    1    1    2    0    0  0.49781241907E-02  0.82206827403E-03 -0.20132944160E-01  0.20755552444E-01  0.00000000000E+00 0.  1.
     999901    1    3    3    0    0 -0.71623395723E-01 -0.56538453856E-01 -0.74282600252E-01  0.88783129720E+00  0.88000000000E+00 0.  1.
        -11    1    4    4    0    0  0.60745494217E-01  0.50793067696E-01  0.58082207205E-01  0.98202620680E-01  0.51100000000E-03 0.  1.
         11    1    4    4    0    0  0.58997773153E-02  0.49233178861E-02  0.36333337206E-01  0.37140529680E-01  0.51100000000E-03 0. -1.
</event>
<event>
 8    1  0.2928569E+004  0.1043930E+01  0.7957747E-01            NaN
         13   -1    0    0    0    0  0.00000000000E+00  0.00000000000E+00  0.74505805969E-08  0.10566000000E+00  0.10566000000E+00 0. -1.
     999900   -1    0    0    0    0 -0.00000000000E+00 -0.00000000000E+00 -0.74505805969E-08  0.93827000000E+00  0.93827000000E+00 0.  1.
     999902    2    1    2    0    0  0.10075919377E-01 -0.92256732192E-02 -0.45936172457E-02  0.10295168630E+01  0.10294159668E+01 0.  0.
     999903    2    3    3    0    0  0.27371492811E-01  0.58825821670E-01 -0.11009451456E+00  0.14043836136E+00  0.58244787663E-01 0.  0.
         14    1    1    2    0    0 -0.10075919377E-01  0.92256732192E-02  0.45936172457E-02  0.14413136960E-01  0.00000000000E+00 0. -1.
     999901    1    3    3    0    0 -0.17295573434E-01 -0.68051494890E-01  0.10550089732E+00  0.88907850168E+00  0.88000000000E+00 0. -1.
        -11    1    4    4    0    0 -0.14290164190E-01  0.13181238245E-02 -0.30858804333E-01  0.34036350698E-01  0.51100000000E-03 0.  1.
         11    1    4    4    0    0  0.41661657001E-01  0.57507697846E-01 -0.79235710232E-01  0.10640201066E+00  0.51100000000E-03 0. -1.
</event>
<event>
 8    1  0.2928569E+004  0.1043930E+01  0.7957747E-01            NaN
         13   -1    0    0    0    0  0.00000000000E+00  0.00000000000E+00  0.74505805969E-08  0.10566000000E+00  0.10566000000E+00 0. -1.
     999900   -1    0    0    0    0 -0.00000000000E+00 -0.00000000000E+00 -0.74505805969E-08  0.93827000000E+00  0.93827000000E+00 0.  1.
     999902    2    1    2    0    0 -0.10673877432E-01 -0.67358353820E-02 -0.60896148321E-02  0.10299162016E+01  0.10298208561E+01 0.  0.
     999903    2    3    3    0    0  0.48045722755E-02 -0.12887377655E+00  0.32756577778E-01  0.14049712950E+00  0.45110041141E-01 0.  0.
         14    1    1    2    0    0  0.10673877432E-01  0.67358353820E-02  0.60896148321E-02  0.14013798434E-01  0.00000000000E+00 0.  1.
     999901    1    3    3    0    0 -0.15478449708E-01  0.12213794117E+00 -0.38846192610E-01  0.88941907207E+00  0.88000000000E+00 0. -1.
        -11    1    4    4    0    0  0.21363788409E-01 -0.64496433952E-01  0.29122983133E-01  0.73923005318E-01  0.51100000000E-03 0.  1.
         11    1    4    4    0    0 -0.16559216133E-01 -0.64377342601E-01  0.36335946451E-02  0.66574124180E-01  0.51100000000E-03 0. -1.
</event>
<event>
 8    1  0.2928569E+004  0.1043930E+01  0.7957747E-01            NaN
         13   -1    0    0    0    0  0.00000000000E+00  0.00000000000E+00  0.74505805969E-08  0.10566000000E+00  0.10566000000E+00 0.  1.
     999900   -1    0    0    0    0 -0.00000000000E+00 -0.00000000000E+00 -0.74505805969E-08  0.93827000000E+00  0.93827000000E+00 0. -1.
     999902    2    1    2    0    0  0.71200374825E-02 -0.92006095263E-02  0.43657720326E-02  0.10315039743E+01  0.10314291264E+01 0.  0.
     999903    2    3    3    0    0  0.23221946289E-01  0.12879620336E+00  0.23673951121E-01  0.14039500362E+00  0.44973106293E-01 0.  0.
         14    1    1    2    0    0 -0.71200374825E-02  0.92006095263E-02 -0.43657720326E-02  0.12426025706E-01  0.00000000000E+00 0. -1.
     999901    1    3    3    0    0 -0.16101908807E-01 -0.13799681289E+00 -0.19308179089E-01  0.89110897067E+00  0.88000000000E+00 0. -1.
        -11    1    4    4    0    0  0.29883708954E-01  0.51421986432E-01  0.98033061427E-03  0.59485115101E-01  0.51100000000E-03 0.  1.
         11    1    4    4    0    0 -0.66617626645E-02  0.77374216931E-01  0.22693620507E-01  0.80909888520E-01  0.51100000000E-03 0. -1.
</event>
<event>
 8    1  0.2928569E+004  0.1043930E+01  0.7957747E-01            NaN
         13   -1    0    0    0    0  0.00000000000E+00  0.00000000000E+00  0.74505805969E-08  0.10566000000E+00  0.10566000000E+00 0.  1.
     999900   -1    0    0    0    0 -0.00000000000E+00 -0.00000000000E+00 -0.74505805969E-08  0.93827000000E+00  0.93827000000E+00 0. -1.
     999902    2    1    2    0    0 -0.58493223131E-02  0.11584087144E-01  0.41594451976E-02  0.10303025780E+01  0.10302124517E+01 0.  0.
     999903    2    3    3    0    0  0.30506468979E-01  0.10919866188E+00  0.72106292865E-01  0.14155788862E+00  0.44545773687E-01 0.  0.
         14    1    1    2    0    0  0.58493223131E-02 -0.11584087144E-01 -0.41594451976E-02  0.13627422017E-01  0.00000000000E+00 0. -1.
     999901    1    3    3    0    0 -0.36355791292E-01 -0.97614574739E-01 -0.67946847667E-01  0.88874468936E+00  0.88000000000E+00 0. -1.
        -11    1    4    4    0    0 -0.96639366054E-02  0.24336983542E-01  0.64041924994E-02  0.26962107507E-01  0.51100000000E-03 0. -1.
         11    1    4    4    0    0  0.40170405584E-01  0.84861678341E-01  0.65702100366E-01  0.11459578111E+00  0.51100000000E-03 0.  1.
</event>
<event>
 8    1  0.2928569E+004  0.1043930E+01  0.7957747E-01            NaN
         13   -1    0    0    0    0  0.00000000000E+00  0.00000000000E+00  0.74505805969E-08  0.10566000000E+00  0.10566000000E+00 0.  1.
     999900   -1    0    0    0    0 -0.00000000000E+00 -0.00000000000E+00 -0.74505805969E-08  0.93827000000E+00  0.93827000000E+00 0.  1.
     999902    2    1    2    0    0  0.14549859344E-02  0.77670254881E-02 -0.11290376266E-01  0.10301489890E+01  0.10300568058E+01 0.  0.
     999903    2    3    3    0    0 -0.11297947989E+00 -0.16829001241E-01 -0.68997602357E-01  0.14052528455E+00  0.44035307529E-01 0.  0.
         14    1    1    2    0    0 -0.14549859344E-02 -0.77670254881E-02  0.11290376266E-01  0.13781011038E-01  0.00000000000E+00 0.  1.
     999901    1    3    3    0    0  0.11443446582E+00  0.24596026729E-01  0.57707226091E-01  0.88962370441E+00  0.88000000000E+00 0. -1.
        -11    1    4    4    0    0 -0.51263635279E-01 -0.28018599186E-01 -0.23199723289E-01  0.62860881986E-01  0.51100000000E-03 0.  1.
         11    1    4    4    0    0 -0.61715844611E-01  0.11189597945E-01 -0.45797879069E-01  0.77664402569E-01  0.51100000000E-03 0. -1.
</event>
<event>
 8    1  0.2928569E+004  0.1043930E+01  0.7957747E-01            NaN
         13   -1    0    0    0    0  0.00000000000E+00  0.00000000000E+00  0.74505805969E-08  0.10566000000E+00  0.10566000000E+00 0.  1.
     999900   -1    0    0    0    0 -0.00000000000E+00 -0.00000000000E+00 -0.74505805969E-08  0.93827000000E+00  0.93827000000E+00 0.  1.
     999902    2    1    2    0    0 -0.31857958527E-02  0.78647590787E-02  0.10868321021E-01  0.10301414492E+01  0.10300491645E+01 0.  0.
     999903    2    3    3    0    0  0.44699069183E-01 -0.45686019502E-01 -0.11433887948E+00  0.13838055681E+00  0.44615916210E-01 0.  0.
         14    1    1    2    0    0  0.31857958527E-02 -0.78647590787E-02 -0.10868321021E-01  0.13788550773E-01  0.00000000000E+00 0.  1.
     999901    1    3    3    0    0 -0.47884865036E-01  0.53550778581E-01  0.12520720050E+00  0.89176089242E+00  0.88000000000E+00 0. -1.
        -11    1    4    4    0    0  0.73634362474E-02 -0.38941288565E-01 -0.65130134489E-01  0.76241981139E-01  0.51100000000E-03 0.  1.
         11    1    4    4    0    0  0.37335632936E-01 -0.67447309373E-02 -0.49208744989E-01  0.62138575672E-01  0.51100000000E-03 0. -1.
</event>
<event>
 8    1  0.2928569E+004  0.1043930E+01  0.7957747E-01            NaN
         13   -1    0    0    0    0  0.00000000000E+00  0.00000000000E+00  0.74505805969E-08  0.10566000000E+00  0.10566000000E+00 0.  1.
     999900   -1    0    0    0    0 -0.00000000000E+00 -0.00000000000E+00 -0.74505805969E-08  0.93827000000E+00  0.93827000000E+00 0. -1.
     999902    2    1    2    0    0  0.11889143639E-01 -0.36137297909E-02 -0.64839332927E-02  0.10299138604E+01  0.10298184828E+01 0.  0.
     999903    2    3    3    0    0 -0.54173192044E-01 -0.11609947868E+00  0.32379332494E-01  0.13944902145E+00  0.44539698303E-01 0.  0.
         14    1    1    2    0    0 -0.11889143639E-01  0.36137297909E-02  0.64839332927E-02  0.14016139640E-01  0.00000000000E+00 0.  1.
     999901    1    3    3    0    0  0.66062335683E-01  0.11248574889E+00 -0.38863265786E-01  0.89046483891E+00  0.88000000000E+00 0. -1.
        -11    1    4    4    0    0 -0.40348257689E-01 -0.11263355471E+00  0.21613823207E-01  0.12158008892E+00  0.51100000000E-03 0.  1.
         11    1    4    4    0    0 -0.13824934355E-01 -0.34659239702E-02  0.10765509286E-01  0.17868932539E-01  0.51100000000E-03 0. -1.
</event>
<event>
 8    1  0.2928569E+004  0.1043930E+01  0.7957747E-01            NaN
         13   -1    0    0    0    0  0.00000000000E+00  0.00000000000E+00  0.74505805969E-08  0.10566000000E+00  0.10566000000E+00 0. -1.
     999900   -1    0    0    0    0 -0.00000000000E+00 -0.00000000000E+00 -0.74505805969E-08  0.93827000000E+00  0.93827000000E+00 0.  1.
     999902    2    1    2    0    0 -0.84247708462E-02 -0.10443741336E-01 -0.35609640172E-02  0.10300473143E+01  0.10299537566E+01 0.  0.
     999903    2    3    3    0    0  0.11214703348E+00  0.20698792770E-01 -0.63884768448E-01  0.13923511256E+00  0.47955769101E-01 0.  0.
         14    1    1    2    0    0  0.84247708462E-02  0.10443741336E-01  0.35609640172E-02  0.13882685678E-01  0.00000000000E+00 0.  1.
     999901    1    3    3    0    0 -0.12057180432E+00 -0.31142534107E-01  0.60323804430E-01  0.89081220176E+00  0.88000000000E+00 0. -1.
        -11    1    4    4    0    0  0.26143271409E-01  0.56928188831E-02 -0.41034975395E-01  0.48989888278E-01  0.51100000000E-03 0.  1.
         11    1    4    4    0    0  0.86003762067E-01  0.15005973887E-01 -0.22849793052E-01  0.90245224281E-01  0.51100000000E-03 0. -1.
</event>
<event>
 7    1  0.2928569E+004  0.1043930E+01  0.7957747E-01            NaN
         13   -1    0    0    0    0  0.00000000000E+00  0.00000000000E+00  0.74505805969E-08  0.10566000000E+00  0.10566000000E+00 0.  1.
     999900   -1    0    0    0    0 -0.00000000000E+00 -0.00000000000E+00 -0.74505805969E-08  0.93827000000E+00  0.93827000000E+00 0. -1.
     999903    2    1    2    0    0 -0.58053628191E-01 -0.24264975133E-01  0.92091771707E-01  0.12044804030E+00  0.45473324397E-01 0.  0.
         14    1    1    2    0    0 -0.53070331855E-02 -0.34230970996E-01 -0.22114965709E-02  0.34710440701E-01  0.00000000000E+00 0. -1.
     999901    1    1    2    0    0  0.63360661376E-01  0.58495946129E-01 -0.89880275137E-01  0.88877151900E+00  0.88000000000E+00 0. -1.
        -11    1    3    3    0    0 -0.62400098568E-01 -0.11752949637E-01  0.68624474965E-01  0.93495902646E-01  0.51100000000E-03 0.  1.
         11    1    3    3    0    0  0.43464703767E-02 -0.12512025496E-01  0.23467296742E-01  0.26952137654E-01  0.51100000000E-03 0. -1.
</event>
<event>
 8    1  0.2928569E+004  0.1043930E+01  0.7957747E-01            NaN
         13   -1    0    0    0    0  0.00000000000E+00  0.00000000000E+00  0.74505805969E-08  0.10566000000E+00  0.10566000000E+00 0.  1.
     999900   -1    0    0    0    0 -0.00000000000E+00 -0.00000000000E+00 -0.74505805969E-08  0.93827000000E+00  0.93827000000E+00 0.  1.
     999902    2    1    2    0    0  0.80218239127E-02 -0.87776217068E-02 -0.67511775841E-02  0.10302561307E+01  0.10301653849E+01 0.  0.
     999903    2    3    3    0    0  0.11049055595E+00 -0.30908827862E-01  0.68429056937E-01  0.14085088059E+00  0.44642089302E-01 0.  0.
         14    1    1    2    0    0 -0.80218239127E-02  0.87776217068E-02  0.67511775841E-02  0.13673869258E-01  0.00000000000E+00 0.  1.
     999901    1    3    3    0    0 -0.10246873203E+00  0.22131206155E-01 -0.75180234521E-01  0.88940525015E+00  0.88000000000E+00 0. -1.
        -11    1    4    4    0    0  0.57302462843E-01 -0.27350208042E-01  0.59073257087E-01  0.86726679584E-01  0.51100000000E-03 0. -1.
         11    1    4    4    0    0  0.53188093103E-01 -0.35586198200E-02  0.93557998507E-02  0.54124201009E-01  0.51100000000E-03 0.  1.
</event>
