<event>
 8    1  0.1060404E+005  0.1043930E+01  0.7957747E-01            NaN
         13   -1    0    0    0    0  0.00000000000E+00  0.00000000000E+00  0.74505805969E-08  0.10566000000E+00  0.10566000000E+00 0.  1.
     999900   -1    0    0    0    0 -0.00000000000E+00 -0.00000000000E+00 -0.74505805969E-08  0.93827000000E+00  0.93827000000E+00 0.  1.
     999902    2    1    2    0    0  0.39765689599E-02 -0.16842636661E-01  0.15190824560E-01  0.10209028712E+01  0.10206431422E+01 0.  0.
     999903    2    3    3    0    0  0.61830204688E-01  0.10431791040E+00  0.43914818037E-01  0.13025592142E+00  0.18245360527E-01 0.  0.
         14    1    1    2    0    0 -0.39765689599E-02  0.16842636661E-01 -0.15190824560E-01  0.23027128809E-01  0.00000000000E+00 0. -1.
     999901    1    3    3    0    0 -0.57853635728E-01 -0.12116054706E+00 -0.28723993477E-01  0.89064694977E+00  0.88000000000E+00 0.  1.
        -11    1    4    4    0    0  0.23548047909E-01  0.25365284276E-01  0.16355481156E-01  0.38284084050E-01  0.51100000000E-03 0.  1.
         11    1    4    4    0    0  0.38282156779E-01  0.78952626123E-01  0.27559336881E-01  0.91971837372E-01  0.51100000000E-03 0. -1.
</event>
<event>
 8    1  0.1060404E+005  0.1043930E+01  0.7957747E-01            NaN
         13   -1    0    0    0    0  0.00000000000E+00  0.00000000000E+00  0.74505805969E-08  0.10566000000E+00  0.10566000000E+00 0. -1.
     999900   -1    0    0    0    0 -0.00000000000E+00 -0.00000000000E+00 -0.74505805969E-08  0.93827000000E+00  0.93827000000E+00 0. -1.
     999902    2    1    2    0    0  0.20581203849E-01  0.36763197542E-02 -0.12808547602E-01  0.10194114321E+01  0.10191165330E+01 0.  0.
     999903    2    3    3    0    0  0.77668880226E-01 -0.77295709696E-01  0.67620326536E-01  0.13020713831E+00  0.19347056968E-01 0.  0.
         14    1    1    2    0    0 -0.20581203849E-01 -0.36763197542E-02  0.12808547602E-01  0.24518567872E-01  0.00000000000E+00 0. -1.
     999901    1    3    3    0    0 -0.57087676376E-01  0.80972029450E-01 -0.80428874138E-01  0.88920429382E+00  0.88000000000E+00 0. -1.
        -11    1    4    4    0    0  0.41525187428E-01 -0.28915227867E-01  0.26281915765E-01  0.57021327684E-01  0.51100000000E-03 0. -1.
         11    1    4    4    0    0  0.36143692797E-01 -0.48380481829E-01  0.41338410771E-01  0.73185810627E-01  0.51100000000E-03 0.  1.
</event>
<event>
 8    1  0.1060404E+005  0.1043930E+01  0.7957747E-01            NaN
         13   -1    0    0    0    0  0.00000000000E+00  0.00000000000E+00  0.74505805969E-08  0.10566000000E+00  0.10566000000E+00 0.  1.
     999900   -1    0    0    0    0 -0.00000000000E+00 -0.00000000000E+00 -0.74505805969E-08  0.93827000000E+00  0.93827000000E+00 0. -1.
     999902    2    1    2    0    0  0.63695032521E-02 -0.17765632337E-02 -0.23027007041E-01  0.10199723331E+01  0.10196909289E+01 0.  0.
     999903    2    3    3    0    0  0.11740265297E+00  0.23390326788E-01 -0.52228759949E-01  0.13215789584E+00  0.20183551588E-01 0.  0.
         14    1    1    2    0    0 -0.63695032521E-02  0.17765632337E-02  0.23027007041E-01  0.23957666871E-01  0.00000000000E+00 0.  1.
     999901    1    3    3    0    0 -0.11103314972E+00 -0.25166890022E-01  0.29201752908E-01  0.88781443729E+00  0.88000000000E+00 0.  1.
        -11    1    4    4    0    0  0.60382492839E-01  0.37653964732E-02 -0.32677790705E-01  0.68762800833E-01  0.51100000000E-03 0.  1.
         11    1    4    4    0    0  0.57020160132E-01  0.19624930315E-01 -0.19550969244E-01  0.63395095006E-01  0.51100000000E-03 0. -1.
</event>
<event>
 8    1  0.1060404E+005  0.1043930E+01  0.7957747E-01            NaN
         13   -1    0    0    0    0  0.00000000000E+00  0.00000000000E+00  0.74505805969E-08  0.10566000000E+00  0.10566000000E+00 0.  1.
     999900   -1    0    0    0    0 -0.00000000000E+00 -0.00000000000E+00 -0.74505805969E-08  0.93827000000E+00  0.93827000000E+00 0. -1.
     999902    2    1    2    0    0  0.14371236374E-01  0.58657491522E-02 -0.20998935821E-01  0.10178168854E+01  0.10174818512E+01 0.  0.
     999903    2    3    3    0    0  0.11209922674E+00  0.57949939840E-01  0.23120597353E-01  0.12977969237E+00  0.19590159936E-01 0.  0.
         14    1    1    2    0    0 -0.14371236374E-01 -0.58657491522E-02  0.20998935821E-01  0.26113114591E-01  0.00000000000E+00 0.  1.
     999901    1    3    3    0    0 -0.97727990362E-01 -0.52084190688E-01 -0.44119533174E-01  0.88803719304E+00  0.88000000000E+00 0. -1.
        -11    1    4    4    0    0  0.67682595154E-01  0.31893684080E-01  0.42840564774E-02  0.74945013389E-01  0.51100000000E-03 0. -1.
         11    1    4    4    0    0  0.44416631582E-01  0.26056255760E-01  0.18836540876E-01  0.54834678977E-01  0.51100000000E-03 0.  1.
</event>
<event>
 8    1  0.1060404E+005  0.1043930E+01  0.7957747E-01            NaN
         13   -1    0    0    0    0  0.00000000000E+00  0.00000000000E+00  0.74505805969E-08  0.10566000000E+00  0.10566000000E+00 0. -1.
     999900   -1    0    0    0    0 -0.00000000000E+00 -0.00000000000E+00 -0.74505805969E-08  0.93827000000E+00  0.93827000000E+00 0.  1.
     999902    2    1    2    0    0  0.46835327826E-02  0.18657206231E-01  0.13326726581E-01  0.10205285371E+01  0.10202601955E+01 0.  0.
     999903    2    3    3    0    0  0.75792941008E-01  0.10290418072E+00  0.32691971247E-01  0.13343828616E+00  0.20079116316E-01 0.  0.
         14    1    1    2    0    0 -0.46835327826E-02 -0.18657206231E-01 -0.13326726581E-01  0.23401462882E-01  0.00000000000E+00 0. -1.
     999901    1    3    3    0    0 -0.71109408225E-01 -0.84246974490E-01 -0.19365244665E-01  0.88709025096E+00  0.88000000000E+00 0. -1.
        -11    1    4    4    0    0  0.54707359990E-01  0.72760171190E-01  0.13777745724E-01  0.92070761628E-01  0.51100000000E-03 0.  1.
         11    1    4    4    0    0  0.21085581018E-01  0.30144009531E-01  0.18914225523E-01  0.41367524529E-01  0.51100000000E-03 0. -1.
</event>
<event>
 8    1  0.1060404E+005  0.1043930E+01  0.7957747E-01            NaN
         13   -1    0    0    0    0  0.00000000000E+00  0.00000000000E+00  0.74505805969E-08  0.10566000000E+00  0.10566000000E+00 0.  1.
     999900   -1    0    0    0    0 -0.00000000000E+00 -0.00000000000E+00 -0.74505805969E-08  0.93827000000E+00  0.93827000000E+00 0.  1.
     999902    2    1    2    0    0  0.34163616754E-02  0.31661707330E-01  0.16560734128E-02  0.10120414783E+01  0.10115389641E+01 0.  0.
     999903    2    3    3    0    0 -0.11796505329E+00  0.10654745621E-01 -0.27298378029E-01  0.12298967968E+00  0.18761195650E-01 0.  0.
         14    1    1    2    0    0 -0.34163616754E-02 -0.31661707330E-01 -0.16560734128E-02  0.31888521717E-01  0.00000000000E+00 0.  1.
     999901    1    3    3    0    0  0.12138141497E+00  0.21006961710E-01  0.28954451442E-01  0.88905179860E+00  0.88000000000E+00 0. -1.
        -11    1    4    4    0    0 -0.11014484074E+00  0.61111414760E-02 -0.21975959047E-01  0.11248304712E+00  0.51100000000E-03 0.  1.
         11    1    4    4    0    0 -0.78202125534E-02  0.45436041446E-02 -0.53224189817E-02  0.10506632563E-01  0.51100000000E-03 0. -1.
</event>
<event>
 8    1  0.1060404E+005  0.1043930E+01  0.7957747E-01            NaN
         13   -1    0    0    0    0  0.00000000000E+00  0.00000000000E+00  0.74505805969E-08  0.10566000000E+00  0.10566000000E+00 0. -1.
     999900   -1    0    0    0    0 -0.00000000000E+00 -0.00000000000E+00 -0.74505805969E-08  0.93827000000E+00  0.93827000000E+00 0. -1.
     999902    2    1    2    0    0 -0.13413787409E-01  0.17374114904E-01 -0.89284615933E-02  0.10202338613E+01  0.10199586388E+01 0.  0.
     999903    2    3    3    0    0 -0.10928627143E+00  0.72655501830E-01 -0.12248605312E-01  0.13329610236E+00  0.19887470987E-01 0.  0.
         14    1    1    2    0    0  0.13413787409E-01 -0.17374114904E-01  0.89284615933E-02  0.23696138668E-01  0.00000000000E+00 0.  1.
     999901    1    3    3    0    0  0.95872484025E-01 -0.55281386926E-01  0.33201437192E-02  0.88693775897E+00  0.88000000000E+00 0.  1.
        -11    1    4    4    0    0 -0.83991190513E-01  0.48697064685E-01 -0.25276390467E-02  0.97121440851E-01  0.51100000000E-03 0. -1.
         11    1    4    4    0    0 -0.25295080922E-01  0.23958437145E-01 -0.97209662657E-02  0.36174661511E-01  0.51100000000E-03 0.  1.
</event>
<event>
 8    1  0.1060404E+005  0.1043930E+01  0.7957747E-01            NaN
         13   -1    0    0    0    0  0.00000000000E+00  0.00000000000E+00  0.74505805969E-08  0.10566000000E+00  0.10566000000E+00 0.  1.
     999900   -1    0    0    0    0 -0.00000000000E+00 -0.00000000000E+00 -0.74505805969E-08  0.93827000000E+00  0.93827000000E+00 0. -1.
     999902    2    1    2    0    0 -0.18164386844E-02  0.14435702310E-01 -0.17854412342E-01  0.10208980876E+01  0.10206382494E+01 0.  0.
     999903    2    3    3    0    0 -0.13566909485E-01 -0.98223586583E-01  0.78806839998E-01  0.12838837521E+00  0.21002925117E-01 0.  0.
         14    1    1    2    0    0  0.18164386844E-02 -0.14435702310E-01  0.17854412342E-01  0.23031912442E-01  0.00000000000E+00 0.  1.
     999901    1    3    3    0    0  0.11750470801E-01  0.11265928889E+00 -0.96661252340E-01  0.89250971235E+00  0.88000000000E+00 0. -1.
        -11    1    4    4    0    0 -0.89448096640E-02 -0.31738295712E-01  0.37675985089E-01  0.50070650166E-01  0.51100000000E-03 0.  1.
         11    1    4    4    0    0 -0.46220998211E-02 -0.66485290870E-01  0.41130854909E-01  0.78317725040E-01  0.51100000000E-03 0. -1.
</event>
<event>
 7    1  0.1230664E+005  0.1043930E+01  0.7957747E-01            NaN
         13   -1    0    0    0    0  0.00000000000E+00  0.00000000000E+00  0.74505805969E-08  0.10566000000E+00  0.10566000000E+00 0.  1.
     999900   -1    0    0    0    0 -0.00000000000E+00 -0.00000000000E+00 -0.74505805969E-08  0.93827000000E+00  0.93827000000E+00 0. -1.
     999903    2    1    2    0    0  0.94482227554E-02 -0.78940552079E-01 -0.27978404118E-01  0.86353829505E-01  0.18796624628E-01 0.  0.
         14    1    1    2    0    0  0.68196819298E-01 -0.11374720813E-01  0.28225581993E-02  0.69196511984E-01  0.00000000000E+00 0.  1.
     999901    1    1    2    0    0 -0.77645042053E-01  0.90315272892E-01  0.25155845919E-01  0.88837965851E+00  0.88000000000E+00 0. -1.
        -11    1    3    3    0    0 -0.22946587813E-02 -0.53000677333E-01 -0.15578549388E-01  0.55292762444E-01  0.51100000000E-03 0. -1.
         11    1    3    3    0    0  0.11742881537E-01 -0.25939874746E-01 -0.12399854730E-01  0.31061067060E-01  0.51100000000E-03 0.  1.
</event>
<event>
 8    1  0.1060404E+005  0.1043930E+01  0.7957747E-01            NaN
         13   -1    0    0    0    0  0.00000000000E+00  0.00000000000E+00  0.74505805969E-08  0.10566000000E+00  0.10566000000E+00 0.  1.
     999900   -1    0    0    0    0 -0.00000000000E+00 -0.00000000000E+00 -0.74505805969E-08  0.93827000000E+00  0.93827000000E+00 0.  1.
     999902    2    1    2    0    0 -0.21016785234E-01 -0.76634631834E-02  0.26915162694E-02  0.10213982848E+01  0.10211497334E+01 0.  0.
     999903    2    3    3    0    0  0.98372174973E-01  0.50340819128E-01 -0.63540292352E-01  0.12898309385E+00  0.19697382245E-01 0.  0.
         14    1    1    2    0    0  0.21016785234E-01  0.76634631834E-02 -0.26915162694E-02  0.22531715189E-01  0.00000000000E+00 0. -1.
     999901    1    3    3    0    0 -0.11938896021E+00 -0.58004282312E-01  0.66231808622E-01  0.89241519096E+00  0.88000000000E+00 0. -1.
        -11    1    4    4    0    0  0.34009840870E-01  0.28040331248E-01 -0.26786281246E-01  0.51581929360E-01  0.51100000000E-03 0. -1.
         11    1    4    4    0    0  0.64362334103E-01  0.22300487880E-01 -0.36754011107E-01  0.77401164490E-01  0.51100000000E-03 0.  1.
</event>
<event>
 8    1  0.1060404E+005  0.1043930E+01  0.7957747E-01            NaN
         13   -1    0    0    0    0  0.00000000000E+00  0.00000000000E+00  0.74505805969E-08  0.10566000000E+00  0.10566000000E+00 0.  1.
     999900   -1    0    0    0    0 -0.00000000000E+00 -0.00000000000E+00 -0.74505805969E-08  0.93827000000E+00  0.93827000000E+00 0.  1.
     999902    2    1    2    0    0  0.17049379369E-01  0.30413515655E-02  0.16444627322E-01  0.10200478534E+01  0.10197682415E+01 0.  0.
     999903    2    3    3    0    0  0.32448566889E-01 -0.11907108722E+00  0.39860553064E-01  0.13117390948E+00  0.19669711065E-01 0.  0.
         14    1    1    2    0    0 -0.17049379369E-01 -0.30413515655E-02 -0.16444627322E-01  0.23882146552E-01  0.00000000000E+00 0.  1.
     999901    1    3    3    0    0 -0.15399187520E-01  0.12211243879E+00 -0.23415925742E-01  0.88887394397E+00  0.88000000000E+00 0.  1.
        -11    1    4    4    0    0  0.33943638913E-01 -0.98427508676E-01  0.30827303708E-01  0.10858512265E+00  0.51100000000E-03 0.  1.
         11    1    4    4    0    0 -0.14950720240E-02 -0.20643578544E-01  0.90332493557E-02  0.22588786828E-01  0.51100000000E-03 0. -1.
</event>
<event>
 8    1  0.1060404E+005  0.1043930E+01  0.7957747E-01            NaN
         13   -1    0    0    0    0  0.00000000000E+00  0.00000000000E+00  0.74505805969E-08  0.10566000000E+00  0.10566000000E+00 0.  1.
     999900   -1    0    0    0    0 -0.00000000000E+00 -0.00000000000E+00 -0.74505805969E-08  0.93827000000E+00  0.93827000000E+00 0. -1.
     999902    2    1    2    0    0 -0.16471463501E-01 -0.15451065052E-01 -0.64269811843E-02  0.10204491438E+01  0.10201789571E+01 0.  0.
     999903    2    3    3    0    0 -0.11464739891E+00  0.55772705365E-01 -0.26653743981E-01  0.13189950438E+00  0.20795106303E-01 0.  0.
         14    1    1    2    0    0  0.16471463501E-01  0.15451065052E-01  0.64269811843E-02  0.23480856208E-01  0.00000000000E+00 0. -1.
     999901    1    3    3    0    0  0.98175935412E-01 -0.71223770417E-01  0.20226762797E-01  0.88854963941E+00  0.88000000000E+00 0.  1.
        -11    1    4    4    0    0 -0.25964361317E-01  0.34272592526E-02 -0.50260090274E-02  0.26672383702E-01  0.51100000000E-03 0. -1.
         11    1    4    4    0    0 -0.88683037596E-01  0.52345446112E-01 -0.21627734954E-01  0.10522712068E+00  0.51100000000E-03 0.  1.
</event>
<event>
 8    1  0.1060404E+005  0.1043930E+01  0.7957747E-01            NaN
         13   -1    0    0    0    0  0.00000000000E+00  0.00000000000E+00  0.74505805969E-08  0.10566000000E+00  0.10566000000E+00 0. -1.
     999900   -1    0    0    0    0 -0.00000000000E+00 -0.00000000000E+00 -0.74505805969E-08  0.93827000000E+00  0.93827000000E+00 0.  1.
     999902    2    1    2    0    0 -0.19703312377E-01  0.10284179374E-01 -0.74115202447E-02  0.10205010543E+01  0.10202320747E+01 0.  0.
     999903    2    3    3    0    0 -0.92389012633E-01 -0.19484409317E-01  0.89731660329E-01  0.13167813751E+00  0.19287020769E-01 0.  0.
         14    1    1    2    0    0  0.19703312377E-01 -0.10284179374E-01  0.74115202447E-02  0.23428945694E-01  0.00000000000E+00 0.  1.
     999901    1    3    3    0    0  0.72685700256E-01  0.29768588691E-01 -0.97143180573E-01  0.88882291680E+00  0.88000000000E+00 0.  1.
        -11    1    4    4    0    0 -0.43782655816E-02  0.30675982679E-02  0.67945028534E-02  0.86605865079E-02  0.51100000000E-03 0. -1.
         11    1    4    4    0    0 -0.88010747052E-01 -0.22552007585E-01  0.82937157475E-01  0.12301755100E+00  0.51100000000E-03 0.  1.
</event>
<event>
 8    1  0.1060404E+005  0.1043930E+01  0.7957747E-01            NaN
         13   -1    0    0    0    0  0.00000000000E+00  0.00000000000E+00  0.74505805969E-08  0.10566000000E+00  0.10566000000E+00 0.  1.
     999900   -1    0    0    0    0 -0.00000000000E+00 -0.00000000000E+00 -0.74505805969E-08  0.93827000000E+00  0.93827000000E+00 0.  1.
     999902    2    1    2    0    0 -0.23228230882E-02 -0.60026606774E-02 -0.23929754010E-01  0.10191497545E+01  0.10188484487E+01 0.  0.
     999903    2    3    3    0    0  0.40571258057E-01  0.11905502760E+00 -0.22797246660E-01  0.12927301571E+00  0.19278785166E-01 0.  0.
         14    1    1    2    0    0  0.23228230882E-02  0.60026606774E-02  0.23929754010E-01  0.24780245545E-01  0.00000000000E+00 0.  1.
     999901    1    3    3    0    0 -0.42894081146E-01 -0.12505768828E+00 -0.11325073501E-02  0.88987673875E+00  0.88000000000E+00 0. -1.
        -11    1    4    4    0    0  0.25354807294E-01  0.48380869752E-01 -0.52336946441E-02  0.54874652541E-01  0.51100000000E-03 0.  1.
         11    1    4    4    0    0  0.15216450764E-01  0.70674157846E-01 -0.17563552016E-01  0.74398363165E-01  0.51100000000E-03 0. -1.
</event>
<event>
 8    1  0.1060404E+005  0.1043930E+01  0.7957747E-01            NaN
         13   -1    0    0    0    0  0.00000000000E+00  0.00000000000E+00  0.74505805969E-08  0.10566000000E+00  0.10566000000E+00 0.  1.
     999900   -1    0    0    0    0 -0.00000000000E+00 -0.00000000000E+00 -0.74505805969E-08  0.93827000000E+00  0.93827000000E+00 0.  1.
     999902    2    1    2    0    0 -0.20106280547E-01 -0.87514531563E-03 -0.12306578214E-01  0.10203401661E+01  0.10200674361E+01 0.  0.
     999903    2    3    3    0    0 -0.40595268393E-01  0.72822756413E-01 -0.10102281003E+00  0.13257795179E+00  0.20498182544E-01 0.  0.
         14    1    1    2    0    0  0.20106280547E-01  0.87514531563E-03  0.12306578214E-01  0.23589833914E-01  0.00000000000E+00 0. -1.
     999901    1    3    3    0    0  0.20488987846E-01 -0.73697901728E-01  0.88716231815E-01  0.88776221429E+00  0.88000000000E+00 0. -1.
        -11    1    4    4    0    0 -0.11036173913E-01  0.78709506147E-02 -0.24061653542E-01  0.27621971153E-01  0.51100000000E-03 0.  1.
         11    1    4    4    0    0 -0.29559094480E-01  0.64951805798E-01 -0.76961156487E-01  0.10495598064E+00  0.51100000000E-03 0. -1.
</event>
<event>
 8    1  0.1060404E+005  0.1043930E+01  0.7957747E-01            NaN
         13   -1    0    0    0    0  0.00000000000E+00  0.00000000000E+00  0.74505805969E-08  0.10566000000E+00  0.10566000000E+00 0.  1.
     999900   -1    0    0    0    0 -0.00000000000E+00 -0.00000000000E+00 -0.74505805969E-08  0.93827000000E+00  0.93827000000E+00 0. -1.
     999902    2    1    2    0    0 -0.11164331287E-01  0.69127724653E-02 -0.16868452927E-01  0.10225530634E+01  0.10223295916E+01 0.  0.
     999903    2    3    3    0    0  0.74871200794E-01 -0.98740085327E-01  0.35547480503E-01  0.13052611913E+00  0.20448551212E-01 0.  0.
         14    1    1    2    0    0  0.11164331287E-01 -0.69127724653E-02  0.16868452927E-01  0.21376936646E-01  0.00000000000E+00 0.  1.
     999901    1    3    3    0    0 -0.86035532081E-01  0.10565285779E+00 -0.52415933430E-01  0.89202694422E+00  0.88000000000E+00 0.  1.
        -11    1    4    4    0    0  0.19552978395E-01 -0.40733054000E-01  0.16781769653E-01  0.48201551490E-01  0.51100000000E-03 0.  1.
         11    1    4    4    0    0  0.55318222399E-01 -0.58007031327E-01  0.18765710850E-01  0.82324567642E-01  0.51100000000E-03 0. -1.
</event>
<event>
 8    1  0.1060404E+005  0.1043930E+01  0.7957747E-01            NaN
         13   -1    0    0    0    0  0.00000000000E+00  0.00000000000E+00  0.74505805969E-08  0.10566000000E+00  0.10566000000E+00 0.  1.
     999900   -1    0    0    0    0 -0.00000000000E+00 -0.00000000000E+00 -0.74505805969E-08  0.93827000000E+00  0.93827000000E+00 0.  1.
     999902    2    1    2    0    0  0.33527871638E-02 -0.76305379616E-02 -0.22231675962E-01  0.10201873441E+01  0.10199110272E+01 0.  0.
     999903    2    3    3    0    0  0.69941565861E-01 -0.84834955292E-01 -0.71195142838E-01  0.13294892714E+00  0.22756902026E-01 0.  0.
         14    1    1    2    0    0 -0.33527871638E-02  0.76305379616E-02  0.22231675962E-01  0.23742655863E-01  0.00000000000E+00 0.  1.
     999901    1    3    3    0    0 -0.66588778697E-01  0.77204417331E-01  0.48963466876E-01  0.88723841700E+00  0.88000000000E+00 0.  1.
        -11    1    4    4    0    0  0.41824668420E-01 -0.48928919696E-01 -0.28224238340E-01  0.70286633309E-01  0.51100000000E-03 0. -1.
         11    1    4    4    0    0  0.28116897441E-01 -0.35906035596E-01 -0.42970904498E-01  0.62662293832E-01  0.51100000000E-03 0.  1.
</event>
<event>
 8    1  0.1060404E+005  0.1043930E+01  0.7957747E-01            NaN
         13   -1    0    0    0    0  0.00000000000E+00  0.00000000000E+00  0.74505805969E-08  0.10566000000E+00  0.10566000000E+00 0.  1.
     999900   -1    0    0    0    0 -0.00000000000E+00 -0.00000000000E+00 -0.74505805969E-08  0.93827000000E+00  0.93827000000E+00 0.  1.
     999902    2    1    2    0    0  0.51243148779E-02  0.73712035201E-02 -0.20968388338E-01  0.10211206477E+01  0.10208658631E+01 0.  0.
     999903    2    3    3    0    0  0.39414737628E-01  0.31461369711E-01  0.11733307303E+00  0.12933397844E+00  0.20417850651E-01 0.  0.
         14    1    1    2    0    0 -0.51243148779E-02 -0.73712035201E-02  0.20968388338E-01  0.22809352331E-01  0.00000000000E+00 0.  1.
     999901    1    3    3    0    0 -0.34290422750E-01 -0.24090166191E-01 -0.13830146137E+00  0.89178666923E+00  0.88000000000E+00 0.  1.
        -11    1    4    4    0    0  0.23008982549E-01  0.89580487214E-02  0.38651763278E-01  0.45868069943E-01  0.51100000000E-03 0.  1.
         11    1    4    4    0    0  0.16405755079E-01  0.22503320990E-01  0.78681309754E-01  0.83465908495E-01  0.51100000000E-03 0. -1.
</event>
<event>
 8    1  0.1060404E+005  0.1043930E+01  0.7957747E-01            NaN
         13   -1    0    0    0    0  0.00000000000E+00  0.00000000000E+00  0.74505805969E-08  0.10566000000E+00  0.10566000000E+00 0. -1.
     999900   -1    0    0    0    0 -0.00000000000E+00 -0.00000000000E+00 -0.74505805969E-08  0.93827000000E+00  0.93827000000E+00 0.  1.
     999902    2    1    2    0    0 -0.49608749397E-02  0.22527140011E-01  0.92143990652E-02  0.10190907676E+01  0.10187880079E+01 0.  0.
     999903    2    3    3    0    0  0.73193368931E-01 -0.81503460295E-01  0.62884583670E-01  0.12790563510E+00  0.20131997696E-01 0.  0.
         14    1    1    2    0    0  0.49608749397E-02 -0.22527140011E-01 -0.92143990652E-02  0.24839232423E-01  0.00000000000E+00 0.  1.
     999901    1    3    3    0    0 -0.78154243870E-01  0.10403060031E+00 -0.53670184604E-01  0.89118513248E+00  0.88000000000E+00 0.  1.
        -11    1    4    4    0    0  0.57630910493E-01 -0.69198596348E-01  0.42938879127E-01  0.99768612512E-01  0.51100000000E-03 0.  1.
         11    1    4    4    0    0  0.15562458438E-01 -0.12304863947E-01  0.19945704542E-01  0.28137022587E-01  0.51100000000E-03 0. -1.
</event>
<event>
 8    1  0.1060404E+005  0.1043930E+01  0.7957747E-01            NaN
         13   -1    0    0    0    0  0.00000000000E+00  0.00000000000E+00  0.74505805969E-08  0.10566000000E+00  0.10566000000E+00 0.  1.
     999900   -1    0    0    0    0 -0.00000000000E+00 -0.00000000000E+00 -0.74505805969E-08  0.93827000000E+00  0.93827000000E+00 0. -1.
     999902    2    1    2    0    0  0.10285990931E-01 -0.17823013522E-01  0.13119190770E-01  0.10195256031E+01  0.10192334771E+01 0.  0.
     999903    2    3    3    0    0 -0.89091241355E-01  0.24249442194E-01  0.88866566229E-01  0.12970337890E+00  0.20010376625E-01 0.  0.
         14    1    1    2    0    0 -0.10285990931E-01  0.17823013522E-01 -0.13119190770E-01  0.24404396876E-01  0.00000000000E+00 0.  1.
     999901    1    3    3    0    0  0.99377232286E-01 -0.42072455716E-01 -0.75747375459E-01  0.88982222422E+00  0.88000000000E+00 0. -1.
        -11    1    4    4    0    0 -0.39673242948E-01  0.12533898526E-02  0.42331952021E-01  0.58032684541E-01  0.51100000000E-03 0. -1.
         11    1    4    4    0    0 -0.49417998407E-01  0.22996052342E-01  0.46534614208E-01  0.71670694362E-01  0.51100000000E-03 0.  1.
</event>
<event>
 8    1  0.1060404E+005  0.1043930E+01  0.7957747E-01            NaN
         13   -1    0    0    0    0  0.00000000000E+00  0.00000000000E+00  0.74505805969E-08  0.10566000000E+00  0.10566000000E+00 0.  1.
     999900   -1    0    0    0    0 -0.00000000000E+00 -0.00000000000E+00 -0.74505805969E-08  0.93827000000E+00  0.93827000000E+00 0. -1.
     999902    2    1    2    0    0  0.20269231930E-01  0.92924782520E-02 -0.66277234154E-02  0.10206680432E+01  0.10204029282E+01 0.  0.
     999903    2    3    3    0    0  0.68746562088E-01  0.82126176755E-01  0.75540762475E-01  0.13252027442E+00  0.19606571057E-01 0.  0.
         14    1    1    2    0    0 -0.20269231930E-01 -0.92924782520E-02  0.66277234154E-02  0.23261956770E-01  0.00000000000E+00 0.  1.
     999901    1    3    3    0    0 -0.48477330158E-01 -0.72833698503E-01 -0.82168485890E-01  0.88814776881E+00  0.88000000000E+00 0.  1.
        -11    1    4    4    0    0  0.68373712645E-01  0.74348996727E-01  0.68864559474E-01  0.12225108003E+00  0.51100000000E-03 0.  1.
         11    1    4    4    0    0  0.37284944362E-03  0.77771800279E-02  0.66762030004E-02  0.10269194389E-01  0.51100000000E-03 0. -1.
</event>
<event>
 8    1  0.1060404E+005  0.1043930E+01  0.7957747E-01            NaN
         13   -1    0    0    0    0  0.00000000000E+00  0.00000000000E+00  0.74505805969E-08  0.10566000000E+00  0.10566000000E+00 0. -1.
     999900   -1    0    0    0    0 -0.00000000000E+00 -0.00000000000E+00 -0.74505805969E-08  0.93827000000E+00  0.93827000000E+00 0. -1.
     999902    2    1    2    0    0  0.81197201983E-02 -0.48380949075E-02  0.20471292423E-01  0.10213820326E+01  0.10211331185E+01 0.  0.
     999903    2    3    3    0    0  0.59052574921E-01  0.59422704686E-01  0.10241492698E+00  0.13377943840E+00  0.19744782444E-01 0.  0.
         14    1    1    2    0    0 -0.81197201983E-02  0.48380949075E-02 -0.20471292423E-01  0.22547967357E-01  0.00000000000E+00 0.  1.
     999901    1    3    3    0    0 -0.50932854723E-01 -0.64260799594E-01 -0.81943634560E-01  0.88760259424E+00  0.88000000000E+00 0. -1.
        -11    1    4    4    0    0  0.51490023189E-02  0.92430703391E-02  0.23832450364E-01  0.26080517356E-01  0.51100000000E-03 0.  1.
         11    1    4    4    0    0  0.53903572602E-01  0.50179634347E-01  0.78582476619E-01  0.10769892105E+00  0.51100000000E-03 0. -1.
</event>
<event>
 8    1  0.1060404E+005  0.1043930E+01  0.7957747E-01            NaN
         13   -1    0    0    0    0  0.00000000000E+00  0.00000000000E+00  0.74505805969E-08  0.10566000000E+00  0.10566000000E+00 0.  1.
     999900   -1    0    0    0    0 -0.00000000000E+00 -0.00000000000E+00 -0.74505805969E-08  0.93827000000E+00  0.93827000000E+00 0. -1.
     999902    2    1    2    0    0 -0.86672309839E-03 -0.23675232324E-01  0.28445115192E-03  0.10202372005E+01  0.10199620564E+01 0.  0.
     999903    2    3    3    0    0  0.76832423363E-01  0.64830388959E-01  0.78425910893E-01  0.12895919110E+00  0.19329998876E-01 0.  0.
         14    1    1    2    0    0  0.86672309839E-03  0.23675232324E-01 -0.28445115192E-03  0.23692799475E-01  0.00000000000E+00 0. -1.
     999901    1    3    3    0    0 -0.77699146461E-01 -0.88505621283E-01 -0.78141459741E-01  0.89127800943E+00  0.88000000000E+00 0. -1.
        -11    1    4    4    0    0  0.28913191017E-01  0.23636136073E-01  0.41230008157E-01  0.55631054608E-01  0.51100000000E-03 0. -1.
         11    1    4    4    0    0  0.47919232346E-01  0.41194252887E-01  0.37195902736E-01  0.73328136488E-01  0.51100000000E-03 0.  1.
</event>
<event>
 8    1  0.1060404E+005  0.1043930E+01  0.7957747E-01            NaN
         13   -1    0    0    0    0  0.00000000000E+00  0.00000000000E+00  0.74505805969E-08  0.10566000000E+00  0.10566000000E+00 0. -1.
     999900   -1    0    0    0    0 -0.00000000000E+00 -0.00000000000E+00 -0.74505805969E-08  0.93827000000E+00  0.93827000000E+00 0. -1.
     999902    2    1    2    0    0 -0.19632788846E-01  0.11820188107E-01  0.43628394138E-02  0.10206019565E+01  0.10203353155E+01 0.  0.
     999903    2    3    3    0    0  0.46919563754E-01  0.53422036606E-01  0.10838520706E+00  0.13100621552E+00  0.18971450609E-01 0.  0.
         14    1    1    2    0    0  0.19632788846E-01 -0.11820188107E-01 -0.43628394138E-02  0.23328043478E-01  0.00000000000E+00 0.  1.
     999901    1    3    3    0    0 -0.66552352600E-01 -0.41601848499E-01 -0.10402236765E+00  0.88959574100E+00  0.88000000000E+00 0. -1.
        -11    1    4    4    0    0  0.27808538189E-01  0.43020771859E-01  0.68092359774E-01  0.85211103667E-01  0.51100000000E-03 0. -1.
         11    1    4    4    0    0  0.19111025565E-01  0.10401264747E-01  0.40292847285E-01  0.45795111855E-01  0.51100000000E-03 0.  1.
</event>
<event>
 8    1  0.1060404E+005  0.1043930E+01  0.7957747E-01            NaN
         13   -1    0    0    0    0  0.00000000000E+00  0.00000000000E+00  0.74505805969E-08  0.10566000000E+00  0.10566000000E+00 0. -1.
     999900   -1    0    0    0    0 -0.00000000000E+00 -0.00000000000E+00 -0.74505805969E-08  0.93827000000E+00  0.93827000000E+00 0. -1.
     999902    2    1    2    0    0 -0.18494702767E-01 -0.67985473280E-02  0.12339490781E-01  0.10206805417E+01  0.10204157148E+01 0.  0.
     999903    2    3    3    0    0  0.83870092868E-01  0.82604522976E-01  0.49965755421E-01  0.12945262693E+00  0.20092441620E-01 0.  0.
         14    1    1    2    0    0  0.18494702767E-01  0.67985473280E-02 -0.12339490781E-01  0.23249458250E-01  0.00000000000E+00 0.  1.
     999901    1    3    3    0    0 -0.10236479563E+00 -0.89403070304E-01 -0.37626264640E-01  0.89122791482E+00  0.88000000000E+00 0.  1.
        -11    1    4    4    0    0  0.39178876649E-02  0.27115974995E-02  0.71056229531E-02  0.85705077624E-02  0.51100000000E-03 0. -1.
         11    1    4    4    0    0  0.79952205203E-01  0.79892925477E-01  0.42860132468E-01  0.12088211917E+00  0.51100000000E-03 0.  1.
</event>
<event>
 8    1  0.1060404E+005  0.1043930E+01  0.7957747E-01            NaN
         13   -1    0    0    0    0  0.00000000000E+00  0.00000000000E+00  0.74505805969E-08  0.10566000000E+00  0.10566000000E+00 0.  1.
     999900   -1    0    0    0    0 -0.00000000000E+00 -0.00000000000E+00 -0.74505805969E-08  0.93827000000E+00  0.93827000000E+00 0. -1.
     999902    2    1    2    0    0  0.98605288177E-02  0.19763325989E-01  0.62062200506E-02  0.10209879807E+01  0.10207301898E+01 0.  0.
     999903    2    3    3    0    0  0.73225560985E-01 -0.99323154450E-01  0.36389927869E-01  0.13019744788E+00  0.20001919731E-01 0.  0.
         14    1    1    2    0    0 -0.98605288177E-02 -0.19763325989E-01 -0.62062200506E-02  0.22942019310E-01  0.00000000000E+00 0.  1.
     999901    1    3    3    0    0 -0.63365032167E-01  0.11908648044E+00 -0.30183707819E-01  0.89079053281E+00  0.88000000000E+00 0. -1.
        -11    1    4    4    0    0  0.46632059158E-01 -0.46708355810E-01  0.21041870249E-01  0.69276553525E-01  0.51100000000E-03 0.  1.
         11    1    4    4    0    0  0.26593501827E-01 -0.52614798641E-01  0.15348057620E-01  0.60920894356E-01  0.51100000000E-03 0. -1.
</event>
<event>
 8    1  0.1060404E+005  0.1043930E+01  0.7957747E-01            NaN
         13   -1    0    0    0    0  0.00000000000E+00  0.00000000000E+00  0.74505805969E-08  0.10566000000E+00  0.10566000000E+00 0.  1.
     999900   -1    0    0    0    0 -0.00000000000E+00 -0.00000000000E+00 -0.74505805969E-08  0.93827000000E+00  0.93827000000E+00 0.  1.
     999902    2    1    2    0    0 -0.19005362280E-01 -0.14993388967E-01  0.89090671338E-04  0.10197222854E+01  0.10194349052E+01 0.  0.
     999903    2    3    3    0    0 -0.17410830323E-01 -0.12622539132E+00  0.29332021266E-01  0.13223693350E+00  0.19754814201E-01 0.  0.
         14    1    1    2    0    0  0.19005362280E-01  0.14993388967E-01 -0.89090671338E-04  0.24207714581E-01  0.00000000000E+00 0.  1.
     999901    1    3    3    0    0 -0.15945319566E-02  0.11123200235E+00 -0.29242930595E-01  0.88748535192E+00  0.88000000000E+00 0.  1.
        -11    1    4    4    0    0 -0.10630526421E-01 -0.35466704196E-01  0.14843782808E-02  0.37058868013E-01  0.51100000000E-03 0.  1.
         11    1    4    4    0    0 -0.67803039022E-02 -0.90758687122E-01  0.27847642985E-01  0.95178065488E-01  0.51100000000E-03 0. -1.
</event>
<event>
 8    1  0.1060404E+005  0.1043930E+01  0.7957747E-01            NaN
         13   -1    0    0    0    0  0.00000000000E+00  0.00000000000E+00  0.74505805969E-08  0.10566000000E+00  0.10566000000E+00 0. -1.
     999900   -1    0    0    0    0 -0.00000000000E+00 -0.00000000000E+00 -0.74505805969E-08  0.93827000000E+00  0.93827000000E+00 0. -1.
     999902    2    1    2    0    0 -0.17738009204E-01 -0.12717709011E-01 -0.96086826740E-02  0.10200824870E+01  0.10198036950E+01 0.  0.
     999903    2    3    3    0    0  0.11439454786E+00  0.53215554613E-01  0.21242009111E-02  0.12770147621E+00  0.19625161483E-01 0.  0.
         14    1    1    2    0    0  0.17738009204E-01  0.12717709011E-01  0.96086826740E-02  0.23847512989E-01  0.00000000000E+00 0. -1.
     999901    1    3    3    0    0 -0.13213255706E+00 -0.65933263623E-01 -0.11732883585E-01  0.89238101080E+00  0.88000000000E+00 0.  1.
        -11    1    4    4    0    0  0.16255604735E-01  0.23283611892E-02  0.48134254616E-02  0.17120050724E-01  0.51100000000E-03 0. -1.
         11    1    4    4    0    0  0.98138943124E-01  0.50887193424E-01 -0.26892245505E-02  0.11058142548E+00  0.51100000000E-03 0.  1.
</event>
<event>
 8    1  0.1060404E+005  0.1043930E+01  0.7957747E-01            NaN
         13   -1    0    0    0    0  0.00000000000E+00  0.00000000000E+00  0.74505805969E-08  0.10566000000E+00  0.10566000000E+00 0.  1.
     999900   -1    0    0    0    0 -0.00000000000E+00 -0.00000000000E+00 -0.74505805969E-08  0.93827000000E+00  0.93827000000E+00 0. -1.
     999902    2    1    2    0    0 -0.17827774303E-02 -0.56769069526E-02  0.25091409708E-01  0.10181427084E+01  0.10178160886E+01 0.  0.
     999903    2    3    3    0    0  0.21607204823E-01 -0.12526268419E+00 -0.11090138420E-01  0.12901001085E+00  0.19052043997E-01 0.  0.
         14    1    1    2    0    0  0.17827774303E-02  0.56769069526E-02 -0.25091409708E-01  0.25787291619E-01  0.00000000000E+00 0. -1.
     999901    1    3    3    0    0 -0.23389982253E-01  0.11958577723E+00  0.36181548128E-01  0.88913269753E+00  0.88000000000E+00 0.  1.
        -11    1    4    4    0    0  0.45199341903E-02 -0.30903866499E-01 -0.10994123420E-01  0.33115111964E-01  0.51100000000E-03 0. -1.
         11    1    4    4    0    0  0.17087270633E-01 -0.94358817688E-01 -0.96015000132E-04  0.95894898889E-01  0.51100000000E-03 0.  1.
</event>
<event>
 8    1  0.1060404E+005  0.1043930E+01  0.7957747E-01            NaN
         13   -1    0    0    0    0  0.00000000000E+00  0.00000000000E+00  0.74505805969E-08  0.10566000000E+00  0.10566000000E+00 0. -1.
     999900   -1    0    0    0    0 -0.00000000000E+00 -0.00000000000E+00 -0.74505805969E-08  0.93827000000E+00  0.93827000000E+00 0. -1.
     999902    2    1    2    0    0 -0.40945069775E-02 -0.52518774641E-02 -0.22405088094E-01  0.10205561861E+01  0.10202884856E+01 0.  0.
     999903    2    3    3    0    0  0.27797337404E-01  0.89069357798E-01 -0.91508399375E-01  0.13224945258E+00  0.20250631773E-01 0.  0.
         14    1    1    2    0    0  0.40945069775E-02  0.52518774641E-02  0.22405088094E-01  0.23373813912E-01  0.00000000000E+00 0. -1.
     999901    1    3    3    0    0 -0.31891844381E-01 -0.94321235262E-01  0.69103311280E-01  0.88830673350E+00  0.88000000000E+00 0.  1.
        -11    1    4    4    0    0 -0.20221039406E-02  0.18738590947E-01 -0.14577775549E-01  0.23832674126E-01  0.51100000000E-03 0. -1.
         11    1    4    4    0    0  0.29819441345E-01  0.70330766851E-01 -0.76930623826E-01  0.10841677846E+00  0.51100000000E-03 0.  1.
</event>
<event>
 7    1  0.1060404E+005  0.1043930E+01  0.7957747E-01            NaN
         13   -1    0    0    0    0  0.00000000000E+00  0.00000000000E+00  0.74505805969E-08  0.10566000000E+00  0.10566000000E+00 0.  1.
     999900   -1    0    0    0    0 -0.00000000000E+00 -0.00000000000E+00 -0.74505805969E-08  0.93827000000E+00  0.93827000000E+00 0. -1.
     999903    2    1    2    0    0  0.51871689159E-01  0.41879428238E-01  0.55945286702E-01  0.89280337772E-01  0.19913436739E-01 0.  0.
         14    1    1    2    0    0  0.27242002372E-01 -0.13150750003E-01  0.55926256627E-01  0.63583135336E-01  0.00000000000E+00 0.  1.
     999901    1    1    2    0    0 -0.79113691531E-01 -0.28728678235E-01 -0.11187154333E+00  0.89106652689E+00  0.88000000000E+00 0. -1.
        -11    1    3    3    0    0  0.18387991509E-01  0.20148705001E-01  0.11694359599E-01  0.29683458565E-01  0.51100000000E-03 0.  1.
         11    1    3    3    0    0  0.33483697650E-01  0.21730723237E-01  0.44250927103E-01  0.59596879207E-01  0.51100000000E-03 0. -1.
</event>
<event>
 8    1  0.1060404E+005  0.1043930E+01  0.7957747E-01            NaN
         13   -1    0    0    0    0  0.00000000000E+00  0.00000000000E+00  0.74505805969E-08  0.10566000000E+00  0.10566000000E+00 0.  1.
     999900   -1    0    0    0    0 -0.00000000000E+00 -0.00000000000E+00 -0.74505805969E-08  0.93827000000E+00  0.93827000000E+00 0.  1.
     999902    2    1    2    0    0 -0.54944919924E-02  0.18528461064E-01  0.12695006465E-01  0.10208073596E+01  0.10205454467E+01 0.  0.
     999903    2    3    3    0    0 -0.12328543025E+00 -0.37923475518E-01 -0.96572232082E-02  0.13088536947E+00  0.20005766033E-01 0.  0.
         14    1    1    2    0    0  0.54944919924E-02 -0.18528461064E-01 -0.12695006465E-01  0.23122640437E-01  0.00000000000E+00 0. -1.
     999901    1    3    3    0    0  0.11779093826E+00  0.56451936582E-01  0.22352229673E-01  0.88992199009E+00  0.88000000000E+00 0. -1.
        -11    1    4    4    0    0 -0.62340997163E-01 -0.14781725461E-01  0.43005698092E-02  0.64215694006E-01  0.51100000000E-03 0.  1.
         11    1    4    4    0    0 -0.60944433084E-01 -0.23141750057E-01 -0.13957793017E-01  0.66669675464E-01  0.51100000000E-03 0. -1.
</event>
<event>
 8    1  0.1060404E+005  0.1043930E+01  0.7957747E-01            NaN
         13   -1    0    0    0    0  0.00000000000E+00  0.00000000000E+00  0.74505805969E-08  0.10566000000E+00  0.10566000000E+00 0.  1.
     999900   -1    0    0    0    0 -0.00000000000E+00 -0.00000000000E+00 -0.74505805969E-08  0.93827000000E+00  0.93827000000E+00 0. -1.
     999902    2    1    2    0    0 -0.61161642158E-02  0.19117792077E-01 -0.33429944714E-03  0.10238549111E+01  0.10236580825E+01 0.  0.
     999903    2    3    3    0    0  0.97708918796E-02  0.74812410550E-01 -0.11013359270E+00  0.13514226131E+00  0.21015600152E-01 0.  0.
         14    1    1    2    0    0  0.61161642158E-02 -0.19117792077E-01  0.33429944714E-03  0.20075088910E-01  0.00000000000E+00 0. -1.
     999901    1    3    3    0    0 -0.15887056095E-01 -0.55694618473E-01  0.10979929326E+00  0.88871264978E+00  0.88000000000E+00 0.  1.
        -11    1    4    4    0    0 -0.47402571265E-02  0.42344981480E-01 -0.64049292787E-01  0.76929451588E-01  0.51100000000E-03 0. -1.
         11    1    4    4    0    0  0.14511149006E-01  0.32467429070E-01 -0.46084299918E-01  0.58212809723E-01  0.51100000000E-03 0.  1.
</event>
<event>
 8    1  0.1060404E+005  0.1043930E+01  0.7957747E-01            NaN
         13   -1    0    0    0    0  0.00000000000E+00  0.00000000000E+00  0.74505805969E-08  0.10566000000E+00  0.10566000000E+00 0.  1.
     999900   -1    0    0    0    0 -0.00000000000E+00 -0.00000000000E+00 -0.74505805969E-08  0.93827000000E+00  0.93827000000E+00 0.  1.
     999902    2    1    2    0    0 -0.19187120525E-01  0.78184452780E-02 -0.15313501216E-02  0.10231545647E+01  0.10229436174E+01 0.  0.
     999903    2    3    3    0    0  0.95160013697E-01  0.87979488196E-01 -0.15036698362E-01  0.13204096116E+00  0.20319807467E-01 0.  0.
         14    1    1    2    0    0  0.19187120525E-01 -0.78184452780E-02  0.15313501216E-02  0.20775435346E-01  0.00000000000E+00 0. -1.
     999901    1    3    3    0    0 -0.11434713422E+00 -0.80161042918E-01  0.13505348241E-01  0.89111360350E+00  0.88000000000E+00 0. -1.
        -11    1    4    4    0    0  0.36678447967E-01  0.27809686430E-01 -0.14040867551E-01  0.48125817262E-01  0.51100000000E-03 0.  1.
         11    1    4    4    0    0  0.58481565731E-01  0.60169801766E-01 -0.99583081172E-03  0.83915143895E-01  0.51100000000E-03 0. -1.
</event>
<event>
 8    1  0.1060404E+005  0.1043930E+01  0.7957747E-01            NaN
         13   -1    0    0    0    0  0.00000000000E+00  0.00000000000E+00  0.74505805969E-08  0.10566000000E+00  0.10566000000E+00 0.  1.
     999900   -1    0    0    0    0 -0.00000000000E+00 -0.00000000000E+00 -0.74505805969E-08  0.93827000000E+00  0.93827000000E+00 0.  1.
     999902    2    1    2    0    0  0.11193059631E-01  0.19529570052E-01 -0.76864570044E-02  0.10201440732E+01  0.10198667363E+01 0.  0.
     999903    2    3    3    0    0  0.40643652418E-01 -0.79909236589E-01 -0.91181580194E-01  0.13012898951E+00  0.24126350112E-01 0.  0.
         14    1    1    2    0    0 -0.11193059631E-01 -0.19529570052E-01  0.76864570044E-02  0.23785926755E-01  0.00000000000E+00 0.  1.
     999901    1    3    3    0    0 -0.29450592788E-01  0.99438806641E-01  0.83495123190E-01  0.89001508374E+00  0.88000000000E+00 0.  1.
        -11    1    4    4    0    0  0.11075487091E-01 -0.16917955085E-01 -0.81869596584E-02  0.21821343863E-01  0.51100000000E-03 0. -1.
         11    1    4    4    0    0  0.29568165328E-01 -0.62991281504E-01 -0.82994620536E-01  0.10830764565E+00  0.51100000000E-03 0.  1.
</event>
<event>
 8    1  0.1060404E+005  0.1043930E+01  0.7957747E-01            NaN
         13   -1    0    0    0    0  0.00000000000E+00  0.00000000000E+00  0.74505805969E-08  0.10566000000E+00  0.10566000000E+00 0. -1.
     999900   -1    0    0    0    0 -0.00000000000E+00 -0.00000000000E+00 -0.74505805969E-08  0.93827000000E+00  0.93827000000E+00 0. -1.
     999902    2    1    2    0    0 -0.54403624395E-02  0.14348038602E-01  0.16347731124E-01  0.10215087586E+01  0.10212626654E+01 0.  0.
     999903    2    3    3    0    0  0.81621498719E-02 -0.84791436842E-01 -0.94618089574E-01  0.12891306212E+00  0.20243178035E-01 0.  0.
         14    1    1    2    0    0  0.54403624395E-02 -0.14348038602E-01 -0.16347731124E-01  0.22421241449E-01  0.00000000000E+00 0.  1.
     999901    1    3    3    0    0 -0.13602512311E-01  0.99139475444E-01  0.11096582070E+00  0.89259569644E+00  0.88000000000E+00 0.  1.
        -11    1    4    4    0    0 -0.71866086553E-03 -0.36314932368E-01 -0.53820441769E-01  0.64932209723E-01  0.51100000000E-03 0.  1.
         11    1    4    4    0    0  0.88808107375E-02 -0.48476504474E-01 -0.40797647806E-01  0.63980852392E-01  0.51100000000E-03 0. -1.
</event>
<event>
 8    1  0.1060404E+005  0.1043930E+01  0.7957747E-01            NaN
         13   -1    0    0    0    0  0.00000000000E+00  0.00000000000E+00  0.74505805969E-08  0.10566000000E+00  0.10566000000E+00 0.  1.
     999900   -1    0    0    0    0 -0.00000000000E+00 -0.00000000000E+00 -0.74505805969E-08  0.93827000000E+00  0.93827000000E+00 0. -1.
     999902    2    1    2    0    0  0.15694649953E-01  0.18608244257E-01  0.58638517046E-02  0.10188905601E+01  0.10185828390E+01 0.  0.
     999903    2    3    3    0    0  0.12481839804E+00 -0.32439611515E-01 -0.51560711272E-02  0.13061396208E+00  0.20036495099E-01 0.  0.
         14    1    1    2    0    0 -0.15694649953E-01 -0.18608244257E-01 -0.58638517046E-02  0.25039439856E-01  0.00000000000E+00 0. -1.
     999901    1    3    3    0    0 -0.10912374809E+00  0.51047855771E-01  0.11019922832E-01  0.88827659807E+00  0.88000000000E+00 0.  1.
        -11    1    4    4    0    0  0.94397876640E-02 -0.64779046849E-02  0.36360187838E-02  0.12023085870E-01  0.51100000000E-03 0.  1.
         11    1    4    4    0    0  0.11537861037E+00 -0.25961706830E-01 -0.87920899110E-02  0.11859087621E+00  0.51100000000E-03 0. -1.
</event>
<event>
 8    1  0.1060404E+005  0.1043930E+01  0.7957747E-01            NaN
         13   -1    0    0    0    0  0.00000000000E+00  0.00000000000E+00  0.74505805969E-08  0.10566000000E+00  0.10566000000E+00 0.  1.
     999900   -1    0    0    0    0 -0.00000000000E+00 -0.00000000000E+00 -0.74505805969E-08  0.93827000000E+00  0.93827000000E+00 0.  1.
     999902    2    1    2    0    0  0.12605067414E-01  0.10837026224E-01 -0.18774564385E-01  0.10188538534E+01  0.10185452181E+01 0.  0.
     999903    2    3    3    0    0 -0.20758864318E-01  0.10388688827E+00 -0.75148156837E-01  0.13152673742E+00  0.20703168335E-01 0.  0.
         14    1    1    2    0    0 -0.12605067414E-01 -0.10837026224E-01  0.18774564385E-01  0.25076146629E-01  0.00000000000E+00 0.  1.
     999901    1    3    3    0    0  0.33363931732E-01 -0.93049862048E-01  0.56373592452E-01  0.88732711595E+00  0.88000000000E+00 0. -1.
        -11    1    4    4    0    0 -0.20232146663E-01  0.48880389781E-01 -0.35326397984E-01  0.63614839301E-01  0.51100000000E-03 0. -1.
         11    1    4    4    0    0 -0.52671765490E-03  0.55006498490E-01 -0.39821758853E-01  0.67911898124E-01  0.51100000000E-03 0.  1.
</event>
<event>
 8    1  0.1236109E+005  0.1043930E+01  0.7957747E-01            NaN
         13   -1    0    0    0    0  0.00000000000E+00  0.00000000000E+00  0.74505805969E-08  0.10566000000E+00  0.10566000000E+00 0.  1.
     999900   -1    0    0    0    0 -0.00000000000E+00 -0.00000000000E+00 -0.74505805969E-08  0.93827000000E+00  0.93827000000E+00 0. -1.
     999902    2    1    2    0    0  0.12943766350E-01  0.17675428867E-02 -0.19230885471E-01  0.10206815108E+01  0.10204167061E+01 0.  0.
     999903    2    3    3    0    0  0.10569021302E+00 -0.72993636429E-01  0.21079998589E-01  0.13174050898E+00  0.20315099777E-01 0.  0.
         14    1    1    2    0    0 -0.12943766350E-01 -0.17675428867E-02  0.19230885471E-01  0.23248489224E-01  0.00000000000E+00 0.  1.
     999901    1    3    3    0    0 -0.92746446667E-01  0.74761179316E-01 -0.40310884060E-01  0.88894100180E+00  0.88000000000E+00 0. -1.
        -11    1    4    4    0    0  0.27982951722E-01 -0.30541054953E-01  0.87194456222E-02  0.42333101442E-01  0.51100000000E-03 0.  1.
         11    1    4    4    0    0  0.77707261295E-01 -0.42452581476E-01  0.12360552966E-01  0.89407407537E-01  0.51100000000E-03 0. -1.
</event>
<event>
 8    1  0.1060404E+005  0.1043930E+01  0.7957747E-01            NaN
         13   -1    0    0    0    0  0.00000000000E+00  0.00000000000E+00  0.74505805969E-08  0.10566000000E+00  0.10566000000E+00 0.  1.
     999900   -1    0    0    0    0 -0.00000000000E+00 -0.00000000000E+00 -0.74505805969E-08  0.93827000000E+00  0.93827000000E+00 0.  1.
     999902    2    1    2    0    0 -0.34640855997E-02 -0.16012562060E-01  0.17043913779E-01  0.10202889969E+01  0.10200150686E+01 0.  0.
     999903    2    3    3    0    0  0.11686813398E+00  0.47300543055E-01 -0.19953997874E-01  0.12907788953E+00  0.19168657245E-01 0.  0.
         14    1    1    2    0    0  0.34640855997E-02  0.16012562060E-01 -0.17043913779E-01  0.23641003144E-01  0.00000000000E+00 0. -1.
     999901    1    3    3    0    0 -0.12033221958E+00 -0.63313105115E-01  0.36997911653E-01  0.89121110732E+00  0.88000000000E+00 0.  1.
        -11    1    4    4    0    0  0.70592434358E-01  0.18609734956E-01 -0.13538272648E-01  0.74250656368E-01  0.51100000000E-03 0. -1.
         11    1    4    4    0    0  0.46275699627E-01  0.28690808099E-01 -0.64157252258E-02  0.54827233165E-01  0.51100000000E-03 0.  1.
</event>
<event>
 8    1  0.1060404E+005  0.1043930E+01  0.7957747E-01            NaN
         13   -1    0    0    0    0  0.00000000000E+00  0.00000000000E+00  0.74505805969E-08  0.10566000000E+00  0.10566000000E+00 0. -1.
     999900   -1    0    0    0    0 -0.00000000000E+00 -0.00000000000E+00 -0.74505805969E-08  0.93827000000E+00  0.93827000000E+00 0. -1.
     999902    2    1    2    0    0 -0.23148283757E-01 -0.58550754338E-02  0.34273952423E-02  0.10198079771E+01  0.10195226521E+01 0.  0.
     999903    2    3    3    0    0  0.24374160082E-01 -0.83220982433E-01 -0.94411608689E-01  0.12974262171E+00  0.19994110013E-01 0.  0.
         14    1    1    2    0    0  0.23148283757E-01  0.58550754338E-02 -0.34273952423E-02  0.24122022871E-01  0.00000000000E+00 0.  1.
     999901    1    3    3    0    0 -0.47522443839E-01  0.77365906999E-01  0.97839003931E-01  0.89006535542E+00  0.88000000000E+00 0.  1.
        -11    1    4    4    0    0  0.45626627579E-02 -0.34796170323E-01 -0.26323445817E-01  0.43872272351E-01  0.51100000000E-03 0. -1.
         11    1    4    4    0    0  0.19811497324E-01 -0.48424812110E-01 -0.68088162872E-01  0.85870349355E-01  0.51100000000E-03 0.  1.
</event>
<event>
 8    1  0.1060404E+005  0.1043930E+01  0.7957747E-01            NaN
         13   -1    0    0    0    0  0.00000000000E+00  0.00000000000E+00  0.74505805969E-08  0.10566000000E+00  0.10566000000E+00 0. -1.
     999900   -1    0    0    0    0 -0.00000000000E+00 -0.00000000000E+00 -0.74505805969E-08  0.93827000000E+00  0.93827000000E+00 0.  1.
     999902    2    1    2    0    0  0.58609635652E-02 -0.18704247169E-01  0.68865133240E-02  0.10231544417E+01  0.10229434920E+01 0.  0.
     999903    2    3    3    0    0 -0.11527345897E+00 -0.32883443142E-01  0.54588849638E-01  0.13346342186E+00  0.21523273311E-01 0.  0.
         14    1    1    2    0    0 -0.58609635652E-02  0.18704247169E-01 -0.68865133240E-02  0.20775558280E-01  0.00000000000E+00 0.  1.
     999901    1    3    3    0    0  0.12113442254E+00  0.14179195973E-01 -0.47702336314E-01  0.88969101986E+00  0.88000000000E+00 0. -1.
        -11    1    4    4    0    0 -0.44966581602E-01 -0.23798781091E-01  0.23911142841E-01  0.56217251047E-01  0.51100000000E-03 0. -1.
         11    1    4    4    0    0 -0.70306877373E-01 -0.90846620510E-02  0.30677706797E-01  0.77246170817E-01  0.51100000000E-03 0.  1.
</event>
<event>
 8    1  0.1060404E+005  0.1043930E+01  0.7957747E-01            NaN
         13   -1    0    0    0    0  0.00000000000E+00  0.00000000000E+00  0.74505805969E-08  0.10566000000E+00  0.10566000000E+00 0.  1.
     999900   -1    0    0    0    0 -0.00000000000E+00 -0.00000000000E+00 -0.74505805969E-08  0.93827000000E+00  0.93827000000E+00 0.  1.
     999902    2    1    2    0    0 -0.11954486020E-01 -0.19757037534E-02 -0.18393938406E-01  0.10219038766E+01  0.10216664734E+01 0.  0.
     999903    2    3    3    0    0 -0.71073834146E-01 -0.65187772793E-01 -0.91707186308E-01  0.13462393471E+00  0.20309115024E-01 0.  0.
         14    1    1    2    0    0  0.11954486020E-01  0.19757037534E-02  0.18393938406E-01  0.22026123386E-01  0.00000000000E+00 0. -1.
     999901    1    3    3    0    0  0.59119348126E-01  0.63212069040E-01  0.73313247902E-01  0.88727994191E+00  0.88000000000E+00 0. -1.
        -11    1    4    4    0    0 -0.41227252050E-01 -0.34032128354E-01 -0.63797569108E-01  0.83236188146E-01  0.51100000000E-03 0. -1.
         11    1    4    4    0    0 -0.29846582097E-01 -0.31155644439E-01 -0.27909617200E-01  0.51387746560E-01  0.51100000000E-03 0.  1.
</event>
<event>
 7    1  0.1060404E+005  0.1043930E+01  0.7957747E-01            NaN
         13   -1    0    0    0    0  0.00000000000E+00  0.00000000000E+00  0.74505805969E-08  0.10566000000E+00  0.10566000000E+00 0. -1.
     999900   -1    0    0    0    0 -0.00000000000E+00 -0.00000000000E+00 -0.74505805969E-08  0.93827000000E+00  0.93827000000E+00 0.  1.
     999902    2    1    2    0    0 -0.99434534140E-03  0.23922523836E-01  0.48105668596E-02  0.10195083411E+01  0.10192157967E+01 0.  0.
         14    1    1    2    0    0  0.99434534140E-03 -0.23922523836E-01 -0.48105668596E-02  0.24421658888E-01  0.00000000000E+00 0.  1.
     999901    1    3    3    0    0 -0.62789252523E-02 -0.40892520254E-01  0.10829400586E+00  0.88760307279E+00  0.88000000000E+00 0. -1.
        -11    1    3    3    0    0  0.21979978439E-01  0.23598869252E-01 -0.67089089019E-01  0.74439459084E-01  0.51100000000E-03 0. -1.
         11    1    3    3    0    0 -0.16695398529E-01  0.41216174838E-01 -0.36394349980E-01  0.57465809242E-01  0.51100000000E-03 0.  1.
</event>
<event>
 8    1  0.1060404E+005  0.1043930E+01  0.7957747E-01            NaN
         13   -1    0    0    0    0  0.00000000000E+00  0.00000000000E+00  0.74505805969E-08  0.10566000000E+00  0.10566000000E+00 0. -1.
     999900   -1    0    0    0    0 -0.00000000000E+00 -0.00000000000E+00 -0.74505805969E-08  0.93827000000E+00  0.93827000000E+00 0.  1.
     999902    2    1    2    0    0 -0.24813171928E-01 -0.26553592089E-03  0.78021073333E-03  0.10191031448E+01  0.10188006905E+01 0.  0.
     999903    2    3    3    0    0  0.31380087815E-01 -0.11500743379E+00  0.45031978948E-01  0.12877646062E+00  0.18549338128E-01 0.  0.
         14    1    1    2    0    0  0.24813171928E-01  0.26553592089E-03 -0.78021073333E-03  0.24826855202E-01  0.00000000000E+00 0.  1.
     999901    1    3    3    0    0 -0.56193259743E-01  0.11474189786E+00 -0.44251768215E-01  0.89032668418E+00  0.88000000000E+00 0.  1.
        -11    1    4    4    0    0  0.85067057699E-02 -0.65191112859E-01  0.22198227991E-01  0.69392129855E-01  0.51100000000E-03 0. -1.
         11    1    4    4    0    0  0.22873382045E-01 -0.49816320927E-01  0.22833750957E-01  0.59384330767E-01  0.51100000000E-03 0.  1.
</event>
<event>
 8    1  0.1060404E+005  0.1043930E+01  0.7957747E-01            NaN
         13   -1    0    0    0    0  0.00000000000E+00  0.00000000000E+00  0.74505805969E-08  0.10566000000E+00  0.10566000000E+00 0.  1.
     999900   -1    0    0    0    0 -0.00000000000E+00 -0.00000000000E+00 -0.74505805969E-08  0.93827000000E+00  0.93827000000E+00 0.  1.
     999902    2    1    2    0    0 -0.12986494568E-01  0.91822583995E-03  0.19659328737E-01  0.10203507425E+01  0.10200782599E+01 0.  0.
     999903    2    3    3    0    0 -0.11851261720E-01  0.12785959805E+00 -0.13161146619E-01  0.13063585310E+00  0.20099281516E-01 0.  0.
         14    1    1    2    0    0  0.12986494568E-01 -0.91822583995E-03 -0.19659328737E-01  0.23579257543E-01  0.00000000000E+00 0. -1.
     999901    1    3    3    0    0 -0.11352328482E-02 -0.12694137221E+00  0.32820475357E-01  0.88971488935E+00  0.88000000000E+00 0. -1.
        -11    1    4    4    0    0 -0.43665569464E-02  0.80389412767E-01  0.10602217473E-02  0.80516518155E-01  0.51100000000E-03 0.  1.
         11    1    4    4    0    0 -0.74847047736E-02  0.47470185286E-01 -0.14221368367E-01  0.50119334950E-01  0.51100000000E-03 0. -1.
</event>
<event>
 8    1  0.1060404E+005  0.1043930E+01  0.7957747E-01            NaN
         13   -1    0    0    0    0  0.00000000000E+00  0.00000000000E+00  0.74505805969E-08  0.10566000000E+00  0.10566000000E+00 0. -1.
     999900   -1    0    0    0    0 -0.00000000000E+00 -0.00000000000E+00 -0.74505805969E-08  0.93827000000E+00  0.93827000000E+00 0.  1.
     999902    2    1    2    0    0 -0.18555141803E-01 -0.64128446030E-02 -0.15592756535E-01  0.10188590623E+01  0.10185505568E+01 0.  0.
     999903    2    3    3    0    0  0.40885920401E-01  0.36243499998E-01  0.11243751530E+00  0.12658973401E+00  0.19937806585E-01 0.  0.
         14    1    1    2    0    0  0.18555141803E-01  0.64128446030E-02  0.15592756535E-01  0.25070937748E-01  0.00000000000E+00 0. -1.
     999901    1    3    3    0    0 -0.59441062204E-01 -0.42656344601E-01 -0.12803027183E+00  0.89226932824E+00  0.88000000000E+00 0.  1.
        -11    1    4    4    0    0  0.10730680593E-02  0.90243062971E-02  0.11059776819E-01  0.14323734272E-01  0.51100000000E-03 0.  1.
         11    1    4    4    0    0  0.39812852342E-01  0.27219193701E-01  0.10137773848E+00  0.11226599974E+00  0.51100000000E-03 0. -1.
</event>
<event>
 8    1  0.1060404E+005  0.1043930E+01  0.7957747E-01            NaN
         13   -1    0    0    0    0  0.00000000000E+00  0.00000000000E+00  0.74505805969E-08  0.10566000000E+00  0.10566000000E+00 0. -1.
     999900   -1    0    0    0    0 -0.00000000000E+00 -0.00000000000E+00 -0.74505805969E-08  0.93827000000E+00  0.93827000000E+00 0. -1.
     999902    2    1    2    0    0 -0.15051482678E-01 -0.19289939283E-01  0.17251938575E-02  0.10194019511E+01  0.10191068211E+01 0.  0.
     999903    2    3    3    0    0 -0.24084275066E-01 -0.11977133024E+00  0.47062445129E-01  0.13247829734E+00  0.20258372908E-01 0.  0.
         14    1    1    2    0    0  0.15051482678E-01  0.19289939283E-01 -0.17251938575E-02  0.24528048887E-01  0.00000000000E+00 0.  1.
     999901    1    3    3    0    0  0.90327923880E-02  0.10048139095E+00 -0.45337251272E-01  0.88692365377E+00  0.88000000000E+00 0. -1.
        -11    1    4    4    0    0  0.59593989655E-03 -0.23226941140E-01  0.15555523061E-01  0.27965717544E-01  0.51100000000E-03 0.  1.
         11    1    4    4    0    0 -0.24680214962E-01 -0.96544389097E-01  0.31506922069E-01  0.10451257980E+00  0.51100000000E-03 0. -1.
</event>
<event>
 8    1  0.1060404E+005  0.1043930E+01  0.7957747E-01            NaN
         13   -1    0    0    0    0  0.00000000000E+00  0.00000000000E+00  0.74505805969E-08  0.10566000000E+00  0.10566000000E+00 0. -1.
     999900   -1    0    0    0    0 -0.00000000000E+00 -0.00000000000E+00 -0.74505805969E-08  0.93827000000E+00  0.93827000000E+00 0.  1.
     999902    2    1    2    0    0  0.23119712317E-01 -0.33499018751E-02 -0.51788697383E-02  0.10200016981E+01  0.10197209915E+01 0.  0.
     999903    2    3    3    0    0  0.63142731315E-01 -0.55025578989E-01  0.99264320467E-01  0.13141821995E+00  0.20063009650E-01 0.  0.
         14    1    1    2    0    0 -0.23119712317E-01  0.33499018751E-02  0.51788697383E-02  0.23928301903E-01  0.00000000000E+00 0. -1.
     999901    1    3    3    0    0 -0.40023018998E-01  0.51675677114E-01 -0.10444319021E+00  0.88858347815E+00  0.88000000000E+00 0.  1.
        -11    1    4    4    0    0  0.62941873908E-01 -0.51566473233E-01  0.89084639100E-01  0.12065286858E+00  0.51100000000E-03 0. -1.
         11    1    4    4    0    0  0.20085740665E-03 -0.34591057559E-02  0.10179681367E-01  0.10765351367E-01  0.51100000000E-03 0.  1.
</event>
<event>
 8    1  0.1060404E+005  0.1043930E+01  0.7957747E-01            NaN
         13   -1    0    0    0    0  0.00000000000E+00  0.00000000000E+00  0.74505805969E-08  0.10566000000E+00  0.10566000000E+00 0. -1.
     999900   -1    0    0    0    0 -0.00000000000E+00 -0.00000000000E+00 -0.74505805969E-08  0.93827000000E+00  0.93827000000E+00 0. -1.
     999902    2    1    2    0    0 -0.20313374494E-01  0.12407494476E-01 -0.99863220204E-03  0.10201061387E+01  0.10198279060E+01 0.  0.
     999903    2    3    3    0    0  0.68567099256E-02 -0.12547476116E+00 -0.18738191148E-01  0.12877880157E+00  0.21022125674E-01 0.  0.
         14    1    1    2    0    0  0.20313374494E-01 -0.12407494476E-01  0.99863220204E-03  0.23823861332E-01  0.00000000000E+00 0.  1.
     999901    1    3    3    0    0 -0.27170084419E-01  0.13788225563E+00  0.17739558946E-01  0.89132733710E+00  0.88000000000E+00 0.  1.
        -11    1    4    4    0    0 -0.66471932624E-02 -0.46614892831E-01 -0.11288447088E-01  0.48423378347E-01  0.51100000000E-03 0. -1.
         11    1    4    4    0    0  0.13503903188E-01 -0.78859868326E-01 -0.74497440608E-02  0.80355423223E-01  0.51100000000E-03 0.  1.
</event>
<event>
 8    1  0.1060404E+005  0.1043930E+01  0.7957747E-01            NaN
         13   -1    0    0    0    0  0.00000000000E+00  0.00000000000E+00  0.74505805969E-08  0.10566000000E+00  0.10566000000E+00 0.  1.
     999900   -1    0    0    0    0 -0.00000000000E+00 -0.00000000000E+00 -0.74505805969E-08  0.93827000000E+00  0.93827000000E+00 0.  1.
     999902    2    1    2    0    0  0.11334610338E-01 -0.20603158324E-01 -0.56789668335E-02  0.10197387994E+01  0.10194518158E+01 0.  0.
     999903    2    3    3    0    0 -0.10899115352E+00  0.24221528148E-01 -0.56246609130E-01  0.12898371045E+00  0.31738975257E-01 0.  0.
         14    1    1    2    0    0 -0.11334610338E-01  0.20603158324E-01  0.56789668335E-02  0.24191200646E-01  0.00000000000E+00 0. -1.
     999901    1    3    3    0    0  0.12032576386E+00 -0.44824686471E-01  0.50567642296E-01  0.89075508891E+00  0.88000000000E+00 0.  1.
        -11    1    4    4    0    0 -0.26965279088E-01  0.15042910061E-01 -0.36168575100E-02  0.31092735464E-01  0.51100000000E-03 0.  1.
         11    1    4    4    0    0 -0.82025874433E-01  0.91786180866E-02 -0.52629751620E-01  0.97890974983E-01  0.51100000000E-03 0. -1.
</event>
<event>
 8    1  0.1060404E+005  0.1043930E+01  0.7957747E-01            NaN
         13   -1    0    0    0    0  0.00000000000E+00  0.00000000000E+00  0.74505805969E-08  0.10566000000E+00  0.10566000000E+00 0. -1.
     999900   -1    0    0    0    0 -0.00000000000E+00 -0.00000000000E+00 -0.74505805969E-08  0.93827000000E+00  0.93827000000E+00 0. -1.
     999902    2    1    2    0    0 -0.40926193388E-02  0.29648265069E-03  0.23667719980E-01  0.10199092089E+01  0.10196263022E+01 0.  0.
     999903    2    3    3    0    0  0.12699089859E+00  0.12651289025E-02  0.19051211030E-01  0.13018726410E+00  0.21388927394E-01 0.  0.
         14    1    1    2    0    0  0.40926193388E-02 -0.29648265069E-03 -0.23667719980E-01  0.24020791079E-01  0.00000000000E+00 0.  1.
     999901    1    3    3    0    0 -0.13108351793E+00 -0.96864625186E-03  0.46165089498E-02  0.88972194483E+00  0.88000000000E+00 0.  1.
        -11    1    4    4    0    0  0.55663632764E-01  0.83963465579E-02  0.11778704753E-02  0.56307967001E-01  0.51100000000E-03 0.  1.
         11    1    4    4    0    0  0.71327265827E-01 -0.71312176553E-02  0.17873340555E-01  0.73879297095E-01  0.51100000000E-03 0. -1.
</event>
<event>
 8    1  0.1398715E+005  0.1043930E+01  0.7957747E-01            NaN
         13   -1    0    0    0    0  0.00000000000E+00  0.00000000000E+00  0.74505805969E-08  0.10566000000E+00  0.10566000000E+00 0. -1.
     999900   -1    0    0    0    0 -0.00000000000E+00 -0.00000000000E+00 -0.74505805969E-08  0.93827000000E+00  0.93827000000E+00 0. -1.
     999902    2    1    2    0    0 -0.14068125685E-01 -0.20740815209E-01 -0.16496478328E-02  0.10188139710E+01  0.10185043410E+01 0.  0.
     999903    2    3    3    0    0 -0.15831142072E-01 -0.51091241034E-01 -0.11667854020E+00  0.13080726906E+00  0.25213487000E-01 0.  0.
         14    1    1    2    0    0  0.14068125685E-01  0.20740815209E-01  0.16496478328E-02  0.25116029021E-01  0.00000000000E+00 0.  1.
     999901    1    3    3    0    0  0.17630163874E-02  0.30350425826E-01  0.11502889236E+00  0.88800670192E+00  0.88000000000E+00 0.  1.
        -11    1    4    4    0    0  0.44227092505E-02 -0.28140519992E-01 -0.54231961730E-01  0.61260231934E-01  0.51100000000E-03 0. -1.
         11    1    4    4    0    0 -0.20253851322E-01 -0.22950721042E-01 -0.62446578467E-01  0.69547037126E-01  0.51100000000E-03 0.  1.
</event>
<event>
 8    1  0.1060404E+005  0.1043930E+01  0.7957747E-01            NaN
         13   -1    0    0    0    0  0.00000000000E+00  0.00000000000E+00  0.74505805969E-08  0.10566000000E+00  0.10566000000E+00 0.  1.
     999900   -1    0    0    0    0 -0.00000000000E+00 -0.00000000000E+00 -0.74505805969E-08  0.93827000000E+00  0.93827000000E+00 0. -1.
     999902    2    1    2    0    0  0.12573227022E-01 -0.19233501511E-01 -0.32037557032E-02  0.10207291882E+01  0.10204654810E+01 0.  0.
     999903    2    3    3    0    0  0.83746574060E-01  0.54784191880E-01  0.81547694943E-01  0.13071397896E+00  0.20526115057E-01 0.  0.
         14    1    1    2    0    0 -0.12573227022E-01  0.19233501511E-01  0.32037557032E-02  0.23200811812E-01  0.00000000000E+00 0.  1.
     999901    1    3    3    0    0 -0.71173347038E-01 -0.74017693391E-01 -0.84751450646E-01  0.89001520922E+00  0.88000000000E+00 0. -1.
        -11    1    4    4    0    0  0.33377411520E-01  0.13867140166E-01  0.20187655307E-01  0.41402315442E-01  0.51100000000E-03 0. -1.
         11    1    4    4    0    0  0.50369162540E-01  0.40917051715E-01  0.61360039636E-01  0.89311663522E-01  0.51100000000E-03 0.  1.
</event>
<event>
 8    1  0.1060404E+005  0.1043930E+01  0.7957747E-01            NaN
         13   -1    0    0    0    0  0.00000000000E+00  0.00000000000E+00  0.74505805969E-08  0.10566000000E+00  0.10566000000E+00 0. -1.
     999900   -1    0    0    0    0 -0.00000000000E+00 -0.00000000000E+00 -0.74505805969E-08  0.93827000000E+00  0.93827000000E+00 0.  1.
     999902    2    1    2    0    0  0.13966620731E-01 -0.17446834144E-01  0.68154828437E-02  0.10205652975E+01  0.10202978081E+01 0.  0.
     999903    2    3    3    0    0  0.11715501359E+00 -0.11487270054E-02 -0.57611477299E-01  0.13204725835E+00  0.19768139471E-01 0.  0.
         14    1    1    2    0    0 -0.13966620731E-01  0.17446834144E-01 -0.68154828437E-02  0.23364702495E-01  0.00000000000E+00 0. -1.
     999901    1    3    3    0    0 -0.10318839286E+00 -0.16298107139E-01  0.64426960143E-01  0.88851803916E+00  0.88000000000E+00 0. -1.
        -11    1    4    4    0    0  0.85308018891E-01 -0.11629347419E-03 -0.31822069409E-01  0.91051506487E-01  0.51100000000E-03 0.  1.
         11    1    4    4    0    0  0.31846994696E-01 -0.10324335312E-02 -0.25789407891E-01  0.40995751859E-01  0.51100000000E-03 0. -1.
</event>
<event>
 8    1  0.1060404E+005  0.1043930E+01  0.7957747E-01            NaN
         13   -1    0    0    0    0  0.00000000000E+00  0.00000000000E+00  0.74505805969E-08  0.10566000000E+00  0.10566000000E+00 0.  1.
     999900   -1    0    0    0    0 -0.00000000000E+00 -0.00000000000E+00 -0.74505805969E-08  0.93827000000E+00  0.93827000000E+00 0. -1.
     999902    2    1    2    0    0 -0.14231072883E-01  0.15420424387E-01 -0.97809532336E-02  0.10207787588E+01  0.10205161902E+01 0.  0.
     999903    2    3    3    0    0 -0.78819726290E-01  0.10528010902E+00 -0.17695391807E-01  0.13381252752E+00  0.17210898319E-01 0.  0.
         14    1    1    2    0    0  0.14231072883E-01 -0.15420424387E-01  0.97809532336E-02  0.23151241216E-01  0.00000000000E+00 0.  1.
     999901    1    3    3    0    0  0.64588653407E-01 -0.89859684634E-01  0.79144385738E-02  0.88696623127E+00  0.88000000000E+00 0. -1.
        -11    1    4    4    0    0 -0.38633723868E-01  0.62005840303E-01 -0.15668560710E-01  0.74719835167E-01  0.51100000000E-03 0. -1.
         11    1    4    4    0    0 -0.40186002422E-01  0.43274268719E-01 -0.20268310970E-02  0.59092692350E-01  0.51100000000E-03 0.  1.
</event>
<event>
 8    1  0.1060404E+005  0.1043930E+01  0.7957747E-01            NaN
         13   -1    0    0    0    0  0.00000000000E+00  0.00000000000E+00  0.74505805969E-08  0.10566000000E+00  0.10566000000E+00 0.  1.
     999900   -1    0    0    0    0 -0.00000000000E+00 -0.00000000000E+00 -0.74505805969E-08  0.93827000000E+00  0.93827000000E+00 0.  1.
     999902    2    1    2    0    0  0.12428389316E-01  0.20021069637E-01 -0.26910926385E-02  0.10202118620E+01  0.10199361222E+01 0.  0.
     999903    2    3    3    0    0 -0.79581165786E-01 -0.49808896007E-01  0.85030695392E-01  0.12833906030E+00  0.20654470931E-01 0.  0.
         14    1    1    2    0    0 -0.12428389316E-01 -0.20021069637E-01  0.26910926385E-02  0.23718137996E-01  0.00000000000E+00 0. -1.
     999901    1    3    3    0    0  0.92009555102E-01  0.69829965643E-01 -0.87721788031E-01  0.89187280171E+00  0.88000000000E+00 0.  1.
        -11    1    4    4    0    0 -0.49728659334E-01 -0.30667281600E-01  0.65795240148E-01  0.87992593251E-01  0.51100000000E-03 0.  1.
         11    1    4    4    0    0 -0.29852506452E-01 -0.19141614406E-01  0.19235455245E-01  0.40346467045E-01  0.51100000000E-03 0. -1.
</event>
<event>
 8    1  0.1060404E+005  0.1043930E+01  0.7957747E-01            NaN
         13   -1    0    0    0    0  0.00000000000E+00  0.00000000000E+00  0.74505805969E-08  0.10566000000E+00  0.10566000000E+00 0.  1.
     999900   -1    0    0    0    0 -0.00000000000E+00 -0.00000000000E+00 -0.74505805969E-08  0.93827000000E+00  0.93827000000E+00 0.  1.
     999902    2    1    2    0    0 -0.16406523139E-01 -0.68682142141E-02 -0.15216459187E-01  0.10205230139E+01  0.10202545442E+01 0.  0.
     999903    2    3    3    0    0 -0.95368470090E-01  0.42108422403E-01  0.76635290436E-01  0.13087676740E+00  0.19684922689E-01 0.  0.
         14    1    1    2    0    0  0.16406523139E-01  0.68682142141E-02  0.15216459187E-01  0.23406986098E-01  0.00000000000E+00 0. -1.
     999901    1    3    3    0    0  0.78961946951E-01 -0.48976636617E-01 -0.91851749623E-01  0.88964624650E+00  0.88000000000E+00 0.  1.
        -11    1    4    4    0    0 -0.61382924997E-01  0.26129457329E-01  0.60272618142E-01  0.89909185516E-01  0.51100000000E-03 0.  1.
         11    1    4    4    0    0 -0.33985545093E-01  0.15978965074E-01  0.16362672294E-01  0.40967581887E-01  0.51100000000E-03 0. -1.
</event>
<event>
 8    1  0.1060404E+005  0.1043930E+01  0.7957747E-01            NaN
         13   -1    0    0    0    0  0.00000000000E+00  0.00000000000E+00  0.74505805969E-08  0.10566000000E+00  0.10566000000E+00 0. -1.
     999900   -1    0    0    0    0 -0.00000000000E+00 -0.00000000000E+00 -0.74505805969E-08  0.93827000000E+00  0.93827000000E+00 0.  1.
     999902    2    1    2    0    0  0.14510854749E-01  0.10396853985E-01 -0.15248595913E-01  0.10204527950E+01  0.10201826933E+01 0.  0.
     999903    2    3    3    0    0  0.11050926043E-01 -0.11826969438E+00 -0.52030446147E-01  0.13032923261E+00  0.12988378276E-01 0.  0.
         14    1    1    2    0    0 -0.14510854749E-01 -0.10396853985E-01  0.15248595913E-01  0.23477205022E-01  0.00000000000E+00 0. -1.
     999901    1    3    3    0    0  0.34599287059E-02  0.12866654837E+00  0.36781850235E-01  0.89012356237E+00  0.88000000000E+00 0.  1.
        -11    1    4    4    0    0  0.12904976669E-01 -0.85205244964E-01 -0.40873929052E-01  0.95380351170E-01  0.51100000000E-03 0.  1.
         11    1    4    4    0    0 -0.18540506257E-02 -0.33064449421E-01 -0.11156517095E-01  0.34948881440E-01  0.51100000000E-03 0. -1.
</event>
<event>
 8    1  0.1060404E+005  0.1043930E+01  0.7957747E-01            NaN
         13   -1    0    0    0    0  0.00000000000E+00  0.00000000000E+00  0.74505805969E-08  0.10566000000E+00  0.10566000000E+00 0. -1.
     999900   -1    0    0    0    0 -0.00000000000E+00 -0.00000000000E+00 -0.74505805969E-08  0.93827000000E+00  0.93827000000E+00 0. -1.
     999902    2    1    2    0    0  0.62428141337E-02  0.20473228965E-01  0.10078887336E-01  0.10202718132E+01  0.10199974819E+01 0.  0.
     999903    2    3    3    0    0 -0.10206518203E+00 -0.70239863290E-01 -0.26372756805E-01  0.12825824296E+00  0.20092655565E-01 0.  0.
         14    1    1    2    0    0 -0.62428141337E-02 -0.20473228965E-01 -0.10078887336E-01  0.23658186797E-01  0.00000000000E+00 0. -1.
     999901    1    3    3    0    0  0.10830799616E+00  0.90713092256E-01  0.36451644142E-01  0.89201357024E+00  0.88000000000E+00 0.  1.
        -11    1    4    4    0    0 -0.28596994699E-01 -0.19571542234E-01 -0.16753617500E-01  0.38493872130E-01  0.51100000000E-03 0. -1.
         11    1    4    4    0    0 -0.73468187331E-01 -0.50668321057E-01 -0.96191393051E-02  0.89764370829E-01  0.51100000000E-03 0.  1.
</event>
<event>
 8    1  0.1060404E+005  0.1043930E+01  0.7957747E-01            NaN
         13   -1    0    0    0    0  0.00000000000E+00  0.00000000000E+00  0.74505805969E-08  0.10566000000E+00  0.10566000000E+00 0. -1.
     999900   -1    0    0    0    0 -0.00000000000E+00 -0.00000000000E+00 -0.74505805969E-08  0.93827000000E+00  0.93827000000E+00 0. -1.
     999902    2    1    2    0    0 -0.28379331050E-02 -0.15326350514E-01  0.18865055334E-01  0.10194587680E+01  0.10191650202E+01 0.  0.
     999903    2    3    3    0    0 -0.11409261239E+00 -0.43931782218E-01  0.46469354934E-01  0.13156357610E+00  0.14228419320E-01 0.  0.
         14    1    1    2    0    0  0.28379331050E-02  0.15326350514E-01 -0.18865055334E-01  0.24471232032E-01  0.00000000000E+00 0.  1.
     999901    1    3    3    0    0  0.11125467929E+00  0.28605431704E-01 -0.27604299600E-01  0.88789519187E+00  0.88000000000E+00 0. -1.
        -11    1    4    4    0    0 -0.18606436352E-01 -0.63907705412E-02  0.13221850831E-01  0.23709067510E-01  0.51100000000E-03 0. -1.
         11    1    4    4    0    0 -0.95486176043E-01 -0.37541011677E-01  0.33247504104E-01  0.10785450859E+00  0.51100000000E-03 0.  1.
</event>
<event>
 8    1  0.1060404E+005  0.1043930E+01  0.7957747E-01            NaN
         13   -1    0    0    0    0  0.00000000000E+00  0.00000000000E+00  0.74505805969E-08  0.10566000000E+00  0.10566000000E+00 0.  1.
     999900   -1    0    0    0    0 -0.00000000000E+00 -0.00000000000E+00 -0.74505805969E-08  0.93827000000E+00  0.93827000000E+00 0. -1.
     999902    2    1    2    0    0  0.24291560884E-02  0.21355415527E-01  0.92633506548E-02  0.10205256364E+01  0.10202572275E+01 0.  0.
     999903    2    3    3    0    0  0.11145265313E+00 -0.53010880526E-01  0.36569164328E-01  0.13026608076E+00  0.20002516641E-01 0.  0.
         14    1    1    2    0    0 -0.24291560884E-02 -0.21355415527E-01 -0.92633506548E-02  0.23404363631E-01  0.00000000000E+00 0. -1.
     999901    1    3    3    0    0 -0.10902349704E+00  0.74366296053E-01 -0.27305813674E-01  0.89025955561E+00  0.88000000000E+00 0. -1.
        -11    1    4    4    0    0  0.18271370446E-01 -0.17056282591E-02  0.86287071400E-02  0.20284670410E-01  0.51100000000E-03 0.  1.
         11    1    4    4    0    0  0.93181282686E-01 -0.51305252267E-01  0.27940457188E-01  0.10998141035E+00  0.51100000000E-03 0. -1.
</event>
<event>
 8    1  0.1060404E+005  0.1043930E+01  0.7957747E-01            NaN
         13   -1    0    0    0    0  0.00000000000E+00  0.00000000000E+00  0.74505805969E-08  0.10566000000E+00  0.10566000000E+00 0. -1.
     999900   -1    0    0    0    0 -0.00000000000E+00 -0.00000000000E+00 -0.74505805969E-08  0.93827000000E+00  0.93827000000E+00 0.  1.
     999902    2    1    2    0    0 -0.64197722511E-02 -0.21339292004E-01 -0.41864561931E-02  0.10212561103E+01  0.10210043768E+01 0.  0.
     999903    2    3    3    0    0 -0.13405884700E-01  0.95698160815E-01  0.83476193405E-01  0.12916233088E+00  0.19410747688E-01 0.  0.
         14    1    1    2    0    0  0.64197722511E-02  0.21339292004E-01  0.41864561931E-02  0.22673889707E-01  0.00000000000E+00 0. -1.
     999901    1    3    3    0    0  0.69861124488E-02 -0.11703745282E+00 -0.87662649598E-01  0.89209377941E+00  0.88000000000E+00 0.  1.
        -11    1    4    4    0    0 -0.10409580102E-01  0.17980688760E-01  0.17184037584E-01  0.26966957464E-01  0.51100000000E-03 0.  1.
         11    1    4    4    0    0 -0.29963045983E-02  0.77717472054E-01  0.66292155821E-01  0.10219537342E+00  0.51100000000E-03 0. -1.
</event>
<event>
 8    1  0.1060404E+005  0.1043930E+01  0.7957747E-01            NaN
         13   -1    0    0    0    0  0.00000000000E+00  0.00000000000E+00  0.74505805969E-08  0.10566000000E+00  0.10566000000E+00 0. -1.
     999900   -1    0    0    0    0 -0.00000000000E+00 -0.00000000000E+00 -0.74505805969E-08  0.93827000000E+00  0.93827000000E+00 0. -1.
     999902    2    1    2    0    0 -0.36631110450E-02  0.63465415047E-02  0.21408605935E-01  0.10213020222E+01  0.10210513186E+01 0.  0.
     999903    2    3    3    0    0 -0.12293032936E+00 -0.21746014433E-01 -0.33057401267E-01  0.13114450411E+00  0.22832743136E-01 0.  0.
         14    1    1    2    0    0  0.36631110450E-02 -0.63465415047E-02 -0.21408605935E-01  0.22627977808E-01  0.00000000000E+00 0.  1.
     999901    1    3    3    0    0  0.11926721831E+00  0.28092555937E-01  0.54466007201E-01  0.89015751809E+00  0.88000000000E+00 0.  1.
        -11    1    4    4    0    0 -0.43930515410E-01 -0.11282197693E-01 -0.13564533626E-02  0.45379282229E-01  0.51100000000E-03 0. -1.
         11    1    4    4    0    0 -0.78999813949E-01 -0.10463816740E-01 -0.31700947904E-01  0.85765221878E-01  0.51100000000E-03 0.  1.
</event>
<event>
 8    1  0.1060404E+005  0.1043930E+01  0.7957747E-01            NaN
         13   -1    0    0    0    0  0.00000000000E+00  0.00000000000E+00  0.74505805969E-08  0.10566000000E+00  0.10566000000E+00 0. -1.
     999900   -1    0    0    0    0 -0.00000000000E+00 -0.00000000000E+00 -0.74505805969E-08  0.93827000000E+00  0.93827000000E+00 0.  1.
     999902    2    1    2    0    0  0.12628457776E-01  0.18225975350E-03 -0.19177653101E-01  0.10209671269E+01  0.10207088618E+01 0.  0.
     999903    2    3    3    0    0 -0.93358970931E-01 -0.36107292781E-01 -0.82943783576E-01  0.13157610708E+00  0.20321581517E-01 0.  0.
         14    1    1    2    0    0 -0.12628457776E-01 -0.18225975350E-03  0.19177653101E-01  0.22962873140E-01  0.00000000000E+00 0. -1.
     999901    1    3    3    0    0  0.10598742871E+00  0.36289552535E-01  0.63766130475E-01  0.88939101978E+00  0.88000000000E+00 0. -1.
        -11    1    4    4    0    0 -0.52239294797E-01 -0.98391769253E-02 -0.39304666143E-01  0.66112564805E-01  0.51100000000E-03 0. -1.
         11    1    4    4    0    0 -0.41119676134E-01 -0.26268115856E-01 -0.43639117433E-01  0.65463542276E-01  0.51100000000E-03 0.  1.
</event>
<event>
 7    1  0.1975912E+005  0.1043930E+01  0.7957747E-01            NaN
         13   -1    0    0    0    0  0.00000000000E+00  0.00000000000E+00  0.74505805969E-08  0.10566000000E+00  0.10566000000E+00 0.  1.
     999900   -1    0    0    0    0 -0.00000000000E+00 -0.00000000000E+00 -0.74505805969E-08  0.93827000000E+00  0.93827000000E+00 0. -1.
     999903    2    1    2    0    0  0.27357837616E-01  0.15828328396E-01  0.10027783200E+00  0.10712177406E+00  0.20504722076E-01 0.  0.
         14    1    1    2    0    0 -0.29240515815E-01 -0.88254800389E-02  0.34987254091E-01  0.46443565882E-01  0.00000000000E+00 0.  1.
     999901    1    1    2    0    0  0.18826781985E-02 -0.70028483574E-02 -0.13526508610E+00  0.89036466006E+00  0.88000000000E+00 0. -1.
        -11    1    3    3    0    0  0.98736119918E-02  0.17503536753E-01  0.53160270961E-01  0.56834298995E-01  0.51100000000E-03 0. -1.
         11    1    3    3    0    0  0.17484225625E-01 -0.16752083567E-02  0.47117561044E-01  0.50287475065E-01  0.51100000000E-03 0.  1.
</event>
<event>
 8    1  0.1060404E+005  0.1043930E+01  0.7957747E-01            NaN
         13   -1    0    0    0    0  0.00000000000E+00  0.00000000000E+00  0.74505805969E-08  0.10566000000E+00  0.10566000000E+00 0. -1.
     999900   -1    0    0    0    0 -0.00000000000E+00 -0.00000000000E+00 -0.74505805969E-08  0.93827000000E+00  0.93827000000E+00 0. -1.
     999902    2    1    2    0    0 -0.10391965646E-01 -0.20586315735E-01 -0.35983563015E-02  0.10205903875E+01  0.10203234788E+01 0.  0.
     999903    2    3    3    0    0 -0.55684310110E-01  0.48507022210E-01  0.10525777601E+00  0.13004283491E+00  0.19449059190E-01 0.  0.
         14    1    1    2    0    0  0.10391965646E-01  0.20586315735E-01  0.35983563015E-02  0.23339612542E-01  0.00000000000E+00 0. -1.
     999901    1    3    3    0    0  0.45292344464E-01 -0.69093337945E-01 -0.10885613231E+00  0.89054755255E+00  0.88000000000E+00 0. -1.
        -11    1    4    4    0    0 -0.14131555698E-01  0.91754629551E-02  0.39072721543E-01  0.42553832691E-01  0.51100000000E-03 0. -1.
         11    1    4    4    0    0 -0.41552754412E-01  0.39331559255E-01  0.66185054468E-01  0.87489002215E-01  0.51100000000E-03 0.  1.
</event>
<event>
 8    1  0.1060404E+005  0.1043930E+01  0.7957747E-01            NaN
         13   -1    0    0    0    0  0.00000000000E+00  0.00000000000E+00  0.74505805969E-08  0.10566000000E+00  0.10566000000E+00 0. -1.
     999900   -1    0    0    0    0 -0.00000000000E+00 -0.00000000000E+00 -0.74505805969E-08  0.93827000000E+00  0.93827000000E+00 0.  1.
     999902    2    1    2    0    0  0.16046589052E-01 -0.15505770271E-02  0.16517138229E-01  0.10208494202E+01  0.10205884702E+01 0.  0.
     999903    2    3    3    0    0  0.11143926663E-01  0.67940356277E-02  0.13021411923E+00  0.13348215003E+00  0.26294895077E-01 0.  0.
         14    1    1    2    0    0 -0.16046589052E-01  0.15505770271E-02 -0.16517138229E-01  0.23080579815E-01  0.00000000000E+00 0.  1.
     999901    1    3    3    0    0  0.49026623887E-02 -0.83446126549E-02 -0.11369698100E+00  0.88736727016E+00  0.88000000000E+00 0.  1.
        -11    1    4    4    0    0  0.47394923922E-02 -0.97802726940E-02  0.36097701823E-01  0.37701746909E-01  0.51100000000E-03 0.  1.
         11    1    4    4    0    0  0.64044342708E-02  0.16574308322E-01  0.94116417409E-01  0.95780403118E-01  0.51100000000E-03 0. -1.
</event>
<event>
 8    1  0.1060404E+005  0.1043930E+01  0.7957747E-01            NaN
         13   -1    0    0    0    0  0.00000000000E+00  0.00000000000E+00  0.74505805969E-08  0.10566000000E+00  0.10566000000E+00 0.  1.
     999900   -1    0    0    0    0 -0.00000000000E+00 -0.00000000000E+00 -0.74505805969E-08  0.93827000000E+00  0.93827000000E+00 0.  1.
     999902    2    1    2    0    0  0.43038874039E-02  0.18990936455E-01  0.62461398179E-03  0.10244474628E+01  0.10242621904E+01 0.  0.
     999903    2    3    3    0    0  0.10327000259E+00 -0.44954397138E-01  0.69813491848E-01  0.13390246196E+00  0.19244594550E-01 0.  0.
         14    1    1    2    0    0 -0.43038874039E-02 -0.18990936455E-01 -0.62461398179E-03  0.19482537228E-01  0.00000000000E+00 0.  1.
     999901    1    3    3    0    0 -0.98966115185E-01  0.63945333593E-01 -0.69188877866E-01  0.89054500081E+00  0.88000000000E+00 0.  1.
        -11    1    4    4    0    0  0.47142727952E-01 -0.13138160446E-01  0.38020450797E-01  0.61974703376E-01  0.51100000000E-03 0. -1.
         11    1    4    4    0    0  0.56127274637E-01 -0.31816236691E-01  0.31793041051E-01  0.71927758589E-01  0.51100000000E-03 0.  1.
</event>
<event>
 8    1  0.1060404E+005  0.1043930E+01  0.7957747E-01            NaN
         13   -1    0    0    0    0  0.00000000000E+00  0.00000000000E+00  0.74505805969E-08  0.10566000000E+00  0.10566000000E+00 0.  1.
     999900   -1    0    0    0    0 -0.00000000000E+00 -0.00000000000E+00 -0.74505805969E-08  0.93827000000E+00  0.93827000000E+00 0.  1.
     999902    2    1    2    0    0 -0.15525941686E-01  0.19687952367E-02  0.19702696173E-01  0.10187679799E+01  0.10184572007E+01 0.  0.
     999903    2    3    3    0    0  0.48746480566E-01  0.50616196944E-01 -0.10462113807E+00  0.12638133178E+00  0.94042399982E-02 0.  0.
         14    1    1    2    0    0  0.15525941686E-01 -0.19687952367E-02 -0.19702696173E-01  0.25162020117E-01  0.00000000000E+00 0.  1.
     999901    1    3    3    0    0 -0.64272422252E-01 -0.48647401707E-01  0.12432383424E+00  0.89238664810E+00  0.88000000000E+00 0. -1.
        -11    1    4    4    0    0  0.33065344699E-01  0.36367813618E-01 -0.65559328998E-01  0.81940354082E-01  0.51100000000E-03 0. -1.
         11    1    4    4    0    0  0.15681135867E-01  0.14248383327E-01 -0.39061809073E-01  0.44440977695E-01  0.51100000000E-03 0.  1.
</event>
<event>
 8    1  0.1060404E+005  0.1043930E+01  0.7957747E-01            NaN
         13   -1    0    0    0    0  0.00000000000E+00  0.00000000000E+00  0.74505805969E-08  0.10566000000E+00  0.10566000000E+00 0. -1.
     999900   -1    0    0    0    0 -0.00000000000E+00 -0.00000000000E+00 -0.74505805969E-08  0.93827000000E+00  0.93827000000E+00 0.  1.
     999902    2    1    2    0    0 -0.52897704643E-03 -0.15775269201E-01  0.17809337208E-01  0.10201327013E+01  0.10198550960E+01 0.  0.
     999903    2    3    3    0    0 -0.84538737494E-01 -0.36347857576E-01  0.93492463170E-01  0.13265943024E+00  0.19741298682E-01 0.  0.
         14    1    1    2    0    0  0.52897704643E-03  0.15775269201E-01 -0.17809337208E-01  0.23797298731E-01  0.00000000000E+00 0.  1.
     999901    1    3    3    0    0  0.84009760447E-01  0.20572588374E-01 -0.75683125962E-01  0.88747327103E+00  0.88000000000E+00 0.  1.
        -11    1    4    4    0    0 -0.55875610084E-01 -0.27576131002E-01  0.50291079306E-01  0.80074843628E-01  0.51100000000E-03 0. -1.
         11    1    4    4    0    0 -0.28663127410E-01 -0.87717265733E-02  0.43201383864E-01  0.52584586608E-01  0.51100000000E-03 0.  1.
</event>
<event>
 8    1  0.1060404E+005  0.1043930E+01  0.7957747E-01            NaN
         13   -1    0    0    0    0  0.00000000000E+00  0.00000000000E+00  0.74505805969E-08  0.10566000000E+00  0.10566000000E+00 0.  1.
     999900   -1    0    0    0    0 -0.00000000000E+00 -0.00000000000E+00 -0.74505805969E-08  0.93827000000E+00  0.93827000000E+00 0. -1.
     999902    2    1    2    0    0  0.40808915647E-02  0.74153175378E-02 -0.21744655761E-01  0.10205961048E+01  0.10203293285E+01 0.  0.
     999903    2    3    3    0    0  0.10362354366E+00 -0.73133008448E-01  0.21910927270E-01  0.13025763978E+00  0.20017199120E-01 0.  0.
         14    1    1    2    0    0 -0.40808915647E-02 -0.74153175378E-02  0.21744655761E-01  0.23333895181E-01  0.00000000000E+00 0.  1.
     999901    1    3    3    0    0 -0.99542652097E-01  0.80548325986E-01 -0.43655583030E-01  0.89033846504E+00  0.88000000000E+00 0. -1.
        -11    1    4    4    0    0  0.60217304002E-03 -0.39826592706E-02  0.22171143886E-02  0.46261111582E-02  0.51100000000E-03 0.  1.
         11    1    4    4    0    0  0.10302137062E+00 -0.69150349177E-01  0.19693812881E-01  0.12563152862E+00  0.51100000000E-03 0. -1.
</event>
<event>
 8    1  0.1060404E+005  0.1043930E+01  0.7957747E-01            NaN
         13   -1    0    0    0    0  0.00000000000E+00  0.00000000000E+00  0.74505805969E-08  0.10566000000E+00  0.10566000000E+00 0. -1.
     999900   -1    0    0    0    0 -0.00000000000E+00 -0.00000000000E+00 -0.74505805969E-08  0.93827000000E+00  0.93827000000E+00 0.  1.
     999902    2    1    2    0    0 -0.17125951572E-02 -0.28289551948E-02  0.22953621958E-01  0.10207393827E+01  0.10204759099E+01 0.  0.
     999903    2    3    3    0    0 -0.10197475889E+00 -0.54261901745E-01 -0.56377530027E-01  0.13001423927E+00  0.19546638801E-01 0.  0.
         14    1    1    2    0    0  0.17125951572E-02  0.28289551948E-02 -0.22953621958E-01  0.23190617298E-01  0.00000000000E+00 0.  1.
     999901    1    3    3    0    0  0.10026216374E+00  0.51432946550E-01  0.79331151985E-01  0.89072514343E+00  0.88000000000E+00 0. -1.
        -11    1    4    4    0    0 -0.63550961611E-01 -0.26061108779E-01 -0.40679250216E-01  0.79830875177E-01  0.51100000000E-03 0. -1.
         11    1    4    4    0    0 -0.38423797283E-01 -0.28200792966E-01 -0.15698279810E-01  0.50183364092E-01  0.51100000000E-03 0.  1.
</event>
<event>
 8    1  0.1060404E+005  0.1043930E+01  0.7957747E-01            NaN
         13   -1    0    0    0    0  0.00000000000E+00  0.00000000000E+00  0.74505805969E-08  0.10566000000E+00  0.10566000000E+00 0.  1.
     999900   -1    0    0    0    0 -0.00000000000E+00 -0.00000000000E+00 -0.74505805969E-08  0.93827000000E+00  0.93827000000E+00 0. -1.
     999902    2    1    2    0    0  0.20169309570E-01 -0.44427737624E-02  0.11595050157E-01  0.10202448892E+01  0.10199699257E+01 0.  0.
     999903    2    3    3    0    0  0.10083310514E+00  0.61485924747E-01  0.57646952538E-01  0.13290390684E+00  0.19810181226E-01 0.  0.
         14    1    1    2    0    0 -0.20169309570E-01  0.44427737624E-02 -0.11595050157E-01  0.23685110838E-01  0.00000000000E+00 0. -1.
     999901    1    3    3    0    0 -0.80663795574E-01 -0.65928698509E-01 -0.46051902381E-01  0.88734098233E+00  0.88000000000E+00 0.  1.
        -11    1    4    4    0    0  0.17585485577E-01  0.31214312405E-02  0.58587355048E-02  0.18803684179E-01  0.51100000000E-03 0.  1.
         11    1    4    4    0    0  0.83247619567E-01  0.58364493506E-01  0.51788217034E-01  0.11410022266E+00  0.51100000000E-03 0. -1.
</event>
<event>
 8    1  0.1060404E+005  0.1043930E+01  0.7957747E-01            NaN
         13   -1    0    0    0    0  0.00000000000E+00  0.00000000000E+00  0.74505805969E-08  0.10566000000E+00  0.10566000000E+00 0. -1.
     999900   -1    0    0    0    0 -0.00000000000E+00 -0.00000000000E+00 -0.74505805969E-08  0.93827000000E+00  0.93827000000E+00 0. -1.
     999902    2    1    2    0    0 -0.18063420795E-01  0.31233926157E-02  0.15528335602E-01  0.10199055966E+01  0.10196226037E+01 0.  0.
     999903    2    3    3    0    0 -0.22320641736E-01  0.38748196035E-01 -0.11936226599E+00  0.12890462862E+00  0.19220275572E-01 0.  0.
         14    1    1    2    0    0  0.18063420795E-01 -0.31233926157E-02 -0.15528335602E-01  0.24024403402E-01  0.00000000000E+00 0.  1.
     999901    1    3    3    0    0  0.42572209412E-02 -0.35624803419E-01  0.13489060159E+00  0.89100096798E+00  0.88000000000E+00 0.  1.
        -11    1    4    4    0    0 -0.20850370449E-01  0.23906489387E-01 -0.62164337033E-01  0.69792006007E-01  0.51100000000E-03 0. -1.
         11    1    4    4    0    0 -0.14702712874E-02  0.14841706648E-01 -0.57197928955E-01  0.59112622609E-01  0.51100000000E-03 0.  1.
</event>
<event>
 8    1  0.1060404E+005  0.1043930E+01  0.7957747E-01            NaN
         13   -1    0    0    0    0  0.00000000000E+00  0.00000000000E+00  0.74505805969E-08  0.10566000000E+00  0.10566000000E+00 0. -1.
     999900   -1    0    0    0    0 -0.00000000000E+00 -0.00000000000E+00 -0.74505805969E-08  0.93827000000E+00  0.93827000000E+00 0. -1.
     999902    2    1    2    0    0 -0.12542640296E-01  0.16695754294E-01 -0.10349202965E-01  0.10206239484E+01  0.10203578157E+01 0.  0.
     999903    2    3    3    0    0  0.24230343592E-01 -0.11174166834E+00 -0.59203393669E-01  0.12920084137E+00  0.10700728654E-01 0.  0.
         14    1    1    2    0    0  0.12542640296E-01 -0.16695754294E-01  0.10349202965E-01  0.23306051555E-01  0.00000000000E+00 0. -1.
     999901    1    3    3    0    0 -0.36772983888E-01  0.12843742264E+00  0.48854190704E-01  0.89142310708E+00  0.88000000000E+00 0. -1.
        -11    1    4    4    0    0  0.10338816054E-01 -0.30901385052E-01 -0.20509902855E-01  0.38505895024E-01  0.51100000000E-03 0. -1.
         11    1    4    4    0    0  0.13891527538E-01 -0.80840283293E-01 -0.38693490815E-01  0.90694946346E-01  0.51100000000E-03 0.  1.
</event>
<event>
 8    1  0.1060404E+005  0.1043930E+01  0.7957747E-01            NaN
         13   -1    0    0    0    0  0.00000000000E+00  0.00000000000E+00  0.74505805969E-08  0.10566000000E+00  0.10566000000E+00 0. -1.
     999900   -1    0    0    0    0 -0.00000000000E+00 -0.00000000000E+00 -0.74505805969E-08  0.93827000000E+00  0.93827000000E+00 0. -1.
     999902    2    1    2    0    0 -0.22369280873E-01  0.53113650775E-02 -0.64985913299E-02  0.10200380136E+01  0.10197581685E+01 0.  0.
     999903    2    3    3    0    0  0.92383790159E-02  0.10746734735E+00 -0.71901601102E-01  0.13115532022E+00  0.19932370348E-01 0.  0.
         14    1    1    2    0    0  0.22369280873E-01 -0.53113650775E-02  0.64985913299E-02  0.23891986419E-01  0.00000000000E+00 0. -1.
     999901    1    3    3    0    0 -0.31607659889E-01 -0.10215598227E+00  0.65403009772E-01  0.88888269337E+00  0.88000000000E+00 0. -1.
        -11    1    4    4    0    0 -0.17709045279E-02  0.67634427249E-01 -0.51710363467E-01  0.85157352373E-01  0.51100000000E-03 0.  1.
         11    1    4    4    0    0  0.11009283544E-01  0.39832920096E-01 -0.20191237635E-01  0.45997967844E-01  0.51100000000E-03 0. -1.
</event>
<event>
 8    1  0.1060404E+005  0.1043930E+01  0.7957747E-01            NaN
         13   -1    0    0    0    0  0.00000000000E+00  0.00000000000E+00  0.74505805969E-08  0.10566000000E+00  0.10566000000E+00 0. -1.
     999900   -1    0    0    0    0 -0.00000000000E+00 -0.00000000000E+00 -0.74505805969E-08  0.93827000000E+00  0.93827000000E+00 0. -1.
     999902    2    1    2    0    0  0.11928152485E-01  0.18747817564E-02 -0.19560510885E-01  0.10209428468E+01  0.10206840290E+01 0.  0.
     999903    2    3    3    0    0  0.12535358258E+00  0.37034231761E-01  0.44610942884E-02  0.13264191090E+00  0.22111539475E-01 0.  0.
         14    1    1    2    0    0 -0.11928152485E-01 -0.18747817564E-02  0.19560510885E-01  0.22987153247E-01  0.00000000000E+00 0. -1.
     999901    1    3    3    0    0 -0.11342543009E+00 -0.35159450004E-01 -0.24021605173E-01  0.88830093585E+00  0.88000000000E+00 0. -1.
        -11    1    4    4    0    0  0.56146277186E-01  0.28018266404E-01  0.90878952898E-03  0.62757586900E-01  0.51100000000E-03 0.  1.
         11    1    4    4    0    0  0.69207305394E-01  0.90159653574E-02  0.35523047595E-02  0.69884324003E-01  0.51100000000E-03 0. -1.
</event>
<event>
 8    1  0.1060404E+005  0.1043930E+01  0.7957747E-01            NaN
         13   -1    0    0    0    0  0.00000000000E+00  0.00000000000E+00  0.74505805969E-08  0.10566000000E+00  0.10566000000E+00 0. -1.
     999900   -1    0    0    0    0 -0.00000000000E+00 -0.00000000000E+00 -0.74505805969E-08  0.93827000000E+00  0.93827000000E+00 0. -1.
     999902    2    1    2    0    0  0.20011333873E-01  0.65292194507E-02  0.10115625948E-01  0.10205759837E+01  0.10203087417E+01 0.  0.
     999903    2    3    3    0    0 -0.83571340888E-01  0.70240233645E-01 -0.65751369263E-01  0.12897951397E+00  0.19864869060E-01 0.  0.
         14    1    1    2    0    0 -0.20011333873E-01 -0.65292194507E-02 -0.10115625948E-01  0.23354016321E-01  0.00000000000E+00 0.  1.
     999901    1    3    3    0    0  0.10358267476E+00 -0.63711014194E-01  0.75866995210E-01  0.89159646971E+00  0.88000000000E+00 0.  1.
        -11    1    4    4    0    0 -0.82663521654E-01  0.67670282437E-01 -0.59836103935E-01  0.12244650012E+00  0.51100000000E-03 0.  1.
         11    1    4    4    0    0 -0.90781923405E-03  0.25699512081E-02 -0.59152653283E-02  0.65330138434E-02  0.51100000000E-03 0. -1.
</event>
<event>
 8    1  0.1060404E+005  0.1043930E+01  0.7957747E-01            NaN
         13   -1    0    0    0    0  0.00000000000E+00  0.00000000000E+00  0.74505805969E-08  0.10566000000E+00  0.10566000000E+00 0.  1.
     999900   -1    0    0    0    0 -0.00000000000E+00 -0.00000000000E+00 -0.74505805969E-08  0.93827000000E+00  0.93827000000E+00 0. -1.
     999902    2    1    2    0    0 -0.17488660047E-01  0.12693418074E-01 -0.94742965408E-02  0.10203346956E+01  0.10200618377E+01 0.  0.
     999903    2    3    3    0    0  0.38965164690E-01 -0.38146444903E-01  0.11259315129E+00  0.12866649064E+00  0.30073456367E-01 0.  0.
         14    1    1    2    0    0  0.17488660047E-01 -0.12693418074E-01  0.94742965408E-02  0.23595304354E-01  0.00000000000E+00 0.  1.
     999901    1    3    3    0    0 -0.56453824737E-01  0.50839862977E-01 -0.12206744783E+00  0.89166820500E+00  0.88000000000E+00 0. -1.
        -11    1    4    4    0    0  0.48414205397E-02  0.37945367102E-02  0.24811351424E-01  0.25567599460E-01  0.51100000000E-03 0. -1.
         11    1    4    4    0    0  0.34123744150E-01 -0.41940981613E-01  0.87781799869E-01  0.10309889118E+00  0.51100000000E-03 0.  1.
</event>
<event>
 8    1  0.1060404E+005  0.1043930E+01  0.7957747E-01            NaN
         13   -1    0    0    0    0  0.00000000000E+00  0.00000000000E+00  0.74505805969E-08  0.10566000000E+00  0.10566000000E+00 0. -1.
     999900   -1    0    0    0    0 -0.00000000000E+00 -0.00000000000E+00 -0.74505805969E-08  0.93827000000E+00  0.93827000000E+00 0.  1.
     999902    2    1    2    0    0 -0.17926428345E-01  0.14052102586E-01 -0.65230559165E-02  0.10202367799E+01  0.10199616259E+01 0.  0.
     999903    2    3    3    0    0  0.11540337584E-01 -0.34782743207E-01 -0.12364404374E+00  0.13064672923E+00  0.20921273594E-01 0.  0.
         14    1    1    2    0    0  0.17926428345E-01 -0.14052102586E-01  0.65230559165E-02  0.23693220101E-01  0.00000000000E+00 0. -1.
     999901    1    3    3    0    0 -0.29466765929E-01  0.48834845793E-01  0.11712098783E+00  0.88959005067E+00  0.88000000000E+00 0. -1.
        -11    1    4    4    0    0  0.28799587868E-02 -0.21123021124E-03 -0.34742644152E-01  0.34866190277E-01  0.51100000000E-03 0. -1.
         11    1    4    4    0    0  0.86603787975E-02 -0.34571512996E-01 -0.88901399592E-01  0.95780538953E-01  0.51100000000E-03 0.  1.
</event>
<event>
 8    1  0.1060404E+005  0.1043930E+01  0.7957747E-01            NaN
         13   -1    0    0    0    0  0.00000000000E+00  0.00000000000E+00  0.74505805969E-08  0.10566000000E+00  0.10566000000E+00 0.  1.
     999900   -1    0    0    0    0 -0.00000000000E+00 -0.00000000000E+00 -0.74505805969E-08  0.93827000000E+00  0.93827000000E+00 0. -1.
     999902    2    1    2    0    0 -0.22202675921E-01  0.62746068211E-02  0.57894928088E-02  0.10201424458E+01  0.10198650705E+01 0.  0.
     999903    2    3    3    0    0  0.12343265746E+00  0.10305140888E-01 -0.23243160183E-01  0.12769144406E+00  0.20568022100E-01 0.  0.
         14    1    1    2    0    0  0.22202675921E-01 -0.62746068211E-02 -0.57894928088E-02  0.23787554220E-01  0.00000000000E+00 0. -1.
     999901    1    3    3    0    0 -0.14563533338E+00 -0.40305340667E-02  0.29032652991E-01  0.89245100172E+00  0.88000000000E+00 0.  1.
        -11    1    4    4    0    0  0.41280605942E-01 -0.60656161472E-02 -0.96277969207E-02  0.42823308148E-01  0.51100000000E-03 0.  1.
         11    1    4    4    0    0  0.82152051521E-01  0.16370757035E-01 -0.13615363262E-01  0.84868135910E-01  0.51100000000E-03 0. -1.
</event>
<event>
 8    1  0.1060404E+005  0.1043930E+01  0.7957747E-01            NaN
         13   -1    0    0    0    0  0.00000000000E+00  0.00000000000E+00  0.74505805969E-08  0.10566000000E+00  0.10566000000E+00 0.  1.
     999900   -1    0    0    0    0 -0.00000000000E+00 -0.00000000000E+00 -0.74505805969E-08  0.93827000000E+00  0.93827000000E+00 0.  1.
     999902    2    1    2    0    0 -0.40853747488E-02 -0.20216500217E-01 -0.10103154592E-01  0.10209632653E+01  0.10207049124E+01 0.  0.
     999903    2    3    3    0    0 -0.38365416979E-01  0.12108319720E+00  0.84533705965E-02  0.12883935556E+00  0.19876473635E-01 0.  0.
         14    1    1    2    0    0  0.40853747488E-02  0.20216500217E-01  0.10103154592E-01  0.22966734652E-01  0.00000000000E+00 0. -1.
     999901    1    3    3    0    0  0.34280042230E-01 -0.14129969741E+00 -0.18556525189E-01  0.89212390979E+00  0.88000000000E+00 0. -1.
        -11    1    4    4    0    0 -0.22013116402E-01  0.76359444358E-01  0.14668968042E-01  0.80813252508E-01  0.51100000000E-03 0.  1.
         11    1    4    4    0    0 -0.16352300577E-01  0.44723752837E-01 -0.62155974457E-02  0.48026103054E-01  0.51100000000E-03 0. -1.
</event>
<event>
 8    1  0.1060404E+005  0.1043930E+01  0.7957747E-01            NaN
         13   -1    0    0    0    0  0.00000000000E+00  0.00000000000E+00  0.74505805969E-08  0.10566000000E+00  0.10566000000E+00 0.  1.
     999900   -1    0    0    0    0 -0.00000000000E+00 -0.00000000000E+00 -0.74505805969E-08  0.93827000000E+00  0.93827000000E+00 0.  1.
     999902    2    1    2    0    0  0.16235669203E-01  0.31425183670E-02  0.93119728295E-02  0.10249514538E+01  0.10247757304E+01 0.  0.
     999903    2    3    3    0    0 -0.35159464588E-01 -0.11071719063E+00  0.64244570588E-01  0.13443301866E+00  0.21222332660E-01 0.  0.
         14    1    1    2    0    0 -0.16235669203E-01 -0.31425183670E-02 -0.93119728295E-02  0.18978546154E-01  0.00000000000E+00 0.  1.
     999901    1    3    3    0    0  0.51395133790E-01  0.11385970900E+00 -0.54932597758E-01  0.89051843519E+00  0.88000000000E+00 0.  1.
        -11    1    4    4    0    0 -0.18453396912E-01 -0.72066979164E-01  0.51345134433E-01  0.90392263465E-01  0.51100000000E-03 0.  1.
         11    1    4    4    0    0 -0.16706067676E-01 -0.38650211471E-01  0.12899436155E-01  0.44040755194E-01  0.51100000000E-03 0. -1.
</event>
<event>
 8    1  0.1060404E+005  0.1043930E+01  0.7957747E-01            NaN
         13   -1    0    0    0    0  0.00000000000E+00  0.00000000000E+00  0.74505805969E-08  0.10566000000E+00  0.10566000000E+00 0.  1.
     999900   -1    0    0    0    0 -0.00000000000E+00 -0.00000000000E+00 -0.74505805969E-08  0.93827000000E+00  0.93827000000E+00 0.  1.
     999902    2    1    2    0    0 -0.20945736771E-01  0.10633360215E-01 -0.31200402238E-02  0.10202334414E+01  0.10199582090E+01 0.  0.
     999903    2    3    3    0    0  0.51014840740E-01 -0.41766709307E-01  0.10866584964E+00  0.12870656173E+00  0.20251917769E-01 0.  0.
         14    1    1    2    0    0  0.20945736771E-01 -0.10633360215E-01  0.31200402238E-02  0.23696558597E-01  0.00000000000E+00 0. -1.
     999901    1    3    3    0    0 -0.71960577511E-01  0.52400069522E-01 -0.11178588986E+00  0.89152687967E+00  0.88000000000E+00 0.  1.
        -11    1    4    4    0    0  0.10958022017E-01 -0.11832587911E-01  0.44630254266E-01  0.47457445149E-01  0.51100000000E-03 0. -1.
         11    1    4    4    0    0  0.40056818723E-01 -0.29934121395E-01  0.64035595373E-01  0.81249116584E-01  0.51100000000E-03 0.  1.
</event>
<event>
 8    1  0.1060404E+005  0.1043930E+01  0.7957747E-01            NaN
         13   -1    0    0    0    0  0.00000000000E+00  0.00000000000E+00  0.74505805969E-08  0.10566000000E+00  0.10566000000E+00 0. -1.
     999900   -1    0    0    0    0 -0.00000000000E+00 -0.00000000000E+00 -0.74505805969E-08  0.93827000000E+00  0.93827000000E+00 0. -1.
     999902    2    1    2    0    0 -0.14683993528E-01 -0.11884422142E-01  0.13459874520E-01  0.10207345828E+01  0.10204709997E+01 0.  0.
     999903    2    3    3    0    0  0.35591532590E-01  0.12182545270E+00  0.14104146413E-01  0.12921544437E+00  0.19735906386E-01 0.  0.
         14    1    1    2    0    0  0.14683993528E-01  0.11884422142E-01 -0.13459874520E-01  0.23195417170E-01  0.00000000000E+00 0.  1.
     999901    1    3    3    0    0 -0.50275526118E-01 -0.13370987484E+00 -0.64427189259E-03  0.89151913846E+00  0.88000000000E+00 0.  1.
        -11    1    4    4    0    0  0.32671423724E-01  0.86626608946E-01  0.15458870244E-01  0.93866016725E-01  0.51100000000E-03 0.  1.
         11    1    4    4    0    0  0.29201088661E-02  0.35198843750E-01 -0.13547238306E-02  0.35349427644E-01  0.51100000000E-03 0. -1.
</event>
<event>
 8    1  0.1060404E+005  0.1043930E+01  0.7957747E-01            NaN
         13   -1    0    0    0    0  0.00000000000E+00  0.00000000000E+00  0.74505805969E-08  0.10566000000E+00  0.10566000000E+00 0. -1.
     999900   -1    0    0    0    0 -0.00000000000E+00 -0.00000000000E+00 -0.74505805969E-08  0.93827000000E+00  0.93827000000E+00 0.  1.
     999902    2    1    2    0    0  0.13199613879E-01  0.16944501233E-01 -0.92082650753E-02  0.10205604028E+01  0.10202928000E+01 0.  0.
     999903    2    3    3    0    0  0.14434410413E-01  0.12049890159E+00  0.45109332343E-01  0.13282427084E+00  0.29649579628E-01 0.  0.
         14    1    1    2    0    0 -0.13199613879E-01 -0.16944501233E-01  0.92082650753E-02  0.23369597222E-01  0.00000000000E+00 0. -1.
     999901    1    3    3    0    0 -0.12347965334E-02 -0.10355440036E+00 -0.54317597418E-01  0.88773613194E+00  0.88000000000E+00 0. -1.
        -11    1    4    4    0    0  0.55799937192E-02  0.93225447198E-01  0.21892172906E-01  0.95925224476E-01  0.51100000000E-03 0. -1.
         11    1    4    4    0    0  0.88544166935E-02  0.27273454391E-01  0.23217159437E-01  0.36899046366E-01  0.51100000000E-03 0.  1.
</event>
<event>
 8    1  0.1060404E+005  0.1043930E+01  0.7957747E-01            NaN
         13   -1    0    0    0    0  0.00000000000E+00  0.00000000000E+00  0.74505805969E-08  0.10566000000E+00  0.10566000000E+00 0.  1.
     999900   -1    0    0    0    0 -0.00000000000E+00 -0.00000000000E+00 -0.74505805969E-08  0.93827000000E+00  0.93827000000E+00 0.  1.
     999902    2    1    2    0    0 -0.10009484880E-01 -0.12412117117E-02  0.21706426697E-01  0.10199946840E+01  0.10197138108E+01 0.  0.
     999903    2    3    3    0    0  0.30906525767E-01  0.34533998543E-01 -0.11717745955E+00  0.12744624300E+00  0.19083433579E-01 0.  0.
         14    1    1    2    0    0  0.10009484880E-01  0.12412117117E-02 -0.21706426697E-01  0.23935316041E-01  0.00000000000E+00 0. -1.
     999901    1    3    3    0    0 -0.40916010647E-01 -0.35775210255E-01  0.13888388625E+00  0.89254844096E+00  0.88000000000E+00 0. -1.
        -11    1    4    4    0    0  0.28489763105E-01  0.27309467458E-01 -0.11037857723E+00  0.11722271558E+00  0.51100000000E-03 0. -1.
         11    1    4    4    0    0  0.24167626623E-02  0.72245310845E-02 -0.67988823240E-02  0.10223527425E-01  0.51100000000E-03 0.  1.
</event>
<event>
 8    1  0.1060404E+005  0.1043930E+01  0.7957747E-01            NaN
         13   -1    0    0    0    0  0.00000000000E+00  0.00000000000E+00  0.74505805969E-08  0.10566000000E+00  0.10566000000E+00 0.  1.
     999900   -1    0    0    0    0 -0.00000000000E+00 -0.00000000000E+00 -0.74505805969E-08  0.93827000000E+00  0.93827000000E+00 0. -1.
     999902    2    1    2    0    0 -0.20564366692E-01 -0.62821365379E-02 -0.10854500085E-01  0.10198431034E+01  0.10195586187E+01 0.  0.
     999903    2    3    3    0    0  0.38122570168E-01 -0.47032466287E-01  0.11142470316E+00  0.12851995800E+00  0.20893345554E-01 0.  0.
         14    1    1    2    0    0  0.20564366692E-01  0.62821365379E-02  0.10854500085E-01  0.24086896624E-01  0.00000000000E+00 0.  1.
     999901    1    3    3    0    0 -0.58686936860E-01  0.40750329749E-01 -0.12227920325E+00  0.89132314537E+00  0.88000000000E+00 0. -1.
        -11    1    4    4    0    0  0.29310519256E-01 -0.20307555251E-01  0.56712898242E-01  0.66993412268E-01  0.51100000000E-03 0. -1.
         11    1    4    4    0    0  0.88120509125E-02 -0.26724911036E-01  0.54711804921E-01  0.61526545733E-01  0.51100000000E-03 0.  1.
</event>
<event>
 8    1  0.1060404E+005  0.1043930E+01  0.7957747E-01            NaN
         13   -1    0    0    0    0  0.00000000000E+00  0.00000000000E+00  0.74505805969E-08  0.10566000000E+00  0.10566000000E+00 0.  1.
     999900   -1    0    0    0    0 -0.00000000000E+00 -0.00000000000E+00 -0.74505805969E-08  0.93827000000E+00  0.93827000000E+00 0.  1.
     999902    2    1    2    0    0  0.18781927800E-02  0.20349442170E-01  0.11879465408E-01  0.10202921257E+01  0.10200182707E+01 0.  0.
     999903    2    3    3    0    0 -0.28667533291E-01 -0.95470246149E-01 -0.77318732310E-01  0.12770960283E+00  0.19878655017E-01 0.  0.
         14    1    1    2    0    0 -0.18781927800E-02 -0.20349442170E-01 -0.11879465408E-01  0.23637874336E-01  0.00000000000E+00 0. -1.
     999901    1    3    3    0    0  0.30545726071E-01  0.11581968832E+00  0.89198197718E-01  0.89258252283E+00  0.88000000000E+00 0. -1.
        -11    1    4    4    0    0 -0.30208326979E-01 -0.74636045435E-01 -0.64744848313E-01  0.10332104723E+00  0.51100000000E-03 0.  1.
         11    1    4    4    0    0  0.15407936885E-02 -0.20834200715E-01 -0.12573883998E-01  0.24388555603E-01  0.51100000000E-03 0. -1.
</event>
<event>
 8    1  0.1060404E+005  0.1043930E+01  0.7957747E-01            NaN
         13   -1    0    0    0    0  0.00000000000E+00  0.00000000000E+00  0.74505805969E-08  0.10566000000E+00  0.10566000000E+00 0. -1.
     999900   -1    0    0    0    0 -0.00000000000E+00 -0.00000000000E+00 -0.74505805969E-08  0.93827000000E+00  0.93827000000E+00 0. -1.
     999902    2    1    2    0    0  0.21919850579E-01  0.46237714371E-02  0.34237819817E-02  0.10212676657E+01  0.10210161917E+01 0.  0.
     999903    2    3    3    0    0 -0.19461360377E-01  0.12852857374E+00 -0.12227840503E-02  0.13161245429E+00  0.20542738552E-01 0.  0.
         14    1    1    2    0    0 -0.21919850579E-01 -0.46237714371E-02 -0.34237819817E-02  0.22662334275E-01  0.00000000000E+00 0.  1.
     999901    1    3    3    0    0  0.41381210956E-01 -0.12390480231E+00  0.46465660320E-02  0.88965521143E+00  0.88000000000E+00 0.  1.
        -11    1    4    4    0    0 -0.36682087238E-02  0.18037625179E-01 -0.73562311952E-02  0.19828941871E-01  0.51100000000E-03 0. -1.
         11    1    4    4    0    0 -0.15793151653E-01  0.11049094857E+00  0.61334471449E-02  0.11178351242E+00  0.51100000000E-03 0.  1.
</event>
<event>
 8    1  0.1060404E+005  0.1043930E+01  0.7957747E-01            NaN
         13   -1    0    0    0    0  0.00000000000E+00  0.00000000000E+00  0.74505805969E-08  0.10566000000E+00  0.10566000000E+00 0. -1.
     999900   -1    0    0    0    0 -0.00000000000E+00 -0.00000000000E+00 -0.74505805969E-08  0.93827000000E+00  0.93827000000E+00 0.  1.
     999902    2    1    2    0    0  0.10605930597E-01 -0.10780014863E-01  0.17009993871E-01  0.10211696315E+01  0.10209159524E+01 0.  0.
     999903    2    3    3    0    0  0.60639195913E-01  0.66941034710E-01 -0.90721846290E-01  0.12979426802E+00  0.21398233718E-01 0.  0.
         14    1    1    2    0    0 -0.10605930597E-01  0.10780014863E-01 -0.17009993871E-01  0.22760368533E-01  0.00000000000E+00 0.  1.
     999901    1    3    3    0    0 -0.50033265316E-01 -0.77721049573E-01  0.10773184016E+00  0.89137536345E+00  0.88000000000E+00 0. -1.
        -11    1    4    4    0    0  0.14250372576E-01  0.30778614393E-01 -0.35809032329E-01  0.49324883576E-01  0.51100000000E-03 0. -1.
         11    1    4    4    0    0  0.46388823337E-01  0.36162420318E-01 -0.54912813962E-01  0.80469384439E-01  0.51100000000E-03 0.  1.
</event>
<event>
 8    1  0.1060404E+005  0.1043930E+01  0.7957747E-01            NaN
         13   -1    0    0    0    0  0.00000000000E+00  0.00000000000E+00  0.74505805969E-08  0.10566000000E+00  0.10566000000E+00 0. -1.
     999900   -1    0    0    0    0 -0.00000000000E+00 -0.00000000000E+00 -0.74505805969E-08  0.93827000000E+00  0.93827000000E+00 0.  1.
     999902    2    1    2    0    0  0.16809777833E-01 -0.13444911397E-01  0.10583948328E-01  0.10199434572E+01  0.10196613662E+01 0.  0.
     999903    2    3    3    0    0  0.87235034748E-01 -0.77832162790E-01  0.61101909691E-01  0.13334461930E+00  0.19481973080E-01 0.  0.
         14    1    1    2    0    0 -0.16809777833E-01  0.13444911397E-01 -0.10583948328E-01  0.23986542800E-01  0.00000000000E+00 0.  1.
     999901    1    3    3    0    0 -0.70425256915E-01  0.64387251392E-01 -0.50517961363E-01  0.88659883790E+00  0.88000000000E+00 0. -1.
        -11    1    4    4    0    0  0.49798853564E-01 -0.38406659929E-01  0.23050740849E-01  0.66982050714E-01  0.51100000000E-03 0.  1.
         11    1    4    4    0    0  0.37436181185E-01 -0.39425502861E-01  0.38051168841E-01  0.66362568581E-01  0.51100000000E-03 0. -1.
</event>
<event>
 8    1  0.1060404E+005  0.1043930E+01  0.7957747E-01            NaN
         13   -1    0    0    0    0  0.00000000000E+00  0.00000000000E+00  0.74505805969E-08  0.10566000000E+00  0.10566000000E+00 0.  1.
     999900   -1    0    0    0    0 -0.00000000000E+00 -0.00000000000E+00 -0.74505805969E-08  0.93827000000E+00  0.93827000000E+00 0. -1.
     999902    2    1    2    0    0  0.15068889685E-01  0.63163374944E-02  0.17821108549E-01  0.10197523354E+01  0.10194656768E+01 0.  0.
     999903    2    3    3    0    0 -0.10414180953E+00 -0.23406543632E-01 -0.62331332329E-01  0.12760937923E+00  0.31710816771E-01 0.  0.
         14    1    1    2    0    0 -0.15068889685E-01 -0.63163374944E-02 -0.17821108549E-01  0.24177664602E-01  0.00000000000E+00 0. -1.
     999901    1    3    3    0    0  0.11921069921E+00  0.29722881127E-01  0.80152440877E-01  0.89214295617E+00  0.88000000000E+00 0.  1.
        -11    1    4    4    0    0 -0.38182646577E-01 -0.85839079990E-02 -0.59707510455E-02  0.39591779010E-01  0.51100000000E-03 0. -1.
         11    1    4    4    0    0 -0.65959162950E-01 -0.14822635633E-01 -0.56360581283E-01  0.88017600216E-01  0.51100000000E-03 0.  1.
</event>
<event>
 8    1  0.1060404E+005  0.1043930E+01  0.7957747E-01            NaN
         13   -1    0    0    0    0  0.00000000000E+00  0.00000000000E+00  0.74505805969E-08  0.10566000000E+00  0.10566000000E+00 0.  1.
     999900   -1    0    0    0    0 -0.00000000000E+00 -0.00000000000E+00 -0.74505805969E-08  0.93827000000E+00  0.93827000000E+00 0.  1.
     999902    2    1    2    0    0 -0.13631232879E-01 -0.19403135030E-02 -0.19331471768E-01  0.10201964557E+01  0.10199203533E+01 0.  0.
     999903    2    3    3    0    0 -0.44401927666E-01  0.91238316888E-01  0.77636855254E-01  0.12944848386E+00  0.20819871050E-01 0.  0.
         14    1    1    2    0    0  0.13631232879E-01  0.19403135030E-02  0.19331471768E-01  0.23733544342E-01  0.00000000000E+00 0.  1.
     999901    1    3    3    0    0  0.30770694787E-01 -0.93178630391E-01 -0.96968327022E-01  0.89074797180E+00  0.88000000000E+00 0.  1.
        -11    1    4    4    0    0 -0.17178008202E-01  0.39884615205E-01  0.46033483416E-01  0.63286722243E-01  0.51100000000E-03 0.  1.
         11    1    4    4    0    0 -0.27223919465E-01  0.51353701683E-01  0.31603371838E-01  0.66161761616E-01  0.51100000000E-03 0. -1.
</event>
<event>
 8    1  0.1060404E+005  0.1043930E+01  0.7957747E-01            NaN
         13   -1    0    0    0    0  0.00000000000E+00  0.00000000000E+00  0.74505805969E-08  0.10566000000E+00  0.10566000000E+00 0.  1.
     999900   -1    0    0    0    0 -0.00000000000E+00 -0.00000000000E+00 -0.74505805969E-08  0.93827000000E+00  0.93827000000E+00 0.  1.
     999902    2    1    2    0    0  0.93456790492E-04  0.90196919347E-02 -0.21274427689E-01  0.10208223205E+01  0.10205607504E+01 0.  0.
     999903    2    3    3    0    0  0.79672035544E-01 -0.38896376659E-01 -0.96686973860E-01  0.13272561862E+00  0.20178145601E-01 0.  0.
         14    1    1    2    0    0 -0.93456790492E-04 -0.90196919347E-02  0.21274427689E-01  0.23107679465E-01  0.00000000000E+00 0.  1.
     999901    1    3    3    0    0 -0.79578578754E-01  0.47916068594E-01  0.75412546171E-01  0.88809670191E+00  0.88000000000E+00 0. -1.
        -11    1    4    4    0    0  0.44048287013E-01 -0.31939614461E-01 -0.62418338110E-01  0.82805196782E-01  0.51100000000E-03 0.  1.
         11    1    4    4    0    0  0.35623748531E-01 -0.69567621982E-02 -0.34268635749E-01  0.49920421841E-01  0.51100000000E-03 0. -1.
</event>
<event>
 8    1  0.1060404E+005  0.1043930E+01  0.7957747E-01            NaN
         13   -1    0    0    0    0  0.00000000000E+00  0.00000000000E+00  0.74505805969E-08  0.10566000000E+00  0.10566000000E+00 0. -1.
     999900   -1    0    0    0    0 -0.00000000000E+00 -0.00000000000E+00 -0.74505805969E-08  0.93827000000E+00  0.93827000000E+00 0. -1.
     999902    2    1    2    0    0 -0.12379008967E-01 -0.12753037162E-01  0.12905975642E-01  0.10219653915E+01  0.10217293269E+01 0.  0.
     999903    2    3    3    0    0 -0.18844976258E-01  0.77555158569E-01 -0.10052643971E+00  0.13007734257E+00  0.21085877205E-01 0.  0.
         14    1    1    2    0    0  0.12379008967E-01  0.12753037162E-01 -0.12905975642E-01  0.21964608513E-01  0.00000000000E+00 0.  1.
     999901    1    3    3    0    0  0.64659672911E-02 -0.90308195731E-01  0.11343241536E+00  0.89188804892E+00  0.88000000000E+00 0.  1.
        -11    1    4    4    0    0 -0.20572547724E-01  0.57992038854E-01 -0.65180389506E-01  0.89638443692E-01  0.51100000000E-03 0.  1.
         11    1    4    4    0    0  0.17275714655E-02  0.19563119715E-01 -0.35346050207E-01  0.40438898877E-01  0.51100000000E-03 0. -1.
</event>
<event>
 8    1  0.1060404E+005  0.1043930E+01  0.7957747E-01            NaN
         13   -1    0    0    0    0  0.00000000000E+00  0.00000000000E+00  0.74505805969E-08  0.10566000000E+00  0.10566000000E+00 0. -1.
     999900   -1    0    0    0    0 -0.00000000000E+00 -0.00000000000E+00 -0.74505805969E-08  0.93827000000E+00  0.93827000000E+00 0. -1.
     999902    2    1    2    0    0  0.19884171708E-01  0.44319251339E-02  0.12250314069E-01  0.10201583269E+01  0.10198813262E+01 0.  0.
     999903    2    3    3    0    0  0.11304856028E+00 -0.64718545888E-01 -0.10722146447E-01  0.13224553569E+00  0.20135792075E-01 0.  0.
         14    1    1    2    0    0 -0.19884171708E-01 -0.44319251339E-02 -0.12250314069E-01  0.23771673052E-01  0.00000000000E+00 0.  1.
     999901    1    3    3    0    0 -0.93164388569E-01  0.69150471022E-01  0.22972460517E-01  0.88791279126E+00  0.88000000000E+00 0.  1.
        -11    1    4    4    0    0  0.82126206528E-01 -0.49142114997E-01  0.92368065640E-03  0.95711940593E-01  0.51100000000E-03 0. -1.
         11    1    4    4    0    0  0.30922353749E-01 -0.15576430891E-01 -0.11645827104E-01  0.36533595096E-01  0.51100000000E-03 0.  1.
</event>
<event>
 8    1  0.1060404E+005  0.1043930E+01  0.7957747E-01            NaN
         13   -1    0    0    0    0  0.00000000000E+00  0.00000000000E+00  0.74505805969E-08  0.10566000000E+00  0.10566000000E+00 0.  1.
     999900   -1    0    0    0    0 -0.00000000000E+00 -0.00000000000E+00 -0.74505805969E-08  0.93827000000E+00  0.93827000000E+00 0. -1.
     999902    2    1    2    0    0 -0.10755494880E-01 -0.20639138961E-01  0.10333779254E-02  0.10206335926E+01  0.10203676826E+01 0.  0.
     999903    2    3    3    0    0  0.69890850272E-01  0.54479916347E-01 -0.91204393426E-01  0.12897529936E+00  0.21531238451E-01 0.  0.
         14    1    1    2    0    0  0.10755494880E-01  0.20639138961E-01 -0.10333779254E-02  0.23296407386E-01  0.00000000000E+00 0. -1.
     999901    1    3    3    0    0 -0.80646345152E-01 -0.75119055307E-01  0.92237771351E-01  0.89165829325E+00  0.88000000000E+00 0.  1.
        -11    1    4    4    0    0  0.56679376677E-01  0.50217893274E-01 -0.67217333056E-01  0.10125620736E+00  0.51100000000E-03 0.  1.
         11    1    4    4    0    0  0.13211473595E-01  0.42620230724E-02 -0.23987060370E-01  0.27719092002E-01  0.51100000000E-03 0. -1.
</event>
<event>
 8    1  0.1060404E+005  0.1043930E+01  0.7957747E-01            NaN
         13   -1    0    0    0    0  0.00000000000E+00  0.00000000000E+00  0.74505805969E-08  0.10566000000E+00  0.10566000000E+00 0.  1.
     999900   -1    0    0    0    0 -0.00000000000E+00 -0.00000000000E+00 -0.74505805969E-08  0.93827000000E+00  0.93827000000E+00 0.  1.
     999902    2    1    2    0    0 -0.65564085116E-02 -0.10625804583E-01  0.20180420117E-01  0.10201993537E+01  0.10199233196E+01 0.  0.
     999903    2    3    3    0    0  0.47997898637E-01 -0.78489032494E-01  0.93759607156E-01  0.13284627470E+00  0.19822771532E-01 0.  0.
         14    1    1    2    0    0  0.65564085116E-02  0.10625804583E-01 -0.20180420117E-01  0.23730646255E-01  0.00000000000E+00 0. -1.
     999901    1    3    3    0    0 -0.54554307149E-01  0.67863227912E-01 -0.73579187039E-01  0.88735307905E+00  0.88000000000E+00 0.  1.
        -11    1    4    4    0    0  0.85528196123E-02 -0.21107669311E-01  0.13064885261E-01  0.26260936293E-01  0.51100000000E-03 0. -1.
         11    1    4    4    0    0  0.39445079025E-01 -0.57381363183E-01  0.80694721895E-01  0.10658533840E+00  0.51100000000E-03 0.  1.
</event>
<event>
 8    1  0.1060404E+005  0.1043930E+01  0.7957747E-01            NaN
         13   -1    0    0    0    0  0.00000000000E+00  0.00000000000E+00  0.74505805969E-08  0.10566000000E+00  0.10566000000E+00 0. -1.
     999900   -1    0    0    0    0 -0.00000000000E+00 -0.00000000000E+00 -0.74505805969E-08  0.93827000000E+00  0.93827000000E+00 0. -1.
     999902    2    1    2    0    0 -0.13191034994E-01 -0.18518033147E-01 -0.64838546811E-02  0.10202876370E+01  0.10200136768E+01 0.  0.
     999903    2    3    3    0    0  0.42154340336E-01  0.22145122161E-01 -0.11968513039E+00  0.13038251197E+00  0.20190942165E-01 0.  0.
         14    1    1    2    0    0  0.13191034994E-01  0.18518033147E-01  0.64838546811E-02  0.23642362982E-01  0.00000000000E+00 0.  1.
     999901    1    3    3    0    0 -0.55345375330E-01 -0.40663155308E-01  0.11320127571E+00  0.88990512505E+00  0.88000000000E+00 0.  1.
        -11    1    4    4    0    0  0.23438560151E-01  0.15173276190E-01 -0.92644877522E-01  0.96762228501E-01  0.51100000000E-03 0.  1.
         11    1    4    4    0    0  0.18715780185E-01  0.69718459711E-02 -0.27040252868E-01  0.33620283466E-01  0.51100000000E-03 0. -1.
</event>
<event>
 8    1  0.1060404E+005  0.1043930E+01  0.7957747E-01            NaN
         13   -1    0    0    0    0  0.00000000000E+00  0.00000000000E+00  0.74505805969E-08  0.10566000000E+00  0.10566000000E+00 0. -1.
     999900   -1    0    0    0    0 -0.00000000000E+00 -0.00000000000E+00 -0.74505805969E-08  0.93827000000E+00  0.93827000000E+00 0.  1.
     999902    2    1    2    0    0 -0.16238320759E-01  0.82595451692E-02  0.15442027600E-01  0.10200478024E+01  0.10197681892E+01 0.  0.
     999903    2    3    3    0    0 -0.11573971988E+00 -0.90061920419E-04  0.62947229710E-01  0.13312785750E+00  0.19104498076E-01 0.  0.
         14    1    1    2    0    0  0.16238320759E-01 -0.82595451692E-02 -0.15442027600E-01  0.23882197634E-01  0.00000000000E+00 0.  1.
     999901    1    3    3    0    0  0.99501399120E-01  0.83496070897E-02 -0.47505202110E-01  0.88691994486E+00  0.88000000000E+00 0.  1.
        -11    1    4    4    0    0 -0.80421553465E-01 -0.19500166649E-02  0.33656215444E-01  0.87203387467E-01  0.51100000000E-03 0. -1.
         11    1    4    4    0    0 -0.35318166414E-01  0.18599547445E-02  0.29291014265E-01  0.45924470037E-01  0.51100000000E-03 0.  1.
</event>
<event>
 8    1  0.1060404E+005  0.1043930E+01  0.7957747E-01            NaN
         13   -1    0    0    0    0  0.00000000000E+00  0.00000000000E+00  0.74505805969E-08  0.10566000000E+00  0.10566000000E+00 0. -1.
     999900   -1    0    0    0    0 -0.00000000000E+00 -0.00000000000E+00 -0.74505805969E-08  0.93827000000E+00  0.93827000000E+00 0. -1.
     999902    2    1    2    0    0  0.40777922929E-02 -0.21465239843E-01 -0.67128294417E-02  0.10210729007E+01  0.10208170362E+01 0.  0.
     999903    2    3    3    0    0  0.14656267792E-01  0.10324891163E+00 -0.74451923116E-01  0.12963916305E+00  0.19699741194E-01 0.  0.
         14    1    1    2    0    0 -0.40777922929E-02  0.21465239843E-01  0.67128294417E-02  0.22857099348E-01  0.00000000000E+00 0.  1.
     999901    1    3    3    0    0 -0.10578475499E-01 -0.12471415147E+00  0.67739093674E-01  0.89143373760E+00  0.88000000000E+00 0. -1.
        -11    1    4    4    0    0  0.83430487912E-02  0.13053981705E-01 -0.13890517030E-01  0.20813949310E-01  0.51100000000E-03 0.  1.
         11    1    4    4    0    0  0.63132190009E-02  0.90194929923E-01 -0.60561406086E-01  0.10882521374E+00  0.51100000000E-03 0. -1.
</event>
<event>
 8    1  0.1060404E+005  0.1043930E+01  0.7957747E-01            NaN
         13   -1    0    0    0    0  0.00000000000E+00  0.00000000000E+00  0.74505805969E-08  0.10566000000E+00  0.10566000000E+00 0. -1.
     999900   -1    0    0    0    0 -0.00000000000E+00 -0.00000000000E+00 -0.74505805969E-08  0.93827000000E+00  0.93827000000E+00 0. -1.
     999902    2    1    2    0    0  0.10715859660E-01  0.13433962534E-01 -0.13559193294E-01  0.10220404427E+01  0.10218060059E+01 0.  0.
     999903    2    3    3    0    0 -0.11049773908E+00  0.68791560978E-01  0.57322300518E-02  0.13179926229E+00  0.19903715071E-01 0.  0.
         14    1    1    2    0    0 -0.10715859660E-01 -0.13433962534E-01  0.13559193294E-01  0.21889557337E-01  0.00000000000E+00 0. -1.
     999901    1    3    3    0    0  0.12121359874E+00 -0.55357598445E-01 -0.19291423346E-01  0.89024118038E+00  0.88000000000E+00 0. -1.
        -11    1    4    4    0    0 -0.53170206403E-01  0.27519425974E-01  0.11340003601E-01  0.60936413232E-01  0.51100000000E-03 0. -1.
         11    1    4    4    0    0 -0.57327532679E-01  0.41272135004E-01 -0.56077735492E-02  0.70862849054E-01  0.51100000000E-03 0.  1.
</event>
<event>
 8    1  0.1060404E+005  0.1043930E+01  0.7957747E-01            NaN
         13   -1    0    0    0    0  0.00000000000E+00  0.00000000000E+00  0.74505805969E-08  0.10566000000E+00  0.10566000000E+00 0. -1.
     999900   -1    0    0    0    0 -0.00000000000E+00 -0.00000000000E+00 -0.74505805969E-08  0.93827000000E+00  0.93827000000E+00 0. -1.
     999902    2    1    2    0    0  0.22975208747E-01 -0.56277926802E-03  0.65339475023E-02  0.10200371264E+01  0.10197572603E+01 0.  0.
     999903    2    3    3    0    0  0.10614262478E+00 -0.59205772884E-01 -0.48693515699E-01  0.13245282481E+00  0.20027780476E-01 0.  0.
         14    1    1    2    0    0 -0.22975208747E-01  0.56277926802E-03 -0.65339475023E-02  0.23892873570E-01  0.00000000000E+00 0.  1.
     999901    1    3    3    0    0 -0.83167416033E-01  0.58642993616E-01  0.55227463202E-01  0.88758430162E+00  0.88000000000E+00 0.  1.
        -11    1    4    4    0    0  0.69093684804E-01 -0.40940738242E-01 -0.22012986728E-01  0.83276131234E-01  0.51100000000E-03 0. -1.
         11    1    4    4    0    0  0.37048939976E-01 -0.18265034642E-01 -0.26680528971E-01  0.49176693576E-01  0.51100000000E-03 0.  1.
</event>
<event>
 8    1  0.1060404E+005  0.1043930E+01  0.7957747E-01            NaN
         13   -1    0    0    0    0  0.00000000000E+00  0.00000000000E+00  0.74505805969E-08  0.10566000000E+00  0.10566000000E+00 0. -1.
     999900   -1    0    0    0    0 -0.00000000000E+00 -0.00000000000E+00 -0.74505805969E-08  0.93827000000E+00  0.93827000000E+00 0. -1.
     999902    2    1    2    0    0  0.99556394652E-02  0.13912963736E-01 -0.16710069366E-01  0.10200153239E+01  0.10197349406E+01 0.  0.
     999903    2    3    3    0    0 -0.20265045714E-01  0.12835606806E+00 -0.13652542706E-01  0.13208522389E+00  0.19343271766E-01 0.  0.
         14    1    1    2    0    0 -0.99556394652E-02 -0.13912963736E-01  0.16710069366E-01  0.23914676148E-01  0.00000000000E+00 0. -1.
     999901    1    3    3    0    0  0.30220685179E-01 -0.11444310433E+00 -0.30575266599E-02  0.88793009996E+00  0.88000000000E+00 0. -1.
        -11    1    4    4    0    0 -0.43127200809E-02  0.58760241351E-01 -0.14496914923E-01  0.60677732171E-01  0.51100000000E-03 0. -1.
         11    1    4    4    0    0 -0.15952325633E-01  0.69595826711E-01  0.84437221759E-03  0.71407491723E-01  0.51100000000E-03 0.  1.
</event>
<event>
 8    1  0.1060404E+005  0.1043930E+01  0.7957747E-01            NaN
         13   -1    0    0    0    0  0.00000000000E+00  0.00000000000E+00  0.74505805969E-08  0.10566000000E+00  0.10566000000E+00 0. -1.
     999900   -1    0    0    0    0 -0.00000000000E+00 -0.00000000000E+00 -0.74505805969E-08  0.93827000000E+00  0.93827000000E+00 0. -1.
     999902    2    1    2    0    0 -0.87043200270E-02 -0.22414033304E-01  0.19886148462E-03  0.10198843430E+01  0.10196008432E+01 0.  0.
     999903    2    3    3    0    0  0.41413637715E-01  0.10460276892E+00 -0.56643624501E-01  0.12754127781E+00  0.20036184593E-01 0.  0.
         14    1    1    2    0    0  0.87043200270E-02  0.22414033304E-01 -0.19886148462E-03  0.24045657029E-01  0.00000000000E+00 0.  1.
     999901    1    3    3    0    0 -0.50117957742E-01 -0.12701680222E+00  0.56842485986E-01  0.89234306517E+00  0.88000000000E+00 0.  1.
        -11    1    4    4    0    0  0.31144205559E-01  0.52386211529E-01 -0.32982034917E-01  0.69299007544E-01  0.51100000000E-03 0. -1.
         11    1    4    4    0    0  0.10269432156E-01  0.52216557391E-01 -0.23661589584E-01  0.58242270262E-01  0.51100000000E-03 0.  1.
</event>
<event>
 8    1  0.1060404E+005  0.1043930E+01  0.7957747E-01            NaN
         13   -1    0    0    0    0  0.00000000000E+00  0.00000000000E+00  0.74505805969E-08  0.10566000000E+00  0.10566000000E+00 0.  1.
     999900   -1    0    0    0    0 -0.00000000000E+00 -0.00000000000E+00 -0.74505805969E-08  0.93827000000E+00  0.93827000000E+00 0. -1.
     999902    2    1    2    0    0  0.15998030631E-01  0.14023108706E-01 -0.96301211021E-02  0.10205778311E+01  0.10203106318E+01 0.  0.
     999903    2    3    3    0    0 -0.45112403355E-02 -0.11784173376E+00 -0.49736991515E-01  0.12961345022E+00  0.20465889852E-01 0.  0.
         14    1    1    2    0    0 -0.15998030631E-01 -0.14023108706E-01  0.96301211021E-02  0.23352168942E-01  0.00000000000E+00 0.  1.
     999901    1    3    3    0    0  0.20509270966E-01  0.13186484247E+00  0.40106870413E-01  0.89096438084E+00  0.88000000000E+00 0.  1.
        -11    1    4    4    0    0 -0.56101939222E-02 -0.77301664179E-02 -0.43694545461E-02  0.10515845317E-01  0.51100000000E-03 0.  1.
         11    1    4    4    0    0  0.10989535867E-02 -0.11011156734E+00 -0.45367536969E-01  0.11909760490E+00  0.51100000000E-03 0. -1.
</event>
<event>
 8    1  0.1060404E+005  0.1043930E+01  0.7957747E-01            NaN
         13   -1    0    0    0    0  0.00000000000E+00  0.00000000000E+00  0.74505805969E-08  0.10566000000E+00  0.10566000000E+00 0. -1.
     999900   -1    0    0    0    0 -0.00000000000E+00 -0.00000000000E+00 -0.74505805969E-08  0.93827000000E+00  0.93827000000E+00 0. -1.
     999902    2    1    2    0    0  0.12834554602E-01  0.87592209587E-02 -0.16727465376E-01  0.10210989282E+01  0.10208436527E+01 0.  0.
     999903    2    3    3    0    0 -0.63816163683E-01 -0.99789626125E-01  0.46452068009E-01  0.12888267732E+00  0.20554261396E-01 0.  0.
         14    1    1    2    0    0 -0.12834554602E-01 -0.87592209587E-02  0.16727465376E-01  0.22831071844E-01  0.00000000000E+00 0. -1.
     999901    1    3    3    0    0  0.76650718285E-01  0.10854884708E+00 -0.63179533385E-01  0.89221625084E+00  0.88000000000E+00 0.  1.
        -11    1    4    4    0    0 -0.27124144357E-01 -0.47219668144E-01  0.31998154234E-01  0.63162957990E-01  0.51100000000E-03 0. -1.
         11    1    4    4    0    0 -0.36692019326E-01 -0.52569957982E-01  0.14453913774E-01  0.65719719330E-01  0.51100000000E-03 0.  1.
</event>
<event>
 8    1  0.1060404E+005  0.1043930E+01  0.7957747E-01            NaN
         13   -1    0    0    0    0  0.00000000000E+00  0.00000000000E+00  0.74505805969E-08  0.10566000000E+00  0.10566000000E+00 0. -1.
     999900   -1    0    0    0    0 -0.00000000000E+00 -0.00000000000E+00 -0.74505805969E-08  0.93827000000E+00  0.93827000000E+00 0. -1.
     999902    2    1    2    0    0 -0.15102833455E-01  0.16442594391E-01  0.36562538133E-02  0.10213065016E+01  0.10210558983E+01 0.  0.
     999903    2    3    3    0    0 -0.60933800889E-01  0.64872938683E-01 -0.96997064988E-01  0.13306269135E+00  0.19386153563E-01 0.  0.
         14    1    1    2    0    0  0.15102833455E-01 -0.16442594391E-01 -0.36562538133E-02  0.22623498417E-01  0.00000000000E+00 0.  1.
     999901    1    3    3    0    0  0.45830967433E-01 -0.48430344292E-01  0.10065331880E+00  0.88824381023E+00  0.88000000000E+00 0.  1.
        -11    1    4    4    0    0 -0.60273352081E-01  0.59171039278E-01 -0.85409848836E-01  0.12012157283E+00  0.51100000000E-03 0. -1.
         11    1    4    4    0    0 -0.66044880725E-03  0.57018994044E-02 -0.11587216153E-01  0.12941118522E-01  0.51100000000E-03 0.  1.
</event>
<event>
 8    1  0.1060404E+005  0.1043930E+01  0.7957747E-01            NaN
         13   -1    0    0    0    0  0.00000000000E+00  0.00000000000E+00  0.74505805969E-08  0.10566000000E+00  0.10566000000E+00 0.  1.
     999900   -1    0    0    0    0 -0.00000000000E+00 -0.00000000000E+00 -0.74505805969E-08  0.93827000000E+00  0.93827000000E+00 0. -1.
     999902    2    1    2    0    0  0.23020553524E-01 -0.67994260704E-03  0.60925715240E-02  0.10201071615E+01  0.10198289530E+01 0.  0.
     999903    2    3    3    0    0 -0.83480395278E-01  0.92606110991E-01  0.29119166139E-01  0.12849347612E+00  0.10852620914E-01 0.  0.
         14    1    1    2    0    0 -0.23020553524E-01  0.67994260704E-03 -0.60925715240E-02  0.23822838502E-01  0.00000000000E+00 0. -1.
     999901    1    3    3    0    0  0.10650094880E+00 -0.93286053598E-01 -0.23026594615E-01  0.89161368538E+00  0.88000000000E+00 0. -1.
        -11    1    4    4    0    0 -0.34932276163E-01  0.30971847613E-01  0.11250960980E-01  0.48024623960E-01  0.51100000000E-03 0.  1.
         11    1    4    4    0    0 -0.48548119114E-01  0.61634263378E-01  0.17868205159E-01  0.80468852162E-01  0.51100000000E-03 0. -1.
</event>
<event>
 8    1  0.1060404E+005  0.1043930E+01  0.7957747E-01            NaN
         13   -1    0    0    0    0  0.00000000000E+00  0.00000000000E+00  0.74505805969E-08  0.10566000000E+00  0.10566000000E+00 0. -1.
     999900   -1    0    0    0    0 -0.00000000000E+00 -0.00000000000E+00 -0.74505805969E-08  0.93827000000E+00  0.93827000000E+00 0. -1.
     999902    2    1    2    0    0  0.78008342889E-02 -0.15077609086E-01 -0.16149211857E-01  0.10204995848E+01  0.10202305711E+01 0.  0.
     999903    2    3    3    0    0 -0.96805852383E-01 -0.83506478786E-01  0.20201439093E-01  0.13092303448E+00  0.19698674126E-01 0.  0.
         14    1    1    2    0    0 -0.78008342889E-02  0.15077609086E-01  0.16149211857E-01  0.23430415168E-01  0.00000000000E+00 0.  1.
     999901    1    3    3    0    0  0.10460668667E+00  0.68428869700E-01 -0.36350650950E-01  0.88957655035E+00  0.88000000000E+00 0.  1.
        -11    1    4    4    0    0 -0.37265901647E-01 -0.44368346650E-01  0.58539251653E-02  0.58239395352E-01  0.51100000000E-03 0. -1.
         11    1    4    4    0    0 -0.59539950735E-01 -0.39138132136E-01  0.14347513928E-01  0.72683639132E-01  0.51100000000E-03 0.  1.
</event>
<event>
 8    1  0.1060404E+005  0.1043930E+01  0.7957747E-01            NaN
         13   -1    0    0    0    0  0.00000000000E+00  0.00000000000E+00  0.74505805969E-08  0.10566000000E+00  0.10566000000E+00 0. -1.
     999900   -1    0    0    0    0 -0.00000000000E+00 -0.00000000000E+00 -0.74505805969E-08  0.93827000000E+00  0.93827000000E+00 0.  1.
     999902    2    1    2    0    0  0.23411413633E-01 -0.26598094968E-02  0.23216043420E-02  0.10202538787E+01  0.10199791264E+01 0.  0.
     999903    2    3    3    0    0 -0.11094439813E+00  0.31505166851E-01 -0.50410364091E-01  0.12784175960E+00  0.22384719673E-01 0.  0.
         14    1    1    2    0    0 -0.23411413633E-01  0.26598094968E-02 -0.23216043420E-02  0.23676121337E-01  0.00000000000E+00 0. -1.
     999901    1    3    3    0    0  0.13435581176E+00 -0.34164976348E-01  0.52731968433E-01  0.89241211907E+00  0.88000000000E+00 0.  1.
        -11    1    4    4    0    0 -0.44699101094E-01  0.18378068166E-01 -0.10720239125E-01  0.49507046731E-01  0.51100000000E-03 0. -1.
         11    1    4    4    0    0 -0.66245297034E-01  0.13127098685E-01 -0.39690124966E-01  0.78334712866E-01  0.51100000000E-03 0.  1.
</event>
<event>
 8    1  0.1060404E+005  0.1043930E+01  0.7957747E-01            NaN
         13   -1    0    0    0    0  0.00000000000E+00  0.00000000000E+00  0.74505805969E-08  0.10566000000E+00  0.10566000000E+00 0.  1.
     999900   -1    0    0    0    0 -0.00000000000E+00 -0.00000000000E+00 -0.74505805969E-08  0.93827000000E+00  0.93827000000E+00 0.  1.
     999902    2    1    2    0    0  0.43066471452E-02  0.18299840553E-01 -0.15722508848E-01  0.10194222735E+01  0.10191276382E+01 0.  0.
     999903    2    3    3    0    0 -0.26797712010E-01 -0.15441073780E-01  0.12193099626E+00  0.12753975997E+00  0.21039923866E-01 0.  0.
         14    1    1    2    0    0 -0.43066471452E-02 -0.18299840553E-01  0.15722508848E-01  0.24507726504E-01  0.00000000000E+00 0.  1.
     999901    1    3    3    0    0  0.31104359155E-01  0.33740914334E-01 -0.13765350511E+00  0.89188251352E+00  0.88000000000E+00 0.  1.
        -11    1    4    4    0    0 -0.29487013364E-01 -0.16389061296E-01  0.10291587124E+00  0.10830523054E+00  0.51100000000E-03 0.  1.
         11    1    4    4    0    0  0.26893013541E-02  0.94798751584E-03  0.19015125021E-01  0.19234529437E-01  0.51100000000E-03 0. -1.
</event>
<event>
 8    1  0.1060404E+005  0.1043930E+01  0.7957747E-01            NaN
         13   -1    0    0    0    0  0.00000000000E+00  0.00000000000E+00  0.74505805969E-08  0.10566000000E+00  0.10566000000E+00 0.  1.
     999900   -1    0    0    0    0 -0.00000000000E+00 -0.00000000000E+00 -0.74505805969E-08  0.93827000000E+00  0.93827000000E+00 0.  1.
     999902    2    1    2    0    0  0.15698386295E-01 -0.20230167251E-01  0.63850794385E-02  0.10175393153E+01  0.10171970261E+01 0.  0.
     999903    2    3    3    0    0  0.12290837765E+00  0.22796321448E-01 -0.25726802287E-01  0.12940844999E+00  0.21413477155E-01 0.  0.
         14    1    1    2    0    0 -0.15698386295E-01  0.20230167251E-01 -0.63850794385E-02  0.26390684696E-01  0.00000000000E+00 0. -1.
     999901    1    3    3    0    0 -0.10720999136E+00 -0.43026488699E-01  0.32111881726E-01  0.88813086531E+00  0.88000000000E+00 0. -1.
        -11    1    4    4    0    0  0.10339635334E+00  0.15791065531E-01 -0.13847184917E-01  0.10550909575E+00  0.51100000000E-03 0. -1.
         11    1    4    4    0    0  0.19512024314E-01  0.70052559167E-02 -0.11879617370E-01  0.23899354241E-01  0.51100000000E-03 0.  1.
</event>
<event>
 8    1  0.1060404E+005  0.1043930E+01  0.7957747E-01            NaN
         13   -1    0    0    0    0  0.00000000000E+00  0.00000000000E+00  0.74505805969E-08  0.10566000000E+00  0.10566000000E+00 0. -1.
     999900   -1    0    0    0    0 -0.00000000000E+00 -0.00000000000E+00 -0.74505805969E-08  0.93827000000E+00  0.93827000000E+00 0.  1.
     999902    2    1    2    0    0  0.94918321519E-02 -0.11522042393E-01  0.11537130254E-01  0.10250631584E+01  0.10248895165E+01 0.  0.
     999903    2    3    3    0    0 -0.35684911284E-01 -0.11137516676E+00  0.67662786683E-01  0.13649032855E+00  0.19326572903E-01 0.  0.
         14    1    1    2    0    0 -0.94918321519E-02  0.11522042393E-01 -0.11537130254E-01  0.18866841628E-01  0.00000000000E+00 0.  1.
     999901    1    3    3    0    0  0.45176743436E-01  0.99853124370E-01 -0.56125656428E-01  0.88857282983E+00  0.88000000000E+00 0.  1.
        -11    1    4    4    0    0 -0.20934909092E-01 -0.58355504096E-01  0.24976536018E-01  0.66841033426E-01  0.51100000000E-03 0. -1.
         11    1    4    4    0    0 -0.14750002192E-01 -0.53019662668E-01  0.42686250664E-01  0.69649295121E-01  0.51100000000E-03 0.  1.
</event>
<event>
 8    1  0.1060404E+005  0.1043930E+01  0.7957747E-01            NaN
         13   -1    0    0    0    0  0.00000000000E+00  0.00000000000E+00  0.74505805969E-08  0.10566000000E+00  0.10566000000E+00 0.  1.
     999900   -1    0    0    0    0 -0.00000000000E+00 -0.00000000000E+00 -0.74505805969E-08  0.93827000000E+00  0.93827000000E+00 0. -1.
     999902    2    1    2    0    0 -0.11552688978E-01  0.15314142378E-01 -0.13924989823E-01  0.10202257194E+01  0.10199503054E+01 0.  0.
     999903    2    3    3    0    0  0.58250210831E-01  0.31733000087E-01  0.10977940377E+00  0.12868503004E+00  0.10404283118E-01 0.  0.
         14    1    1    2    0    0  0.11552688978E-01 -0.15314142378E-01  0.13924989823E-01  0.23704280647E-01  0.00000000000E+00 0. -1.
     999901    1    3    3    0    0 -0.69802899809E-01 -0.16418857708E-01 -0.12370439359E+00  0.89154068932E+00  0.88000000000E+00 0. -1.
        -11    1    4    4    0    0  0.40951872280E-01  0.19110976001E-01  0.66628805310E-01  0.80510521455E-01  0.51100000000E-03 0. -1.
         11    1    4    4    0    0  0.17298338551E-01  0.12622024085E-01  0.43150598461E-01  0.48174508583E-01  0.51100000000E-03 0.  1.
</event>
<event>
 7    1  0.1060404E+005  0.1043930E+01  0.7957747E-01            NaN
         13   -1    0    0    0    0  0.00000000000E+00  0.00000000000E+00  0.74505805969E-08  0.10566000000E+00  0.10566000000E+00 0. -1.
     999900   -1    0    0    0    0 -0.00000000000E+00 -0.00000000000E+00 -0.74505805969E-08  0.93827000000E+00  0.93827000000E+00 0. -1.
     999903    2    1    2    0    0  0.73550389100E-02 -0.19434065416E-01  0.10351956542E+00  0.10712293807E+00  0.18089885015E-01 0.  0.
         14    1    1    2    0    0  0.32638776373E-03  0.32150223626E-01  0.33095773519E-01  0.46141885884E-01  0.00000000000E+00 0. -1.
     999901    1    1    2    0    0 -0.76814266738E-02 -0.12716158210E-01 -0.13661533894E+00  0.89066517605E+00  0.88000000000E+00 0. -1.
        -11    1    3    3    0    0 -0.14649092798E-02 -0.16477403844E-01  0.82310401438E-01  0.83957811444E-01  0.51100000000E-03 0. -1.
         11    1    3    3    0    0  0.88199481898E-02 -0.29566615719E-02  0.21209163979E-01  0.23165126622E-01  0.51100000000E-03 0.  1.
</event>
<event>
 8    1  0.1060404E+005  0.1043930E+01  0.7957747E-01            NaN
         13   -1    0    0    0    0  0.00000000000E+00  0.00000000000E+00  0.74505805969E-08  0.10566000000E+00  0.10566000000E+00 0.  1.
     999900   -1    0    0    0    0 -0.00000000000E+00 -0.00000000000E+00 -0.74505805969E-08  0.93827000000E+00  0.93827000000E+00 0.  1.
     999902    2    1    2    0    0  0.12362180481E-03 -0.39373413335E-02 -0.23821678255E-01  0.10197848081E+01  0.10194989281E+01 0.  0.
     999903    2    3    3    0    0  0.81219697837E-01 -0.91112018972E-01  0.38324963836E-01  0.12959482660E+00  0.20687602791E-01 0.  0.
         14    1    1    2    0    0 -0.12362180481E-03  0.39373413335E-02  0.23821678255E-01  0.24145191944E-01  0.00000000000E+00 0.  1.
     999901    1    3    3    0    0 -0.81096076032E-01  0.87174677639E-01 -0.62146642092E-01  0.89018998146E+00  0.88000000000E+00 0.  1.
        -11    1    4    4    0    0  0.10594826646E-01 -0.65044555249E-02 -0.12227398275E-02  0.12502580014E-01  0.51100000000E-03 0. -1.
         11    1    4    4    0    0  0.70624871191E-01 -0.84607563447E-01  0.39547703664E-01  0.11709224658E+00  0.51100000000E-03 0.  1.
</event>
<event>
 8    1  0.1060404E+005  0.1043930E+01  0.7957747E-01            NaN
         13   -1    0    0    0    0  0.00000000000E+00  0.00000000000E+00  0.74505805969E-08  0.10566000000E+00  0.10566000000E+00 0.  1.
     999900   -1    0    0    0    0 -0.00000000000E+00 -0.00000000000E+00 -0.74505805969E-08  0.93827000000E+00  0.93827000000E+00 0.  1.
     999902    2    1    2    0    0 -0.18015458297E-01  0.46033926202E-02 -0.94759318662E-02  0.10230603750E+01  0.10228474909E+01 0.  0.
     999903    2    3    3    0    0  0.47778675672E-01  0.10353160328E-01  0.12022486913E+00  0.13110509271E+00  0.18561691716E-01 0.  0.
         14    1    1    2    0    0  0.18015458297E-01 -0.46033926202E-02  0.94759318662E-02  0.20869624961E-01  0.00000000000E+00 0.  1.
     999901    1    3    3    0    0 -0.65794133970E-01 -0.57497677076E-02 -0.12970080100E+00  0.89195528233E+00  0.88000000000E+00 0.  1.
        -11    1    4    4    0    0  0.11945724590E-01  0.11085348781E-01  0.33206456895E-01  0.36993447989E-01  0.51100000000E-03 0.  1.
         11    1    4    4    0    0  0.35832951083E-01 -0.73218845316E-03  0.87018412236E-01  0.94111644722E-01  0.51100000000E-03 0. -1.
</event>
<event>
 8    1  0.1060404E+005  0.1043930E+01  0.7957747E-01            NaN
         13   -1    0    0    0    0  0.00000000000E+00  0.00000000000E+00  0.74505805969E-08  0.10566000000E+00  0.10566000000E+00 0. -1.
     999900   -1    0    0    0    0 -0.00000000000E+00 -0.00000000000E+00 -0.74505805969E-08  0.93827000000E+00  0.93827000000E+00 0.  1.
     999902    2    1    2    0    0 -0.13568134633E-01 -0.19958432249E-01  0.45258687548E-02  0.10193756362E+01  0.10190798648E+01 0.  0.
     999903    2    3    3    0    0  0.27865290562E-01  0.89343110238E-01  0.84510776307E-01  0.12805013931E+00  0.22273327091E-01 0.  0.
         14    1    1    2    0    0  0.13568134633E-01  0.19958432249E-01 -0.45258687548E-02  0.24554363833E-01  0.00000000000E+00 0.  1.
     999901    1    3    3    0    0 -0.41433425195E-01 -0.10930154249E+00 -0.79984907552E-01  0.89132549686E+00  0.88000000000E+00 0.  1.
        -11    1    4    4    0    0  0.89544605265E-02  0.11243450543E-01  0.21806304392E-01  0.26122281211E-01  0.51100000000E-03 0. -1.
         11    1    4    4    0    0  0.18910830036E-01  0.78099659695E-01  0.62704471915E-01  0.10192785810E+00  0.51100000000E-03 0.  1.
</event>
<event>
 8    1  0.1060404E+005  0.1043930E+01  0.7957747E-01            NaN
         13   -1    0    0    0    0  0.00000000000E+00  0.00000000000E+00  0.74505805969E-08  0.10566000000E+00  0.10566000000E+00 0.  1.
     999900   -1    0    0    0    0 -0.00000000000E+00 -0.00000000000E+00 -0.74505805969E-08  0.93827000000E+00  0.93827000000E+00 0. -1.
     999902    2    1    2    0    0  0.21135499249E-01  0.75442853934E-02 -0.95679279476E-02  0.10195338770E+01  0.10192419515E+01 0.  0.
     999903    2    3    3    0    0  0.80577562974E-01  0.52117976954E-01  0.87162999722E-01  0.13112122219E+00  0.19656022258E-01 0.  0.
         14    1    1    2    0    0 -0.21135499249E-01 -0.75442853934E-02  0.95679279476E-02  0.24396122967E-01  0.00000000000E+00 0.  1.
     999901    1    3    3    0    0 -0.59442063725E-01 -0.44573691561E-01 -0.96730927670E-01  0.88841265484E+00  0.88000000000E+00 0. -1.
        -11    1    4    4    0    0  0.33683136980E-01  0.29981786565E-01  0.49926246871E-01  0.67278172464E-01  0.51100000000E-03 0.  1.
         11    1    4    4    0    0  0.46894425994E-01  0.22136190389E-01  0.37236752851E-01  0.63843049725E-01  0.51100000000E-03 0. -1.
</event>
<event>
 8    1  0.1060404E+005  0.1043930E+01  0.7957747E-01            NaN
         13   -1    0    0    0    0  0.00000000000E+00  0.00000000000E+00  0.74505805969E-08  0.10566000000E+00  0.10566000000E+00 0.  1.
     999900   -1    0    0    0    0 -0.00000000000E+00 -0.00000000000E+00 -0.74505805969E-08  0.93827000000E+00  0.93827000000E+00 0.  1.
     999902    2    1    2    0    0  0.18206832507E-02 -0.18806350255E-01  0.99576421159E-02  0.10225723706E+01  0.10223493066E+01 0.  0.
     999903    2    3    3    0    0 -0.81606602178E-01 -0.43541457380E-01 -0.92627200442E-01  0.13235015822E+00  0.19526138616E-01 0.  0.
         14    1    1    2    0    0 -0.18206832507E-02  0.18806350255E-01 -0.99576421159E-02  0.21357629408E-01  0.00000000000E+00 0. -1.
     999901    1    3    3    0    0  0.83427285429E-01  0.24735107124E-01  0.10258484256E+00  0.89022221237E+00  0.88000000000E+00 0. -1.
        -11    1    4    4    0    0 -0.37733139611E-01 -0.10810880197E-01 -0.31801989086E-01  0.50520219580E-01  0.51100000000E-03 0. -1.
         11    1    4    4    0    0 -0.43873462567E-01 -0.32730577183E-01 -0.60825211356E-01  0.81829938640E-01  0.51100000000E-03 0.  1.
</event>
<event>
 8    1  0.1060404E+005  0.1043930E+01  0.7957747E-01            NaN
         13   -1    0    0    0    0  0.00000000000E+00  0.00000000000E+00  0.74505805969E-08  0.10566000000E+00  0.10566000000E+00 0. -1.
     999900   -1    0    0    0    0 -0.00000000000E+00 -0.00000000000E+00 -0.74505805969E-08  0.93827000000E+00  0.93827000000E+00 0.  1.
     999902    2    1    2    0    0 -0.18169111306E-01 -0.10511978030E-01 -0.13105958354E-01  0.10191835976E+01  0.10188831244E+01 0.  0.
     999903    2    3    3    0    0  0.11588585059E+00 -0.48986458296E-01  0.12149112021E-01  0.12784256464E+00  0.19155076330E-01 0.  0.
         14    1    1    2    0    0  0.18169111306E-01  0.10511978030E-01  0.13105958354E-01  0.24746402407E-01  0.00000000000E+00 0. -1.
     999901    1    3    3    0    0 -0.13405496189E+00  0.38474480267E-01 -0.25255070375E-01  0.89134103295E+00  0.88000000000E+00 0.  1.
        -11    1    4    4    0    0  0.64756995925E-01 -0.29142035854E-01 -0.25500084841E-02  0.71059766671E-01  0.51100000000E-03 0.  1.
         11    1    4    4    0    0  0.51128854661E-01 -0.19844422442E-01  0.14699120506E-01  0.56782797973E-01  0.51100000000E-03 0. -1.
</event>
<event>
 8    1  0.1060404E+005  0.1043930E+01  0.7957747E-01            NaN
         13   -1    0    0    0    0  0.00000000000E+00  0.00000000000E+00  0.74505805969E-08  0.10566000000E+00  0.10566000000E+00 0.  1.
     999900   -1    0    0    0    0 -0.00000000000E+00 -0.00000000000E+00 -0.74505805969E-08  0.93827000000E+00  0.93827000000E+00 0.  1.
     999902    2    1    2    0    0 -0.21545007405E-01  0.51817068671E-02 -0.82962235098E-02  0.10202685386E+01  0.10199941304E+01 0.  0.
     999903    2    3    3    0    0  0.10809060331E+00  0.39821187540E-01  0.52974469983E-01  0.12799090073E+00  0.17494876385E-01 0.  0.
         14    1    1    2    0    0  0.21545007405E-01 -0.51817068671E-02  0.82962235098E-02  0.23661461381E-01  0.00000000000E+00 0. -1.
     999901    1    3    3    0    0 -0.12963561072E+00 -0.34639480673E-01 -0.61270693492E-01  0.89227763788E+00  0.88000000000E+00 0.  1.
        -11    1    4    4    0    0  0.16061232726E-01  0.96485958541E-02  0.14824237469E-01  0.23897232814E-01  0.51100000000E-03 0. -1.
         11    1    4    4    0    0  0.92029370585E-01  0.30172591686E-01  0.38150232513E-01  0.10409366792E+00  0.51100000000E-03 0.  1.
</event>
<event>
 8    1  0.1060404E+005  0.1043930E+01  0.7957747E-01            NaN
         13   -1    0    0    0    0  0.00000000000E+00  0.00000000000E+00  0.74505805969E-08  0.10566000000E+00  0.10566000000E+00 0. -1.
     999900   -1    0    0    0    0 -0.00000000000E+00 -0.00000000000E+00 -0.74505805969E-08  0.93827000000E+00  0.93827000000E+00 0. -1.
     999902    2    1    2    0    0 -0.10998008880E-01  0.16839356902E-01 -0.12543647774E-01  0.10202263454E+01  0.10199509462E+01 0.  0.
     999903    2    3    3    0    0  0.93482212469E-01  0.72571659919E-01  0.50087788451E-01  0.13008877008E+00  0.20217113499E-01 0.  0.
         14    1    1    2    0    0  0.10998008880E-01 -0.16839356902E-01  0.12543647774E-01  0.23703654564E-01  0.00000000000E+00 0. -1.
     999901    1    3    3    0    0 -0.10448022135E+00 -0.55732303017E-01 -0.62631436225E-01  0.89013757535E+00  0.88000000000E+00 0. -1.
        -11    1    4    4    0    0  0.19721907881E-01  0.25172948590E-01  0.87730603536E-02  0.33164117660E-01  0.51100000000E-03 0. -1.
         11    1    4    4    0    0  0.73760304588E-01  0.47398711329E-01  0.41314728098E-01  0.96924652423E-01  0.51100000000E-03 0.  1.
</event>
<event>
 8    1  0.1060404E+005  0.1043930E+01  0.7957747E-01            NaN
         13   -1    0    0    0    0  0.00000000000E+00  0.00000000000E+00  0.74505805969E-08  0.10566000000E+00  0.10566000000E+00 0. -1.
     999900   -1    0    0    0    0 -0.00000000000E+00 -0.00000000000E+00 -0.74505805969E-08  0.93827000000E+00  0.93827000000E+00 0. -1.
     999902    2    1    2    0    0  0.16592855649E-03  0.64542205926E-02 -0.22445537150E-01  0.10205743447E+01  0.10203070648E+01 0.  0.
     999903    2    3    3    0    0  0.44431849302E-01 -0.87754955401E-01 -0.84393241132E-01  0.13227689532E+00  0.26454422247E-01 0.  0.
         14    1    1    2    0    0 -0.16592855649E-03 -0.64542205926E-02  0.22445537150E-01  0.23355655283E-01  0.00000000000E+00 0. -1.
     999901    1    3    3    0    0 -0.44265920746E-01  0.94209175993E-01  0.61947703982E-01  0.88829744940E+00  0.88000000000E+00 0. -1.
        -11    1    4    4    0    0  0.26220311526E-01 -0.23997895440E-01 -0.29261772653E-01  0.46042547517E-01  0.51100000000E-03 0. -1.
         11    1    4    4    0    0  0.18211537776E-01 -0.63757059961E-01 -0.55131468479E-01  0.86234347801E-01  0.51100000000E-03 0.  1.
</event>
<event>
 8    1  0.1060404E+005  0.1043930E+01  0.7957747E-01            NaN
         13   -1    0    0    0    0  0.00000000000E+00  0.00000000000E+00  0.74505805969E-08  0.10566000000E+00  0.10566000000E+00 0.  1.
     999900   -1    0    0    0    0 -0.00000000000E+00 -0.00000000000E+00 -0.74505805969E-08  0.93827000000E+00  0.93827000000E+00 0. -1.
     999902    2    1    2    0    0 -0.13451728505E-01 -0.10979952511E-01 -0.15443714481E-01  0.10206917412E+01  0.10204271722E+01 0.  0.
     999903    2    3    3    0    0 -0.33208785900E-01  0.12291562171E+00  0.14797894277E-01  0.12983096584E+00  0.20640457683E-01 0.  0.
         14    1    1    2    0    0  0.13451728505E-01  0.10979952511E-01  0.15443714481E-01  0.23238258840E-01  0.00000000000E+00 0. -1.
     999901    1    3    3    0    0  0.19757057395E-01 -0.13389557422E+00 -0.30241608758E-01  0.89086077533E+00  0.88000000000E+00 0.  1.
        -11    1    4    4    0    0 -0.24297583614E-01  0.10865402606E+00  0.78080902334E-02  0.11161226340E+00  0.51100000000E-03 0.  1.
         11    1    4    4    0    0 -0.89112022857E-02  0.14261595655E-01  0.69898040438E-02  0.18218702434E-01  0.51100000000E-03 0. -1.
</event>
<event>
 8    1  0.1060404E+005  0.1043930E+01  0.7957747E-01            NaN
         13   -1    0    0    0    0  0.00000000000E+00  0.00000000000E+00  0.74505805969E-08  0.10566000000E+00  0.10566000000E+00 0.  1.
     999900   -1    0    0    0    0 -0.00000000000E+00 -0.00000000000E+00 -0.74505805969E-08  0.93827000000E+00  0.93827000000E+00 0. -1.
     999902    2    1    2    0    0 -0.99113425461E-02 -0.46505920522E-02  0.21248429226E-01  0.10200268943E+01  0.10197467855E+01 0.  0.
     999903    2    3    3    0    0 -0.24340861513E-01  0.90500674685E-01  0.90911842755E-01  0.13204324256E+00  0.19687688901E-01 0.  0.
         14    1    1    2    0    0  0.99113425461E-02  0.46505920522E-02 -0.21248429226E-01  0.23903105699E-01  0.00000000000E+00 0. -1.
     999901    1    3    3    0    0  0.14429518967E-01 -0.95151266737E-01 -0.69663413530E-01  0.88798365174E+00  0.88000000000E+00 0. -1.
        -11    1    4    4    0    0 -0.70293985394E-02  0.61082607556E-01  0.61804215746E-01  0.87180958899E-01  0.51100000000E-03 0. -1.
         11    1    4    4    0    0 -0.17311462973E-01  0.29418067129E-01  0.29107627009E-01  0.44862283658E-01  0.51100000000E-03 0.  1.
</event>
<event>
 8    1  0.1060404E+005  0.1043930E+01  0.7957747E-01            NaN
         13   -1    0    0    0    0  0.00000000000E+00  0.00000000000E+00  0.74505805969E-08  0.10566000000E+00  0.10566000000E+00 0. -1.
     999900   -1    0    0    0    0 -0.00000000000E+00 -0.00000000000E+00 -0.74505805969E-08  0.93827000000E+00  0.93827000000E+00 0. -1.
     999902    2    1    2    0    0  0.22521827071E-01  0.21581701693E-02  0.11552009168E-01  0.10185264705E+01  0.10182096208E+01 0.  0.
     999903    2    3    3    0    0 -0.88618155623E-01 -0.29023642734E-01 -0.82331659481E-01  0.12603638967E+00  0.20276094928E-01 0.  0.
         14    1    1    2    0    0 -0.22521827071E-01 -0.21581701693E-02 -0.11552009168E-01  0.25403529458E-01  0.00000000000E+00 0.  1.
     999901    1    3    3    0    0  0.11113998269E+00  0.31181812903E-01  0.93883668649E-01  0.89249008087E+00  0.88000000000E+00 0. -1.
        -11    1    4    4    0    0 -0.35852263265E-01 -0.22312546354E-01 -0.35863883552E-01  0.55404997703E-01  0.51100000000E-03 0.  1.
         11    1    4    4    0    0 -0.52765892358E-01 -0.67110963798E-02 -0.46467775929E-01  0.70631391971E-01  0.51100000000E-03 0. -1.
</event>
<event>
 8    1  0.1060404E+005  0.1043930E+01  0.7957747E-01            NaN
         13   -1    0    0    0    0  0.00000000000E+00  0.00000000000E+00  0.74505805969E-08  0.10566000000E+00  0.10566000000E+00 0.  1.
     999900   -1    0    0    0    0 -0.00000000000E+00 -0.00000000000E+00 -0.74505805969E-08  0.93827000000E+00  0.93827000000E+00 0. -1.
     999902    2    1    2    0    0 -0.35257930492E-02 -0.21817041333E-01  0.98580064679E-02  0.10197309339E+01  0.10194437614E+01 0.  0.
     999903    2    3    3    0    0  0.47662029172E-01 -0.10172822989E+00 -0.65035919475E-01  0.13146571936E+00  0.20814964875E-01 0.  0.
         14    1    1    2    0    0  0.35257930492E-02  0.21817041333E-01 -0.98580064679E-02  0.24199066111E-01  0.00000000000E+00 0. -1.
     999901    1    3    3    0    0 -0.51187822222E-01  0.79911188560E-01  0.74893925942E-01  0.88826521453E+00  0.88000000000E+00 0.  1.
        -11    1    4    4    0    0  0.42226540246E-01 -0.70729049673E-01 -0.51869119076E-01  0.97346524352E-01  0.51100000000E-03 0. -1.
         11    1    4    4    0    0  0.54354889263E-02 -0.30999180219E-01 -0.13166800399E-01  0.34119195006E-01  0.51100000000E-03 0.  1.
</event>
<event>
 8    1  0.1060404E+005  0.1043930E+01  0.7957747E-01            NaN
         13   -1    0    0    0    0  0.00000000000E+00  0.00000000000E+00  0.74505805969E-08  0.10566000000E+00  0.10566000000E+00 0.  1.
     999900   -1    0    0    0    0 -0.00000000000E+00 -0.00000000000E+00 -0.74505805969E-08  0.93827000000E+00  0.93827000000E+00 0. -1.
     999902    2    1    2    0    0 -0.87654285366E-02 -0.12207361249E-01 -0.18186464181E-01  0.10203376308E+01  0.10200648415E+01 0.  0.
     999903    2    3    3    0    0 -0.12011380337E+00 -0.19134665633E-01  0.44777686377E-01  0.13106212095E+00  0.19462198290E-01 0.  0.
         14    1    1    2    0    0  0.87654285366E-02  0.12207361249E-01  0.18186464181E-01  0.23592369222E-01  0.00000000000E+00 0.  1.
     999901    1    3    3    0    0  0.11134837483E+00  0.69273043837E-02 -0.62964150558E-01  0.88927550983E+00  0.88000000000E+00 0. -1.
        -11    1    4    4    0    0 -0.91352260917E-01 -0.12410549747E-01  0.25037427053E-01  0.95532147438E-01  0.51100000000E-03 0. -1.
         11    1    4    4    0    0 -0.28761542452E-01 -0.67241158856E-02  0.19740259324E-01  0.35529973513E-01  0.51100000000E-03 0.  1.
</event>
<event>
 8    1  0.1060404E+005  0.1043930E+01  0.7957747E-01            NaN
         13   -1    0    0    0    0  0.00000000000E+00  0.00000000000E+00  0.74505805969E-08  0.10566000000E+00  0.10566000000E+00 0.  1.
     999900   -1    0    0    0    0 -0.00000000000E+00 -0.00000000000E+00 -0.74505805969E-08  0.93827000000E+00  0.93827000000E+00 0.  1.
     999902    2    1    2    0    0  0.61446889663E-02  0.18299718455E-01 -0.13522155888E-01  0.10203612580E+01  0.10200890213E+01 0.  0.
     999903    2    3    3    0    0  0.59725259448E-01 -0.11221604148E+00  0.55690863202E-02  0.12891876597E+00  0.20724066108E-01 0.  0.
         14    1    1    2    0    0 -0.61446889663E-02 -0.18299718455E-01  0.13522155888E-01  0.23568741966E-01  0.00000000000E+00 0.  1.
     999901    1    3    3    0    0 -0.53580570482E-01  0.13051575993E+00 -0.19091242209E-01  0.89144249206E+00  0.88000000000E+00 0.  1.
        -11    1    4    4    0    0  0.42911505971E-01 -0.58817879812E-01  0.26439408775E-02  0.72857339195E-01  0.51100000000E-03 0. -1.
         11    1    4    4    0    0  0.16813753477E-01 -0.53398161667E-01  0.29251454427E-02  0.56061426777E-01  0.51100000000E-03 0.  1.
</event>
<event>
 8    1  0.1060404E+005  0.1043930E+01  0.7957747E-01            NaN
         13   -1    0    0    0    0  0.00000000000E+00  0.00000000000E+00  0.74505805969E-08  0.10566000000E+00  0.10566000000E+00 0.  1.
     999900   -1    0    0    0    0 -0.00000000000E+00 -0.00000000000E+00 -0.74505805969E-08  0.93827000000E+00  0.93827000000E+00 0. -1.
     999902    2    1    2    0    0 -0.66994299855E-02 -0.11611368200E-02  0.22296612009E-01  0.10206197124E+01  0.10203534818E+01 0.  0.
     999903    2    3    3    0    0 -0.72223845777E-01 -0.29852693114E-01 -0.10095990377E+00  0.12915528622E+00  0.19512011786E-01 0.  0.
         14    1    1    2    0    0  0.66994299855E-02  0.11611368200E-02 -0.22296612009E-01  0.23310287598E-01  0.00000000000E+00 0. -1.
     999901    1    3    3    0    0  0.65524415791E-01  0.28691556294E-01  0.12325651578E+00  0.89146442618E+00  0.88000000000E+00 0.  1.
        -11    1    4    4    0    0 -0.66312909231E-01 -0.20787989005E-01 -0.90403468401E-01  0.11402890264E+00  0.51100000000E-03 0.  1.
         11    1    4    4    0    0 -0.59109365455E-02 -0.90647041091E-02 -0.10556435370E-01  0.15126383578E-01  0.51100000000E-03 0. -1.
</event>
<event>
 8    1  0.1060404E+005  0.1043930E+01  0.7957747E-01            NaN
         13   -1    0    0    0    0  0.00000000000E+00  0.00000000000E+00  0.74505805969E-08  0.10566000000E+00  0.10566000000E+00 0.  1.
     999900   -1    0    0    0    0 -0.00000000000E+00 -0.00000000000E+00 -0.74505805969E-08  0.93827000000E+00  0.93827000000E+00 0.  1.
     999902    2    1    2    0    0  0.22297453633E-01  0.66663781897E-02 -0.35997675156E-02  0.10203805762E+01  0.10201087907E+01 0.  0.
     999903    2    3    3    0    0  0.72944895985E-01  0.81005093699E-01 -0.73512814891E-01  0.13303665060E+00  0.20293678706E-01 0.  0.
         14    1    1    2    0    0 -0.22297453633E-01 -0.66663781897E-02  0.35997675156E-02  0.23549423833E-01  0.00000000000E+00 0. -1.
     999901    1    3    3    0    0 -0.50647442352E-01 -0.74338715509E-01  0.69913047375E-01  0.88734392556E+00  0.88000000000E+00 0. -1.
        -11    1    4    4    0    0  0.52394782107E-01  0.46287498886E-01 -0.53272157923E-01  0.87897267739E-01  0.51100000000E-03 0.  1.
         11    1    4    4    0    0  0.20550113878E-01  0.34717594813E-01 -0.20240656967E-01  0.45139382866E-01  0.51100000000E-03 0. -1.
</event>
<event>
 8    1  0.1060404E+005  0.1043930E+01  0.7957747E-01            NaN
         13   -1    0    0    0    0  0.00000000000E+00  0.00000000000E+00  0.74505805969E-08  0.10566000000E+00  0.10566000000E+00 0. -1.
     999900   -1    0    0    0    0 -0.00000000000E+00 -0.00000000000E+00 -0.74505805969E-08  0.93827000000E+00  0.93827000000E+00 0. -1.
     999902    2    1    2    0    0 -0.17104907175E-01  0.15857977950E-01  0.11430978015E-02  0.10205770561E+01  0.10203098390E+01 0.  0.
     999903    2    3    3    0    0 -0.13027164130E+00 -0.12573734502E-01 -0.11773085191E-01  0.13278096482E+00  0.19062522297E-01 0.  0.
         14    1    1    2    0    0  0.17104907175E-01 -0.15857977950E-01 -0.11430978015E-02  0.23352943855E-01  0.00000000000E+00 0. -1.
     999901    1    3    3    0    0  0.11316673413E+00  0.28431712452E-01  0.12916182993E-01  0.88779609132E+00  0.88000000000E+00 0.  1.
        -11    1    4    4    0    0 -0.67174784817E-01 -0.15238658161E-01 -0.23223552081E-02  0.68922586084E-01  0.51100000000E-03 0. -1.
         11    1    4    4    0    0 -0.63096856488E-01  0.26649236588E-02 -0.94507299831E-02  0.63858378737E-01  0.51100000000E-03 0.  1.
</event>
<event>
 8    1  0.1060404E+005  0.1043930E+01  0.7957747E-01            NaN
         13   -1    0    0    0    0  0.00000000000E+00  0.00000000000E+00  0.74505805969E-08  0.10566000000E+00  0.10566000000E+00 0. -1.
     999900   -1    0    0    0    0 -0.00000000000E+00 -0.00000000000E+00 -0.74505805969E-08  0.93827000000E+00  0.93827000000E+00 0. -1.
     999902    2    1    2    0    0 -0.73433281511E-02 -0.13116412531E-01  0.14812305896E-01  0.10228262290E+01  0.10226084908E+01 0.  0.
     999903    2    3    3    0    0 -0.11999536407E+00 -0.12840505025E-02 -0.53893725152E-01  0.13290993813E+00  0.18973187873E-01 0.  0.
         14    1    1    2    0    0  0.73433281511E-02  0.13116412531E-01 -0.14812305896E-01  0.21103771037E-01  0.00000000000E+00 0.  1.
     999901    1    3    3    0    0  0.11265203592E+00 -0.11832362029E-01  0.68706031048E-01  0.88991629083E+00  0.88000000000E+00 0.  1.
        -11    1    4    4    0    0 -0.79919295992E-01 -0.15452781717E-02 -0.25920795266E-01  0.84033508225E-01  0.51100000000E-03 0. -1.
         11    1    4    4    0    0 -0.40076068082E-01  0.26122766926E-03 -0.27972929886E-01  0.48876429904E-01  0.51100000000E-03 0.  1.
</event>
<event>
 8    1  0.1162823E+005  0.1043930E+01  0.7957747E-01            NaN
         13   -1    0    0    0    0  0.00000000000E+00  0.00000000000E+00  0.74505805969E-08  0.10566000000E+00  0.10566000000E+00 0.  1.
     999900   -1    0    0    0    0 -0.00000000000E+00 -0.00000000000E+00 -0.74505805969E-08  0.93827000000E+00  0.93827000000E+00 0.  1.
     999902    2    1    2    0    0  0.16433976400E-02  0.15780123861E-01  0.18679391096E-01  0.10194221907E+01  0.10191275534E+01 0.  0.
     999903    2    3    3    0    0  0.87345257480E-01  0.95807572950E-01  0.47593729450E-02  0.13153539145E+00  0.21693836294E-01 0.  0.
         14    1    1    2    0    0 -0.16433976400E-02 -0.15780123861E-01 -0.18679391096E-01  0.24507809298E-01  0.00000000000E+00 0. -1.
     999901    1    3    3    0    0 -0.85701859840E-01 -0.80027449089E-01  0.13920018151E-01  0.88788679926E+00  0.88000000000E+00 0. -1.
        -11    1    4    4    0    0  0.33178101516E-01  0.52285759873E-01  0.71120741107E-03  0.61930235287E-01  0.51100000000E-03 0.  1.
         11    1    4    4    0    0  0.54167155964E-01  0.43521813077E-01  0.40481655339E-02  0.69605156159E-01  0.51100000000E-03 0. -1.
</event>
<event>
 7    1  0.1071192E+005  0.1043930E+01  0.7957747E-01            NaN
         13   -1    0    0    0    0  0.00000000000E+00  0.00000000000E+00  0.74505805969E-08  0.10566000000E+00  0.10566000000E+00 0. -1.
     999900   -1    0    0    0    0 -0.00000000000E+00 -0.00000000000E+00 -0.74505805969E-08  0.93827000000E+00  0.93827000000E+00 0. -1.
     999903    2    1    2    0    0 -0.33574537060E-01  0.10239959149E+00  0.45169216097E-02  0.11045879301E+00  0.23828900427E-01 0.  0.
         14    1    1    2    0    0  0.34143482406E-01 -0.30816093623E-01  0.20163932811E-01  0.50219450449E-01  0.00000000000E+00 0. -1.
     999901    1    1    2    0    0 -0.56894534613E-03 -0.71583497865E-01 -0.24680854421E-01  0.88325175655E+00  0.88000000000E+00 0.  1.
        -11    1    3    3    0    0 -0.35996325116E-01  0.83524898329E-01  0.26368086368E-03  0.90953145692E-01  0.51100000000E-03 0.  1.
         11    1    3    3    0    0  0.24217880560E-02  0.18874693160E-01  0.42532407460E-02  0.19505647313E-01  0.51100000000E-03 0. -1.
</event>
<event>
 8    1  0.1060404E+005  0.1043930E+01  0.7957747E-01            NaN
         13   -1    0    0    0    0  0.00000000000E+00  0.00000000000E+00  0.74505805969E-08  0.10566000000E+00  0.10566000000E+00 0.  1.
     999900   -1    0    0    0    0 -0.00000000000E+00 -0.00000000000E+00 -0.74505805969E-08  0.93827000000E+00  0.93827000000E+00 0.  1.
     999902    2    1    2    0    0 -0.13561140479E-01 -0.18610259075E-01  0.42357524510E-02  0.10205165878E+01  0.10202479689E+01 0.  0.
     999903    2    3    3    0    0 -0.63897555477E-01  0.37348306244E-01 -0.10547643252E+00  0.13051553201E+00  0.20766143165E-01 0.  0.
         14    1    1    2    0    0  0.13561140479E-01  0.18610259075E-01 -0.42357524510E-02  0.23413412240E-01  0.00000000000E+00 0.  1.
     999901    1    3    3    0    0  0.50336414998E-01 -0.55958565319E-01  0.10971218498E+00  0.89000105575E+00  0.88000000000E+00 0. -1.
        -11    1    4    4    0    0 -0.15686755457E-01  0.15684028367E-01 -0.19236478375E-01  0.29366073348E-01  0.51100000000E-03 0.  1.
         11    1    4    4    0    0 -0.48210800020E-01  0.21664277877E-01 -0.86239954150E-01  0.10114945866E+00  0.51100000000E-03 0. -1.
</event>
<event>
 8    1  0.1060404E+005  0.1043930E+01  0.7957747E-01            NaN
         13   -1    0    0    0    0  0.00000000000E+00  0.00000000000E+00  0.74505805969E-08  0.10566000000E+00  0.10566000000E+00 0.  1.
     999900   -1    0    0    0    0 -0.00000000000E+00 -0.00000000000E+00 -0.74505805969E-08  0.93827000000E+00  0.93827000000E+00 0. -1.
     999902    2    1    2    0    0 -0.11984997009E-01  0.45217957849E-02 -0.21774362603E-01  0.10186671883E+01  0.10183538829E+01 0.  0.
     999903    2    3    3    0    0  0.65028467015E-01 -0.81201543017E-01  0.69227250938E-01  0.12650080348E+00  0.19688801337E-01 0.  0.
         14    1    1    2    0    0  0.11984997009E-01 -0.45217957849E-02  0.21774362603E-01  0.25262811744E-01  0.00000000000E+00 0.  1.
     999901    1    3    3    0    0 -0.77013464023E-01  0.85723338802E-01 -0.91001613542E-01  0.89216638478E+00  0.88000000000E+00 0. -1.
        -11    1    4    4    0    0  0.35612301105E-01 -0.48918107153E-01  0.28918894962E-01  0.67065496377E-01  0.51100000000E-03 0. -1.
         11    1    4    4    0    0  0.29416165910E-01 -0.32283435864E-01  0.40308355976E-01  0.59435307104E-01  0.51100000000E-03 0.  1.
</event>
<event>
 8    1  0.1060404E+005  0.1043930E+01  0.7957747E-01            NaN
         13   -1    0    0    0    0  0.00000000000E+00  0.00000000000E+00  0.74505805969E-08  0.10566000000E+00  0.10566000000E+00 0. -1.
     999900   -1    0    0    0    0 -0.00000000000E+00 -0.00000000000E+00 -0.74505805969E-08  0.93827000000E+00  0.93827000000E+00 0. -1.
     999902    2    1    2    0    0  0.71943620757E-02  0.11336334436E-01  0.19683641381E-01  0.10201031861E+01  0.10198248836E+01 0.  0.
     999903    2    3    3    0    0  0.15525880507E-01 -0.32567499733E-01  0.12603248961E+00  0.13257457336E+00  0.19751811576E-01 0.  0.
         14    1    1    2    0    0 -0.71943620757E-02 -0.11336334436E-01 -0.19683641381E-01  0.23826813931E-01  0.00000000000E+00 0.  1.
     999901    1    3    3    0    0 -0.83315184316E-02  0.43903834169E-01 -0.10634884823E+00  0.88752861271E+00  0.88000000000E+00 0. -1.
        -11    1    4    4    0    0  0.84889109202E-02 -0.12521493797E-01  0.24166456184E-01  0.28515401821E-01  0.51100000000E-03 0.  1.
         11    1    4    4    0    0  0.70369695870E-02 -0.20046005937E-01  0.10186603343E+00  0.10405917154E+00  0.51100000000E-03 0. -1.
</event>
<event>
 8    1  0.1060404E+005  0.1043930E+01  0.7957747E-01            NaN
         13   -1    0    0    0    0  0.00000000000E+00  0.00000000000E+00  0.74505805969E-08  0.10566000000E+00  0.10566000000E+00 0.  1.
     999900   -1    0    0    0    0 -0.00000000000E+00 -0.00000000000E+00 -0.74505805969E-08  0.93827000000E+00  0.93827000000E+00 0.  1.
     999902    2    1    2    0    0  0.10690395573E-01  0.14004560915E-01 -0.16035161564E-01  0.10201069295E+01  0.10198287154E+01 0.  0.
     999903    2    3    3    0    0 -0.10102860577E+00  0.73535440387E-01  0.29534704340E-01  0.12988129875E+00  0.19560491516E-01 0.  0.
         14    1    1    2    0    0 -0.10690395573E-01 -0.14004560915E-01  0.16035161564E-01  0.23823070548E-01  0.00000000000E+00 0.  1.
     999901    1    3    3    0    0  0.11171900135E+00 -0.59530879472E-01 -0.45569865904E-01  0.89022563070E+00  0.88000000000E+00 0. -1.
        -11    1    4    4    0    0 -0.29086505740E-01  0.30573519634E-01  0.45851133650E-02  0.42450551287E-01  0.51100000000E-03 0. -1.
         11    1    4    4    0    0 -0.71942100033E-01  0.42961920753E-01  0.24949590975E-01  0.87430747467E-01  0.51100000000E-03 0.  1.
</event>
<event>
 8    1  0.1060404E+005  0.1043930E+01  0.7957747E-01            NaN
         13   -1    0    0    0    0  0.00000000000E+00  0.00000000000E+00  0.74505805969E-08  0.10566000000E+00  0.10566000000E+00 0. -1.
     999900   -1    0    0    0    0 -0.00000000000E+00 -0.00000000000E+00 -0.74505805969E-08  0.93827000000E+00  0.93827000000E+00 0. -1.
     999902    2    1    2    0    0 -0.12756003885E-01 -0.40297334051E-02  0.19125213715E-01  0.10205905873E+01  0.10203236833E+01 0.  0.
     999903    2    3    3    0    0 -0.73210629362E-01  0.10214472977E+00  0.35461110388E-01  0.13199920768E+00  0.19312131092E-01 0.  0.
         14    1    1    2    0    0  0.12756003885E-01  0.40297334051E-02 -0.19125213715E-01  0.23339412719E-01  0.00000000000E+00 0.  1.
     999901    1    3    3    0    0  0.60454625477E-01 -0.10617446318E+00 -0.16335896673E-01  0.88859137960E+00  0.88000000000E+00 0.  1.
        -11    1    4    4    0    0 -0.28259765098E-01  0.26443899595E-01  0.60606144013E-02  0.39177625210E-01  0.51100000000E-03 0. -1.
         11    1    4    4    0    0 -0.44950864264E-01  0.75700830179E-01  0.29400495987E-01  0.92821582475E-01  0.51100000000E-03 0.  1.
</event>
<event>
 8    1  0.1060404E+005  0.1043930E+01  0.7957747E-01            NaN
         13   -1    0    0    0    0  0.00000000000E+00  0.00000000000E+00  0.74505805969E-08  0.10566000000E+00  0.10566000000E+00 0. -1.
     999900   -1    0    0    0    0 -0.00000000000E+00 -0.00000000000E+00 -0.74505805969E-08  0.93827000000E+00  0.93827000000E+00 0.  1.
     999902    2    1    2    0    0  0.78020098235E-02  0.20422728675E-01 -0.91185747491E-02  0.10202422899E+01  0.10199672654E+01 0.  0.
     999903    2    3    3    0    0  0.12361177964E+00 -0.33126608757E-01 -0.19865480901E-01  0.13097577737E+00  0.19564576488E-01 0.  0.
         14    1    1    2    0    0 -0.78020098235E-02 -0.20422728675E-01  0.91185747491E-02  0.23687710090E-01  0.00000000000E+00 0.  1.
     999901    1    3    3    0    0 -0.11580976982E+00  0.53549337432E-01  0.10746906152E-01  0.88926651254E+00  0.88000000000E+00 0.  1.
        -11    1    4    4    0    0  0.10468648716E+00 -0.23770997488E-01 -0.22528132092E-01  0.10969092383E+00  0.51100000000E-03 0.  1.
         11    1    4    4    0    0  0.18925292485E-01 -0.93556112686E-02  0.26626511913E-02  0.21284853540E-01  0.51100000000E-03 0. -1.
</event>
<event>
 8    1  0.1060404E+005  0.1043930E+01  0.7957747E-01            NaN
         13   -1    0    0    0    0  0.00000000000E+00  0.00000000000E+00  0.74505805969E-08  0.10566000000E+00  0.10566000000E+00 0.  1.
     999900   -1    0    0    0    0 -0.00000000000E+00 -0.00000000000E+00 -0.74505805969E-08  0.93827000000E+00  0.93827000000E+00 0.  1.
     999902    2    1    2    0    0 -0.13167396077E-01 -0.15895073180E-01  0.12323092313E-01  0.10198906099E+01  0.10196072597E+01 0.  0.
     999903    2    3    3    0    0  0.64518494625E-01 -0.99055020456E-01 -0.50918733380E-01  0.13031194395E+00  0.20345812860E-01 0.  0.
         14    1    1    2    0    0  0.13167396077E-01  0.15895073180E-01 -0.12323092313E-01  0.24039390072E-01  0.00000000000E+00 0. -1.
     999901    1    3    3    0    0 -0.77685890703E-01  0.83159947276E-01  0.63241825693E-01  0.88957866598E+00  0.88000000000E+00 0.  1.
        -11    1    4    4    0    0  0.62421760906E-01 -0.87152969374E-01 -0.49673976198E-01  0.11815194174E+00  0.51100000000E-03 0. -1.
         11    1    4    4    0    0  0.20967337191E-02 -0.11902051082E-01 -0.12447571818E-02  0.12160002207E-01  0.51100000000E-03 0.  1.
</event>
<event>
 8    1  0.1060404E+005  0.1043930E+01  0.7957747E-01            NaN
         13   -1    0    0    0    0  0.00000000000E+00  0.00000000000E+00  0.74505805969E-08  0.10566000000E+00  0.10566000000E+00 0.  1.
     999900   -1    0    0    0    0 -0.00000000000E+00 -0.00000000000E+00 -0.74505805969E-08  0.93827000000E+00  0.93827000000E+00 0. -1.
     999902    2    1    2    0    0 -0.12405652010E-01 -0.18524929707E-01 -0.69832212153E-02  0.10205668110E+01  0.10202993566E+01 0.  0.
     999903    2    3    3    0    0 -0.40514511868E-01  0.12077678199E+00 -0.78383088618E-02  0.12916577550E+00  0.19846957832E-01 0.  0.
         14    1    1    2    0    0  0.12405652010E-01  0.18524929707E-01  0.69832212153E-02  0.23363189016E-01  0.00000000000E+00 0.  1.
     999901    1    3    3    0    0  0.28108859858E-01 -0.13930171170E+00  0.85508764643E-03  0.89140103548E+00  0.88000000000E+00 0. -1.
        -11    1    4    4    0    0 -0.71495220601E-02  0.36913653694E-01  0.52354149681E-02  0.37965829184E-01  0.51100000000E-03 0.  1.
         11    1    4    4    0    0 -0.33364989808E-01  0.83863128297E-01 -0.13073723830E-01  0.91199946318E-01  0.51100000000E-03 0. -1.
</event>
<event>
 8    1  0.1060404E+005  0.1043930E+01  0.7957747E-01            NaN
         13   -1    0    0    0    0  0.00000000000E+00  0.00000000000E+00  0.74505805969E-08  0.10566000000E+00  0.10566000000E+00 0.  1.
     999900   -1    0    0    0    0 -0.00000000000E+00 -0.00000000000E+00 -0.74505805969E-08  0.93827000000E+00  0.93827000000E+00 0.  1.
     999902    2    1    2    0    0  0.26456302821E-02  0.91613034978E-02 -0.23370476536E-01  0.10186890013E+01  0.10183762435E+01 0.  0.
     999903    2    3    3    0    0  0.56093940864E-01  0.20350224821E-01 -0.11612946327E+00  0.13213040568E+00  0.20291131425E-01 0.  0.
         14    1    1    2    0    0 -0.26456302821E-02 -0.91613034978E-02  0.23370476536E-01  0.25240998691E-01  0.00000000000E+00 0.  1.
     999901    1    3    3    0    0 -0.53448310582E-01 -0.11188921323E-01  0.92758986731E-01  0.88655859563E+00  0.88000000000E+00 0. -1.
        -11    1    4    4    0    0  0.47564397540E-01  0.11422453205E-01 -0.10340400275E+00  0.11439184087E+00  0.51100000000E-03 0. -1.
         11    1    4    4    0    0  0.85295433242E-02  0.89277716157E-02 -0.12725460515E-01  0.17738564814E-01  0.51100000000E-03 0.  1.
</event>
<event>
 8    1  0.1060404E+005  0.1043930E+01  0.7957747E-01            NaN
         13   -1    0    0    0    0  0.00000000000E+00  0.00000000000E+00  0.74505805969E-08  0.10566000000E+00  0.10566000000E+00 0. -1.
     999900   -1    0    0    0    0 -0.00000000000E+00 -0.00000000000E+00 -0.74505805969E-08  0.93827000000E+00  0.93827000000E+00 0. -1.
     999902    2    1    2    0    0 -0.18930488910E-01 -0.15294460748E-01 -0.18443862606E-02  0.10195233267E+01  0.10192311455E+01 0.  0.
     999903    2    3    3    0    0 -0.12244218522E-01  0.11126184635E+00  0.59702754531E-01  0.12831669770E+00  0.19277880308E-01 0.  0.
         14    1    1    2    0    0  0.18930488910E-01  0.15294460748E-01  0.18443862606E-02  0.24406673281E-01  0.00000000000E+00 0. -1.
     999901    1    3    3    0    0 -0.66862703883E-02 -0.12655630709E+00 -0.61547140792E-01  0.89120662902E+00  0.88000000000E+00 0. -1.
        -11    1    4    4    0    0 -0.15687423697E-01  0.72452422603E-01  0.33433473875E-01  0.81323472009E-01  0.51100000000E-03 0.  1.
         11    1    4    4    0    0  0.34432051754E-02  0.38809423743E-01  0.26269280656E-01  0.46993225686E-01  0.51100000000E-03 0. -1.
</event>
<event>
 8    1  0.1060404E+005  0.1043930E+01  0.7957747E-01            NaN
         13   -1    0    0    0    0  0.00000000000E+00  0.00000000000E+00  0.74505805969E-08  0.10566000000E+00  0.10566000000E+00 0.  1.
     999900   -1    0    0    0    0 -0.00000000000E+00 -0.00000000000E+00 -0.74505805969E-08  0.93827000000E+00  0.93827000000E+00 0.  1.
     999902    2    1    2    0    0 -0.76539491841E-02 -0.12845415089E-01  0.23289097320E-01  0.10162538427E+01  0.10158769134E+01 0.  0.
     999903    2    3    3    0    0  0.55635785505E-02  0.12361492746E+00  0.52546250006E-02  0.12545567799E+00  0.19997808837E-01 0.  0.
         14    1    1    2    0    0  0.76539491841E-02  0.12845415089E-01 -0.23289097320E-01  0.27676157264E-01  0.00000000000E+00 0. -1.
     999901    1    3    3    0    0 -0.13217527735E-01 -0.13646034255E+00  0.18034472320E-01  0.89079816475E+00  0.88000000000E+00 0.  1.
        -11    1    4    4    0    0 -0.28603306486E-02  0.72439735703E-01 -0.46701378982E-02  0.72648249181E-01  0.51100000000E-03 0.  1.
         11    1    4    4    0    0  0.84239091991E-02  0.51175191757E-01  0.99247628988E-02  0.52807428806E-01  0.51100000000E-03 0. -1.
</event>
<event>
 8    1  0.1060404E+005  0.1043930E+01  0.7957747E-01            NaN
         13   -1    0    0    0    0  0.00000000000E+00  0.00000000000E+00  0.74505805969E-08  0.10566000000E+00  0.10566000000E+00 0. -1.
     999900   -1    0    0    0    0 -0.00000000000E+00 -0.00000000000E+00 -0.74505805969E-08  0.93827000000E+00  0.93827000000E+00 0. -1.
     999902    2    1    2    0    0  0.28081029569E-01 -0.20228035209E-01  0.12834774312E-01  0.10070186324E+01  0.10063419284E+01 0.  0.
     999903    2    3    3    0    0  0.78591466050E-01 -0.36120151303E-01 -0.81126450101E-01  0.12043385060E+00  0.21012558082E-01 0.  0.
         14    1    1    2    0    0 -0.28081029569E-01  0.20228035209E-01 -0.12834774312E-01  0.36911367649E-01  0.00000000000E+00 0.  1.
     999901    1    3    3    0    0 -0.50510436481E-01  0.15892116094E-01  0.93961224413E-01  0.88658478176E+00  0.88000000000E+00 0.  1.
        -11    1    4    4    0    0  0.40519171077E-01 -0.91954578614E-02 -0.30108446307E-01  0.51314124080E-01  0.51100000000E-03 0.  1.
         11    1    4    4    0    0  0.38072294973E-01 -0.26924693442E-01 -0.51018003794E-01  0.69119726516E-01  0.51100000000E-03 0. -1.
</event>
<event>
 8    1  0.1060404E+005  0.1043930E+01  0.7957747E-01            NaN
         13   -1    0    0    0    0  0.00000000000E+00  0.00000000000E+00  0.74505805969E-08  0.10566000000E+00  0.10566000000E+00 0. -1.
     999900   -1    0    0    0    0 -0.00000000000E+00 -0.00000000000E+00 -0.74505805969E-08  0.93827000000E+00  0.93827000000E+00 0.  1.
     999902    2    1    2    0    0 -0.53041100169E-02 -0.22729138110E-01  0.45307828503E-02  0.10201544812E+01  0.10198773898E+01 0.  0.
     999903    2    3    3    0    0  0.12591631467E+00  0.15693510712E-01 -0.15583962938E-01  0.12936847837E+00  0.19802492656E-01 0.  0.
         14    1    1    2    0    0  0.53041100169E-02  0.22729138110E-01 -0.45307828503E-02  0.23775518828E-01  0.00000000000E+00 0.  1.
     999901    1    3    3    0    0 -0.13122042469E+00 -0.38422648822E-01  0.20114745788E-01  0.89078600281E+00  0.88000000000E+00 0. -1.
        -11    1    4    4    0    0  0.41431891523E-01  0.42002193586E-03  0.29260633219E-02  0.41540354129E-01  0.51100000000E-03 0. -1.
         11    1    4    4    0    0  0.84484423147E-01  0.15273488776E-01 -0.18510026260E-01  0.87828124237E-01  0.51100000000E-03 0.  1.
</event>
<event>
 8    1  0.1060404E+005  0.1043930E+01  0.7957747E-01            NaN
         13   -1    0    0    0    0  0.00000000000E+00  0.00000000000E+00  0.74505805969E-08  0.10566000000E+00  0.10566000000E+00 0.  1.
     999900   -1    0    0    0    0 -0.00000000000E+00 -0.00000000000E+00 -0.74505805969E-08  0.93827000000E+00  0.93827000000E+00 0.  1.
     999902    2    1    2    0    0  0.73560181692E-02  0.22732332253E-01  0.32063455559E-02  0.10198229350E+01  0.10195379679E+01 0.  0.
     999903    2    3    3    0    0  0.11692029613E+00  0.58664677788E-01 -0.74828061462E-02  0.13223647583E+00  0.17849176055E-01 0.  0.
         14    1    1    2    0    0 -0.73560181692E-02 -0.22732332253E-01 -0.32063455559E-02  0.24107065039E-01  0.00000000000E+00 0. -1.
     999901    1    3    3    0    0 -0.10956427796E+00 -0.35932345535E-01  0.10689151702E-01  0.88758645913E+00  0.88000000000E+00 0. -1.
        -11    1    4    4    0    0  0.49533465892E-01  0.33496167186E-01  0.97112825189E-03  0.59806033730E-01  0.51100000000E-03 0. -1.
         11    1    4    4    0    0  0.67386830239E-01  0.25168510602E-01 -0.84539343981E-02  0.72430442104E-01  0.51100000000E-03 0.  1.
</event>
<event>
 8    1  0.1060404E+005  0.1043930E+01  0.7957747E-01            NaN
         13   -1    0    0    0    0  0.00000000000E+00  0.00000000000E+00  0.74505805969E-08  0.10566000000E+00  0.10566000000E+00 0. -1.
     999900   -1    0    0    0    0 -0.00000000000E+00 -0.00000000000E+00 -0.74505805969E-08  0.93827000000E+00  0.93827000000E+00 0. -1.
     999902    2    1    2    0    0  0.14531955986E-01 -0.18162842142E-01 -0.30167719180E-02  0.10204743505E+01  0.10202047503E+01 0.  0.
     999903    2    3    3    0    0  0.11082917624E+00  0.60917162389E-01 -0.25397343731E-01  0.13141434595E+00  0.25113706861E-01 0.  0.
         14    1    1    2    0    0 -0.14531955986E-01  0.18162842142E-01  0.30167719180E-02  0.23455649474E-01  0.00000000000E+00 0. -1.
     999901    1    3    3    0    0 -0.96297220256E-01 -0.79080004531E-01  0.22380571813E-01  0.88906000458E+00  0.88000000000E+00 0. -1.
        -11    1    4    4    0    0  0.13841930446E-01  0.20774616158E-02 -0.93581780026E-02  0.16844925104E-01  0.51100000000E-03 0.  1.
         11    1    4    4    0    0  0.96987245796E-01  0.58839700773E-01 -0.16039165728E-01  0.11456942084E+00  0.51100000000E-03 0. -1.
</event>
<event>
 8    1  0.1060404E+005  0.1043930E+01  0.7957747E-01            NaN
         13   -1    0    0    0    0  0.00000000000E+00  0.00000000000E+00  0.74505805969E-08  0.10566000000E+00  0.10566000000E+00 0. -1.
     999900   -1    0    0    0    0 -0.00000000000E+00 -0.00000000000E+00 -0.74505805969E-08  0.93827000000E+00  0.93827000000E+00 0. -1.
     999902    2    1    2    0    0  0.91415626772E-02 -0.20322707206E-01 -0.24097762146E-02  0.10215159951E+01  0.10212700625E+01 0.  0.
     999903    2    3    3    0    0 -0.34850641728E-01 -0.10562766574E+00  0.70561086801E-01  0.13329474061E+00  0.20416902417E-01 0.  0.
         14    1    1    2    0    0 -0.91415626772E-02  0.20322707206E-01  0.24097762146E-02  0.22414004947E-01  0.00000000000E+00 0. -1.
     999901    1    3    3    0    0  0.43992204405E-01  0.85304958536E-01 -0.72970863016E-01  0.88822125445E+00  0.88000000000E+00 0.  1.
        -11    1    4    4    0    0 -0.24767032781E-01 -0.47399258133E-01  0.39834063414E-01  0.66686650188E-01  0.51100000000E-03 0. -1.
         11    1    4    4    0    0 -0.10083608947E-01 -0.58228407609E-01  0.30727023387E-01  0.66608090419E-01  0.51100000000E-03 0.  1.
</event>
<event>
 8    1  0.1060404E+005  0.1043930E+01  0.7957747E-01            NaN
         13   -1    0    0    0    0  0.00000000000E+00  0.00000000000E+00  0.74505805969E-08  0.10566000000E+00  0.10566000000E+00 0. -1.
     999900   -1    0    0    0    0 -0.00000000000E+00 -0.00000000000E+00 -0.74505805969E-08  0.93827000000E+00  0.93827000000E+00 0.  1.
     999902    2    1    2    0    0  0.19733148936E-01 -0.26002512598E-02 -0.11565667003E-01  0.10209099408E+01  0.10206503731E+01 0.  0.
     999903    2    3    3    0    0  0.77961636282E-01  0.86197465046E-01  0.58467728851E-01  0.13176413288E+00  0.20863645049E-01 0.  0.
         14    1    1    2    0    0 -0.19733148936E-01  0.26002512598E-02  0.11565667003E-01  0.23020059226E-01  0.00000000000E+00 0.  1.
     999901    1    3    3    0    0 -0.58228487345E-01 -0.88797716306E-01 -0.70033395854E-01  0.88914580789E+00  0.88000000000E+00 0. -1.
        -11    1    4    4    0    0  0.57636764602E-01  0.61717937590E-01  0.52357473414E-01  0.99361293256E-01  0.51100000000E-03 0.  1.
         11    1    4    4    0    0  0.20324871680E-01  0.24479527456E-01  0.61102554371E-02  0.32402839625E-01  0.51100000000E-03 0. -1.
</event>
<event>
 8    1  0.1060404E+005  0.1043930E+01  0.7957747E-01            NaN
         13   -1    0    0    0    0  0.00000000000E+00  0.00000000000E+00  0.74505805969E-08  0.10566000000E+00  0.10566000000E+00 0.  1.
     999900   -1    0    0    0    0 -0.00000000000E+00 -0.00000000000E+00 -0.74505805969E-08  0.93827000000E+00  0.93827000000E+00 0.  1.
     999902    2    1    2    0    0  0.11811588598E-01  0.14618371115E-01  0.14402227551E-01  0.10202522772E+01  0.10199774873E+01 0.  0.
     999903    2    3    3    0    0 -0.36498237931E-01  0.11690909888E+00  0.46558477880E-01  0.13242838881E+00  0.19228300185E-01 0.  0.
         14    1    1    2    0    0 -0.11811588598E-01 -0.14618371115E-01 -0.14402227551E-01  0.23677722815E-01  0.00000000000E+00 0. -1.
     999901    1    3    3    0    0  0.48309826528E-01 -0.10229072777E+00 -0.32156250328E-01  0.88782388837E+00  0.88000000000E+00 0.  1.
        -11    1    4    4    0    0 -0.20951311978E-01  0.36720986236E-01  0.16702052456E-01  0.45459960196E-01  0.51100000000E-03 0.  1.
         11    1    4    4    0    0 -0.15546925952E-01  0.80188112646E-01  0.29856425424E-01  0.86968428619E-01  0.51100000000E-03 0. -1.
</event>
<event>
 8    1  0.1060404E+005  0.1043930E+01  0.7957747E-01            NaN
         13   -1    0    0    0    0  0.00000000000E+00  0.00000000000E+00  0.74505805969E-08  0.10566000000E+00  0.10566000000E+00 0. -1.
     999900   -1    0    0    0    0 -0.00000000000E+00 -0.00000000000E+00 -0.74505805969E-08  0.93827000000E+00  0.93827000000E+00 0. -1.
     999902    2    1    2    0    0 -0.65335863803E-02 -0.25060880742E-01 -0.68098383155E-02  0.10171511017E+01  0.10167985318E+01 0.  0.
     999903    2    3    3    0    0 -0.10540737830E+00 -0.49822596327E-01 -0.53963529494E-01  0.13001377309E+00  0.19962769657E-01 0.  0.
         14    1    1    2    0    0  0.65335863803E-02  0.25060880742E-01  0.68098383155E-02  0.26778898268E-01  0.00000000000E+00 0. -1.
     999901    1    3    3    0    0  0.98873791916E-01  0.24761715585E-01  0.47153691179E-01  0.88713732865E+00  0.88000000000E+00 0. -1.
        -11    1    4    4    0    0 -0.24348004451E-01 -0.17646428055E-01 -0.66809097132E-02  0.30807749341E-01  0.51100000000E-03 0. -1.
         11    1    4    4    0    0 -0.81059373845E-01 -0.32176168272E-01 -0.47282619781E-01  0.99206023745E-01  0.51100000000E-03 0.  1.
</event>
<event>
 8    1  0.1060404E+005  0.1043930E+01  0.7957747E-01            NaN
         13   -1    0    0    0    0  0.00000000000E+00  0.00000000000E+00  0.74505805969E-08  0.10566000000E+00  0.10566000000E+00 0.  1.
     999900   -1    0    0    0    0 -0.00000000000E+00 -0.00000000000E+00 -0.74505805969E-08  0.93827000000E+00  0.93827000000E+00 0. -1.
     999902    2    1    2    0    0  0.10467086526E-01 -0.16434914223E-02  0.22207568796E-01  0.10193243690E+01  0.10190273461E+01 0.  0.
     999903    2    3    3    0    0  0.12549899311E+00  0.26377656972E-02  0.33924335488E-01  0.13175017419E+00  0.21220103242E-01 0.  0.
         14    1    1    2    0    0 -0.10467086526E-01  0.16434914223E-02 -0.22207568796E-01  0.24605630986E-01  0.00000000000E+00 0. -1.
     999901    1    3    3    0    0 -0.11503190658E+00 -0.42812571195E-02 -0.11716766692E-01  0.88757419482E+00  0.88000000000E+00 0. -1.
        -11    1    4    4    0    0  0.84504338672E-01  0.32467835431E-02  0.12497249605E-01  0.85486649405E-01  0.51100000000E-03 0.  1.
         11    1    4    4    0    0  0.40994654438E-01 -0.60901784592E-03  0.21427085883E-01  0.46263524786E-01  0.51100000000E-03 0. -1.
</event>
<event>
 8    1  0.1060404E+005  0.1043930E+01  0.7957747E-01            NaN
         13   -1    0    0    0    0  0.00000000000E+00  0.00000000000E+00  0.74505805969E-08  0.10566000000E+00  0.10566000000E+00 0.  1.
     999900   -1    0    0    0    0 -0.00000000000E+00 -0.00000000000E+00 -0.74505805969E-08  0.93827000000E+00  0.93827000000E+00 0.  1.
     999902    2    1    2    0    0 -0.85768613561E-02 -0.18865921890E-01  0.10916702528E-01  0.10205065085E+01  0.10202376556E+01 0.  0.
     999903    2    3    3    0    0 -0.28769689829E-01  0.71405943048E-01 -0.10089069592E+00  0.12862218066E+00  0.20933921746E-01 0.  0.
         14    1    1    2    0    0  0.85768613561E-02  0.18865921890E-01 -0.10916702528E-01  0.23423491490E-01  0.00000000000E+00 0. -1.
     999901    1    3    3    0    0  0.20192828473E-01 -0.90271864938E-01  0.11180739844E+00  0.89188432785E+00  0.88000000000E+00 0. -1.
        -11    1    4    4    0    0 -0.24212092091E-01  0.32336258109E-01 -0.53198471942E-01  0.66799682109E-01  0.51100000000E-03 0. -1.
         11    1    4    4    0    0 -0.45575977374E-02  0.39069684939E-01 -0.47692223973E-01  0.61822498549E-01  0.51100000000E-03 0.  1.
</event>
<event>
 8    1  0.1060404E+005  0.1043930E+01  0.7957747E-01            NaN
         13   -1    0    0    0    0  0.00000000000E+00  0.00000000000E+00  0.74505805969E-08  0.10566000000E+00  0.10566000000E+00 0.  1.
     999900   -1    0    0    0    0 -0.00000000000E+00 -0.00000000000E+00 -0.74505805969E-08  0.93827000000E+00  0.93827000000E+00 0.  1.
     999902    2    1    2    0    0  0.18673084128E-01 -0.12862494966E-01  0.39503031713E-02  0.10209140763E+01  0.10206546029E+01 0.  0.
     999903    2    3    3    0    0  0.47349987232E-01  0.11578906403E+00 -0.29680031320E-01  0.13046217543E+00  0.22143764771E-01 0.  0.
         14    1    1    2    0    0 -0.18673084128E-01  0.12862494966E-01 -0.39503031713E-02  0.23015923678E-01  0.00000000000E+00 0. -1.
     999901    1    3    3    0    0 -0.28676903103E-01 -0.12865155900E+00  0.33630334492E-01  0.89045190089E+00  0.88000000000E+00 0. -1.
        -11    1    4    4    0    0  0.18368644033E-01  0.69397454999E-01 -0.22833642828E-01  0.75332929120E-01  0.51100000000E-03 0. -1.
         11    1    4    4    0    0  0.28981343198E-01  0.46391609033E-01 -0.68463884927E-02  0.55129246310E-01  0.51100000000E-03 0.  1.
</event>
<event>
 8    1  0.1060404E+005  0.1043930E+01  0.7957747E-01            NaN
         13   -1    0    0    0    0  0.00000000000E+00  0.00000000000E+00  0.74505805969E-08  0.10566000000E+00  0.10566000000E+00 0. -1.
     999900   -1    0    0    0    0 -0.00000000000E+00 -0.00000000000E+00 -0.74505805969E-08  0.93827000000E+00  0.93827000000E+00 0.  1.
     999902    2    1    2    0    0  0.39009562840E-02  0.14704532875E-01 -0.18747027981E-01  0.10197868477E+01  0.10195010166E+01 0.  0.
     999903    2    3    3    0    0 -0.56600784668E-01  0.77606499177E-01 -0.89141313302E-01  0.13267215753E+00  0.20719799910E-01 0.  0.
         14    1    1    2    0    0 -0.39009562840E-02 -0.14704532875E-01  0.18747027981E-01  0.24143152344E-01  0.00000000000E+00 0. -1.
     999901    1    3    3    0    0  0.60501740952E-01 -0.62901966302E-01  0.70394285321E-01  0.88711469012E+00  0.88000000000E+00 0. -1.
        -11    1    4    4    0    0 -0.51798794567E-01  0.59353310949E-01 -0.77389535584E-01  0.11043247701E+00  0.51100000000E-03 0. -1.
         11    1    4    4    0    0 -0.48019901011E-02  0.18253188228E-01 -0.11751777717E-01  0.22239680527E-01  0.51100000000E-03 0.  1.
</event>
<event>
 8    1  0.1060404E+005  0.1043930E+01  0.7957747E-01            NaN
         13   -1    0    0    0    0  0.00000000000E+00  0.00000000000E+00  0.74505805969E-08  0.10566000000E+00  0.10566000000E+00 0. -1.
     999900   -1    0    0    0    0 -0.00000000000E+00 -0.00000000000E+00 -0.74505805969E-08  0.93827000000E+00  0.93827000000E+00 0.  1.
     999902    2    1    2    0    0 -0.22452845203E-01  0.65978910177E-02 -0.19083702890E-02  0.10204501299E+01  0.10201799661E+01 0.  0.
     999903    2    3    3    0    0 -0.80275770591E-01  0.82287189038E-01 -0.64937280932E-01  0.13306914963E+00  0.16588167611E-01 0.  0.
         14    1    1    2    0    0  0.22452845203E-01 -0.65978910177E-02  0.19083702890E-02  0.23479870118E-01  0.00000000000E+00 0. -1.
     999901    1    3    3    0    0  0.57822925388E-01 -0.75689298021E-01  0.63028910643E-01  0.88738098025E+00  0.88000000000E+00 0. -1.
        -11    1    4    4    0    0 -0.51579635713E-01  0.60776724358E-01 -0.38587747876E-01  0.88563787471E-01  0.51100000000E-03 0. -1.
         11    1    4    4    0    0 -0.28696134878E-01  0.21510464680E-01 -0.26349533057E-01  0.44505362160E-01  0.51100000000E-03 0.  1.
</event>
<event>
 8    1  0.1060404E+005  0.1043930E+01  0.7957747E-01            NaN
         13   -1    0    0    0    0  0.00000000000E+00  0.00000000000E+00  0.74505805969E-08  0.10566000000E+00  0.10566000000E+00 0. -1.
     999900   -1    0    0    0    0 -0.00000000000E+00 -0.00000000000E+00 -0.74505805969E-08  0.93827000000E+00  0.93827000000E+00 0.  1.
     999902    2    1    2    0    0 -0.20482995788E-01  0.51843993919E-02 -0.11123198971E-01  0.10200520464E+01  0.10197725338E+01 0.  0.
     999903    2    3    3    0    0 -0.81145802503E-01 -0.72422322586E-01  0.69708801985E-01  0.13087456590E+00  0.20957119407E-01 0.  0.
         14    1    1    2    0    0  0.20482995788E-01 -0.51843993919E-02  0.11123198971E-01  0.23877953615E-01  0.00000000000E+00 0. -1.
     999901    1    3    3    0    0  0.60662806715E-01  0.77606721978E-01 -0.80832000956E-01  0.88917748048E+00  0.88000000000E+00 0.  1.
        -11    1    4    4    0    0 -0.36404929768E-01 -0.45524221256E-01  0.32242501665E-01  0.66615416136E-01  0.51100000000E-03 0.  1.
         11    1    4    4    0    0 -0.44740872735E-01 -0.26898101330E-01  0.37466300320E-01  0.64259149768E-01  0.51100000000E-03 0. -1.
</event>
<event>
 8    1  0.1060404E+005  0.1043930E+01  0.7957747E-01            NaN
         13   -1    0    0    0    0  0.00000000000E+00  0.00000000000E+00  0.74505805969E-08  0.10566000000E+00  0.10566000000E+00 0. -1.
     999900   -1    0    0    0    0 -0.00000000000E+00 -0.00000000000E+00 -0.74505805969E-08  0.93827000000E+00  0.93827000000E+00 0. -1.
     999902    2    1    2    0    0  0.24286129286E-01  0.19268127421E-01 -0.93444315435E-02  0.10115510684E+01  0.10110327239E+01 0.  0.
     999903    2    3    3    0    0 -0.94828786559E-01  0.18045967267E-01  0.68772528530E-01  0.12009601273E+00  0.19371006627E-01 0.  0.
         14    1    1    2    0    0 -0.24286129286E-01 -0.19268127421E-01  0.93444315435E-02  0.32378931589E-01  0.00000000000E+00 0.  1.
     999901    1    3    3    0    0  0.11911491585E+00  0.12221601539E-02 -0.78116960073E-01  0.89145505568E+00  0.88000000000E+00 0. -1.
        -11    1    4    4    0    0 -0.43675583310E-01  0.64036718956E-02  0.43066644916E-01  0.61673013682E-01  0.51100000000E-03 0.  1.
         11    1    4    4    0    0 -0.51153203249E-01  0.11642295371E-01  0.25705883614E-01  0.58422999046E-01  0.51100000000E-03 0. -1.
</event>
<event>
 8    1  0.1060404E+005  0.1043930E+01  0.7957747E-01            NaN
         13   -1    0    0    0    0  0.00000000000E+00  0.00000000000E+00  0.74505805969E-08  0.10566000000E+00  0.10566000000E+00 0.  1.
     999900   -1    0    0    0    0 -0.00000000000E+00 -0.00000000000E+00 -0.74505805969E-08  0.93827000000E+00  0.93827000000E+00 0. -1.
     999902    2    1    2    0    0 -0.17052573117E-01  0.16625129476E-02 -0.17139521502E-01  0.10196953678E+01  0.10194073405E+01 0.  0.
     999903    2    3    3    0    0 -0.28551167894E-01 -0.62412353245E-01  0.10694607363E+00  0.12860892922E+00  0.19807144766E-01 0.  0.
         14    1    1    2    0    0  0.17052573117E-01 -0.16625129476E-02  0.17139521502E-01  0.24234632172E-01  0.00000000000E+00 0. -1.
     999901    1    3    3    0    0  0.11498594777E-01  0.64074866193E-01 -0.12408559513E+00  0.89108643861E+00  0.88000000000E+00 0. -1.
        -11    1    4    4    0    0  0.12464414186E-02 -0.14419789783E-01  0.28109765242E-01  0.31621258302E-01  0.51100000000E-03 0.  1.
         11    1    4    4    0    0 -0.29797609313E-01 -0.47992563462E-01  0.78836308386E-01  0.96987670914E-01  0.51100000000E-03 0. -1.
</event>
<event>
 8    1  0.1060404E+005  0.1043930E+01  0.7957747E-01            NaN
         13   -1    0    0    0    0  0.00000000000E+00  0.00000000000E+00  0.74505805969E-08  0.10566000000E+00  0.10566000000E+00 0. -1.
     999900   -1    0    0    0    0 -0.00000000000E+00 -0.00000000000E+00 -0.74505805969E-08  0.93827000000E+00  0.93827000000E+00 0.  1.
     999902    2    1    2    0    0  0.18773345279E-01 -0.57525303110E-02 -0.13188155210E-01  0.10202771453E+01  0.10200029391E+01 0.  0.
     999903    2    3    3    0    0 -0.44411265453E-01 -0.11199349598E+00 -0.46934862660E-01  0.13099750531E+00  0.21037143934E-01 0.  0.
         14    1    1    2    0    0 -0.18773345279E-01  0.57525303110E-02  0.13188155210E-01  0.23652854707E-01  0.00000000000E+00 0. -1.
     999901    1    3    3    0    0  0.63184610732E-01  0.10624096567E+00  0.33746707450E-01  0.88927963998E+00  0.88000000000E+00 0. -1.
        -11    1    4    4    0    0 -0.15811764368E-01 -0.59362724598E-01 -0.15549641519E-01  0.63371897845E-01  0.51100000000E-03 0.  1.
         11    1    4    4    0    0 -0.28599501085E-01 -0.52630771380E-01 -0.31385221141E-01  0.67625607468E-01  0.51100000000E-03 0. -1.
</event>
<event>
 8    1  0.1060404E+005  0.1043930E+01  0.7957747E-01            NaN
         13   -1    0    0    0    0  0.00000000000E+00  0.00000000000E+00  0.74505805969E-08  0.10566000000E+00  0.10566000000E+00 0. -1.
     999900   -1    0    0    0    0 -0.00000000000E+00 -0.00000000000E+00 -0.74505805969E-08  0.93827000000E+00  0.93827000000E+00 0.  1.
     999902    2    1    2    0    0  0.23105381271E-02  0.17588635578E-01  0.18222712052E-01  0.10184984070E+01  0.10181808480E+01 0.  0.
     999903    2    3    3    0    0  0.79055635810E-01  0.69764892903E-01  0.76415441850E-01  0.13170724464E+00  0.19762203865E-01 0.  0.
         14    1    1    2    0    0 -0.23105381271E-02 -0.17588635578E-01 -0.18222712052E-01  0.25431592998E-01  0.00000000000E+00 0.  1.
     999901    1    3    3    0    0 -0.76745097683E-01 -0.52176257325E-01 -0.58192729799E-01  0.88679116236E+00  0.88000000000E+00 0.  1.
        -11    1    4    4    0    0  0.21487111069E-02  0.78054784129E-02  0.90754249703E-02  0.12172383171E-01  0.51100000000E-03 0. -1.
         11    1    4    4    0    0  0.76906924703E-01  0.61959414490E-01  0.67340016880E-01  0.11953486147E+00  0.51100000000E-03 0.  1.
</event>
<event>
 8    1  0.1060404E+005  0.1043930E+01  0.7957747E-01            NaN
         13   -1    0    0    0    0  0.00000000000E+00  0.00000000000E+00  0.74505805969E-08  0.10566000000E+00  0.10566000000E+00 0.  1.
     999900   -1    0    0    0    0 -0.00000000000E+00 -0.00000000000E+00 -0.74505805969E-08  0.93827000000E+00  0.93827000000E+00 0.  1.
     999902    2    1    2    0    0 -0.17515023122E-01 -0.15284894617E-01 -0.45081806348E-02  0.10202503097E+01  0.10199754736E+01 0.  0.
     999903    2    3    3    0    0  0.12616682090E+00  0.36756348929E-02 -0.69189391208E-02  0.12839281790E+00  0.22478144527E-01 0.  0.
         14    1    1    2    0    0  0.17515023122E-01  0.15284894617E-01  0.45081806348E-02  0.23679690265E-01  0.00000000000E+00 0.  1.
     999901    1    3    3    0    0 -0.14368184403E+00 -0.18960529510E-01  0.24107584860E-02  0.89185749183E+00  0.88000000000E+00 0.  1.
        -11    1    4    4    0    0  0.71437983021E-01 -0.82393628032E-02 -0.80932026577E-02  0.72367351532E-01  0.51100000000E-03 0.  1.
         11    1    4    4    0    0  0.54728837883E-01  0.11914997696E-01  0.11742635369E-02  0.56025466370E-01  0.51100000000E-03 0. -1.
</event>
<event>
 8    1  0.1060404E+005  0.1043930E+01  0.7957747E-01            NaN
         13   -1    0    0    0    0  0.00000000000E+00  0.00000000000E+00  0.74505805969E-08  0.10566000000E+00  0.10566000000E+00 0.  1.
     999900   -1    0    0    0    0 -0.00000000000E+00 -0.00000000000E+00 -0.74505805969E-08  0.93827000000E+00  0.93827000000E+00 0.  1.
     999902    2    1    2    0    0 -0.22450006507E-01  0.48066676090E-02  0.32040158148E-02  0.10207487023E+01  0.10204854436E+01 0.  0.
     999903    2    3    3    0    0 -0.11720482857E+00 -0.55454326441E-01  0.22946100481E-01  0.13339329796E+00  0.21332938190E-01 0.  0.
         14    1    1    2    0    0  0.22450006507E-01 -0.48066676090E-02 -0.32040158148E-02  0.23181297699E-01  0.00000000000E+00 0. -1.
     999901    1    3    3    0    0  0.94754822064E-01  0.60260994050E-01 -0.19742084667E-01  0.88735540434E+00  0.88000000000E+00 0. -1.
        -11    1    4    4    0    0 -0.78693107855E-01 -0.31809002709E-01  0.23927471924E-01  0.88188451120E-01  0.51100000000E-03 0. -1.
         11    1    4    4    0    0 -0.38511720715E-01 -0.23645323732E-01 -0.98137144257E-03  0.45204846839E-01  0.51100000000E-03 0.  1.
</event>
<event>
 8    1  0.1060404E+005  0.1043930E+01  0.7957747E-01            NaN
         13   -1    0    0    0    0  0.00000000000E+00  0.00000000000E+00  0.74505805969E-08  0.10566000000E+00  0.10566000000E+00 0.  1.
     999900   -1    0    0    0    0 -0.00000000000E+00 -0.00000000000E+00 -0.74505805969E-08  0.93827000000E+00  0.93827000000E+00 0. -1.
     999902    2    1    2    0    0  0.15360840280E-01 -0.12555381506E-01 -0.15888130203E-01  0.10185129644E+01  0.10181957734E+01 0.  0.
     999903    2    3    3    0    0  0.33137727593E-01  0.85987611971E-01 -0.89332594196E-01  0.12979432015E+00  0.19346181946E-01 0.  0.
         14    1    1    2    0    0 -0.15360840280E-01  0.12555381506E-01  0.15888130203E-01  0.25417035630E-01  0.00000000000E+00 0.  1.
     999901    1    3    3    0    0 -0.17776887313E-01 -0.98542993477E-01  0.73444463993E-01  0.88871864422E+00  0.88000000000E+00 0.  1.
        -11    1    4    4    0    0  0.28480349065E-01  0.47884621927E-01 -0.55046795653E-01  0.78322909373E-01  0.51100000000E-03 0. -1.
         11    1    4    4    0    0  0.46573785278E-02  0.38102990044E-01 -0.34285798543E-01  0.51471410781E-01  0.51100000000E-03 0.  1.
</event>
<event>
 8    1  0.1060404E+005  0.1043930E+01  0.7957747E-01            NaN
         13   -1    0    0    0    0  0.00000000000E+00  0.00000000000E+00  0.74505805969E-08  0.10566000000E+00  0.10566000000E+00 0. -1.
     999900   -1    0    0    0    0 -0.00000000000E+00 -0.00000000000E+00 -0.74505805969E-08  0.93827000000E+00  0.93827000000E+00 0.  1.
     999902    2    1    2    0    0 -0.10147451163E-01 -0.13975139307E-01  0.12557481250E-01  0.10225766485E+01  0.10223536749E+01 0.  0.
     999903    2    3    3    0    0 -0.12465207254E-01 -0.34371269498E-01  0.12813693660E+00  0.13478163580E+00  0.20254611033E-01 0.  0.
         14    1    1    2    0    0  0.10147451163E-01  0.13975139307E-01 -0.12557481250E-01  0.21353351473E-01  0.00000000000E+00 0. -1.
     999901    1    3    3    0    0  0.23177560907E-02  0.20396130190E-01 -0.11557945535E+00  0.88779501273E+00  0.88000000000E+00 0.  1.
        -11    1    4    4    0    0 -0.13898170907E-01 -0.32097546969E-01  0.90191135712E-01  0.96737344175E-01  0.51100000000E-03 0. -1.
         11    1    4    4    0    0  0.14329636528E-02 -0.22737225282E-02  0.37945800893E-01  0.38044291627E-01  0.51100000000E-03 0.  1.
</event>
<event>
 8    1  0.1060404E+005  0.1043930E+01  0.7957747E-01            NaN
         13   -1    0    0    0    0  0.00000000000E+00  0.00000000000E+00  0.74505805969E-08  0.10566000000E+00  0.10566000000E+00 0.  1.
     999900   -1    0    0    0    0 -0.00000000000E+00 -0.00000000000E+00 -0.74505805969E-08  0.93827000000E+00  0.93827000000E+00 0.  1.
     999902    2    1    2    0    0 -0.10751734742E-01 -0.18798949754E-01 -0.84526353701E-02  0.10206824763E+01  0.10204176940E+01 0.  0.
     999903    2    3    3    0    0  0.34279273000E-01  0.45137660861E-01  0.11380047326E+00  0.12879599006E+00  0.20624799515E-01 0.  0.
         14    1    1    2    0    0  0.10751734742E-01  0.18798949754E-01  0.84526353701E-02  0.23247523665E-01  0.00000000000E+00 0.  1.
     999901    1    3    3    0    0 -0.45031007743E-01 -0.63936610615E-01 -0.12225310863E+00  0.89188648628E+00  0.88000000000E+00 0.  1.
        -11    1    4    4    0    0  0.21565640408E-03  0.45727066895E-02  0.24797549833E-01  0.25221731758E-01  0.51100000000E-03 0. -1.
         11    1    4    4    0    0  0.34063616596E-01  0.40564954171E-01  0.89002923428E-01  0.10357425830E+00  0.51100000000E-03 0.  1.
</event>
<event>
 8    1  0.1060404E+005  0.1043930E+01  0.7957747E-01            NaN
         13   -1    0    0    0    0  0.00000000000E+00  0.00000000000E+00  0.74505805969E-08  0.10566000000E+00  0.10566000000E+00 0. -1.
     999900   -1    0    0    0    0 -0.00000000000E+00 -0.00000000000E+00 -0.74505805969E-08  0.93827000000E+00  0.93827000000E+00 0.  1.
     999902    2    1    2    0    0  0.93723927437E-02  0.57062352459E-02  0.20741373044E-01  0.10204649745E+01  0.10201951562E+01 0.  0.
     999903    2    3    3    0    0  0.34143409844E-01 -0.81741954613E-01  0.96510283936E-01  0.13254509238E+00  0.20160531433E-01 0.  0.
         14    1    1    2    0    0 -0.93723927437E-02 -0.57062352459E-02 -0.20741373044E-01  0.23465025510E-01  0.00000000000E+00 0.  1.
     999901    1    3    3    0    0 -0.24771017101E-01  0.87448189858E-01 -0.75768910892E-01  0.88791988212E+00  0.88000000000E+00 0. -1.
        -11    1    4    4    0    0  0.25130962507E-01 -0.47418347350E-01  0.70203285947E-01  0.88367569961E-01  0.51100000000E-03 0.  1.
         11    1    4    4    0    0  0.90124473375E-02 -0.34323607262E-01  0.26306997989E-01  0.44177522414E-01  0.51100000000E-03 0. -1.
</event>
<event>
 8    1  0.1060404E+005  0.1043930E+01  0.7957747E-01            NaN
         13   -1    0    0    0    0  0.00000000000E+00  0.00000000000E+00  0.74505805969E-08  0.10566000000E+00  0.10566000000E+00 0. -1.
     999900   -1    0    0    0    0 -0.00000000000E+00 -0.00000000000E+00 -0.74505805969E-08  0.93827000000E+00  0.93827000000E+00 0. -1.
     999902    2    1    2    0    0 -0.74497448789E-02 -0.20218491779E-01 -0.11512798104E-01  0.10194998828E+01  0.10192071332E+01 0.  0.
     999903    2    3    3    0    0 -0.12164730211E+00 -0.10429858458E-01  0.41380197553E-01  0.13049225151E+00  0.20225204510E-01 0.  0.
         14    1    1    2    0    0  0.74497448789E-02  0.20218491779E-01  0.11512798104E-01  0.24430117248E-01  0.00000000000E+00 0.  1.
     999901    1    3    3    0    0  0.11419755723E+00 -0.97886333212E-02 -0.52892995657E-01  0.88900763124E+00  0.88000000000E+00 0. -1.
        -11    1    4    4    0    0 -0.84523289345E-01  0.21390283570E-02  0.27571957805E-01  0.88933884781E-01  0.51100000000E-03 0. -1.
         11    1    4    4    0    0 -0.37124012760E-01 -0.12568886815E-01  0.13808239748E-01  0.41558366728E-01  0.51100000000E-03 0.  1.
</event>
<event>
 8    1  0.1060404E+005  0.1043930E+01  0.7957747E-01            NaN
         13   -1    0    0    0    0  0.00000000000E+00  0.00000000000E+00  0.74505805969E-08  0.10566000000E+00  0.10566000000E+00 0.  1.
     999900   -1    0    0    0    0 -0.00000000000E+00 -0.00000000000E+00 -0.74505805969E-08  0.93827000000E+00  0.93827000000E+00 0. -1.
     999902    2    1    2    0    0  0.19581960010E-01  0.12373683617E-01  0.73819909385E-02  0.10196183774E+01  0.10193284949E+01 0.  0.
     999903    2    3    3    0    0  0.18788112908E-01 -0.25160177721E-01  0.12548153818E+00  0.13093568710E+00  0.20310342298E-01 0.  0.
         14    1    1    2    0    0 -0.19581960010E-01 -0.12373683617E-01 -0.73819909385E-02  0.24311622618E-01  0.00000000000E+00 0. -1.
     999901    1    3    3    0    0  0.79384710277E-03  0.37533861338E-01 -0.11809954724E+00  0.88868269028E+00  0.88000000000E+00 0. -1.
        -11    1    4    4    0    0  0.30002491552E-02 -0.29405910941E-02  0.58015731732E-01  0.58169878978E-01  0.51100000000E-03 0.  1.
         11    1    4    4    0    0  0.15787863752E-01 -0.22219586627E-01  0.67465806447E-01  0.72765808126E-01  0.51100000000E-03 0. -1.
</event>
<event>
 8    1  0.1060404E+005  0.1043930E+01  0.7957747E-01            NaN
         13   -1    0    0    0    0  0.00000000000E+00  0.00000000000E+00  0.74505805969E-08  0.10566000000E+00  0.10566000000E+00 0.  1.
     999900   -1    0    0    0    0 -0.00000000000E+00 -0.00000000000E+00 -0.74505805969E-08  0.93827000000E+00  0.93827000000E+00 0. -1.
     999902    2    1    2    0    0 -0.82631104532E-02  0.12389723579E-01  0.26915351666E-02  0.10287963089E+01  0.10286849939E+01 0.  0.
     999903    2    3    3    0    0 -0.71435211107E-01  0.23439787421E-01 -0.11494549927E+00  0.13865514589E+00  0.18983378496E-01 0.  0.
         14    1    1    2    0    0  0.82631104532E-02 -0.12389723579E-01 -0.26915351666E-02  0.15133691099E-01  0.00000000000E+00 0. -1.
     999901    1    3    3    0    0  0.63172100654E-01 -0.11050063842E-01  0.11763703444E+00  0.89014116301E+00  0.88000000000E+00 0.  1.
        -11    1    4    4    0    0 -0.91415710008E-02  0.10083324139E-01 -0.16548159001E-01  0.21432322165E-01  0.51100000000E-03 0. -1.
         11    1    4    4    0    0 -0.62293640107E-01  0.13356463282E-01 -0.98397340271E-01  0.11722282373E+00  0.51100000000E-03 0.  1.
</event>
<event>
 8    1  0.1060404E+005  0.1043930E+01  0.7957747E-01            NaN
         13   -1    0    0    0    0  0.00000000000E+00  0.00000000000E+00  0.74505805969E-08  0.10566000000E+00  0.10566000000E+00 0. -1.
     999900   -1    0    0    0    0 -0.00000000000E+00 -0.00000000000E+00 -0.74505805969E-08  0.93827000000E+00  0.93827000000E+00 0. -1.
     999902    2    1    2    0    0  0.17006368221E-02  0.61626369354E-02  0.22236109819E-01  0.10207931281E+01  0.10205308891E+01 0.  0.
     999903    2    3    3    0    0  0.39792410328E-01  0.10129172608E+00  0.74264632736E-01  0.13332059673E+00  0.20388627855E-01 0.  0.
         14    1    1    2    0    0 -0.17006368221E-02 -0.61626369354E-02 -0.22236109819E-01  0.23136871860E-01  0.00000000000E+00 0.  1.
     999901    1    3    3    0    0 -0.38091773506E-01 -0.95129089141E-01 -0.52028522917E-01  0.88747253141E+00  0.88000000000E+00 0. -1.
        -11    1    4    4    0    0  0.50205665417E-02  0.34284786963E-01  0.17209936993E-01  0.38692321691E-01  0.51100000000E-03 0.  1.
         11    1    4    4    0    0  0.34771843786E-01  0.67006939114E-01  0.57054695743E-01  0.94628275040E-01  0.51100000000E-03 0. -1.
</event>
<event>
 8    1  0.1060404E+005  0.1043930E+01  0.7957747E-01            NaN
         13   -1    0    0    0    0  0.00000000000E+00  0.00000000000E+00  0.74505805969E-08  0.10566000000E+00  0.10566000000E+00 0.  1.
     999900   -1    0    0    0    0 -0.00000000000E+00 -0.00000000000E+00 -0.74505805969E-08  0.93827000000E+00  0.93827000000E+00 0.  1.
     999902    2    1    2    0    0 -0.21231313238E-01 -0.58008016337E-02  0.74457015950E-02  0.10206951892E+01  0.10204306997E+01 0.  0.
     999903    2    3    3    0    0  0.61564285066E-01  0.34744356662E-01 -0.10574091814E+00  0.12866927485E+00  0.19424443478E-01 0.  0.
         14    1    1    2    0    0  0.21231313238E-01  0.58008016337E-02 -0.74457015950E-02  0.23234810816E-01  0.00000000000E+00 0.  1.
     999901    1    3    3    0    0 -0.82795598304E-01 -0.40545158296E-01  0.11318661974E+00  0.89202591434E+00  0.88000000000E+00 0. -1.
        -11    1    4    4    0    0  0.52281717237E-01  0.20205508122E-01 -0.80421644349E-01  0.98028274066E-01  0.51100000000E-03 0. -1.
         11    1    4    4    0    0  0.92825678291E-02  0.14538848540E-01 -0.25319273795E-01  0.30641000781E-01  0.51100000000E-03 0.  1.
</event>
<event>
 8    1  0.1060404E+005  0.1043930E+01  0.7957747E-01            NaN
         13   -1    0    0    0    0  0.00000000000E+00  0.00000000000E+00  0.74505805969E-08  0.10566000000E+00  0.10566000000E+00 0. -1.
     999900   -1    0    0    0    0 -0.00000000000E+00 -0.00000000000E+00 -0.74505805969E-08  0.93827000000E+00  0.93827000000E+00 0. -1.
     999902    2    1    2    0    0  0.24227936196E-01 -0.15845302899E-01 -0.76256876003E-02  0.10139931059E+01  0.10135510847E+01 0.  0.
     999903    2    3    3    0    0 -0.39861862049E-01 -0.11660103483E+00 -0.16062358766E-01  0.12588815875E+00  0.20126096848E-01 0.  0.
         14    1    1    2    0    0 -0.24227936196E-01  0.15845302899E-01  0.76256876003E-02  0.29936894088E-01  0.00000000000E+00 0. -1.
     999901    1    3    3    0    0  0.64089798245E-01  0.10075573193E+00  0.84366711660E-02  0.88810494716E+00  0.88000000000E+00 0.  1.
        -11    1    4    4    0    0 -0.31962821060E-01 -0.94268924780E-01 -0.20885025523E-01  0.10170888615E+00  0.51100000000E-03 0.  1.
         11    1    4    4    0    0 -0.78990409889E-02 -0.22332110051E-01  0.48226667564E-02  0.24179272601E-01  0.51100000000E-03 0. -1.
</event>
<event>
 8    1  0.1060404E+005  0.1043930E+01  0.7957747E-01            NaN
         13   -1    0    0    0    0  0.00000000000E+00  0.00000000000E+00  0.74505805969E-08  0.10566000000E+00  0.10566000000E+00 0.  1.
     999900   -1    0    0    0    0 -0.00000000000E+00 -0.00000000000E+00 -0.74505805969E-08  0.93827000000E+00  0.93827000000E+00 0.  1.
     999902    2    1    2    0    0 -0.29001507991E-02  0.24342104704E-03 -0.24507494171E-01  0.10192503039E+01  0.10189514682E+01 0.  0.
     999903    2    3    3    0    0  0.22587290067E-01  0.60741478700E-01  0.10745864736E+00  0.12699210858E+00  0.19491583899E-01 0.  0.
         14    1    1    2    0    0  0.29001507991E-02 -0.24342104704E-03  0.24507494171E-01  0.24679696088E-01  0.00000000000E+00 0.  1.
     999901    1    3    3    0    0 -0.25487440866E-01 -0.60498057653E-01 -0.13196614153E+00  0.89225819533E+00  0.88000000000E+00 0.  1.
        -11    1    4    4    0    0  0.94015134544E-02  0.33559443019E-01  0.39874182105E-01  0.52960704211E-01  0.51100000000E-03 0. -1.
         11    1    4    4    0    0  0.13185776612E-01  0.27182035682E-01  0.67584465254E-01  0.74031404372E-01  0.51100000000E-03 0.  1.
</event>
<event>
 8    1  0.1060404E+005  0.1043930E+01  0.7957747E-01            NaN
         13   -1    0    0    0    0  0.00000000000E+00  0.00000000000E+00  0.74505805969E-08  0.10566000000E+00  0.10566000000E+00 0.  1.
     999900   -1    0    0    0    0 -0.00000000000E+00 -0.00000000000E+00 -0.74505805969E-08  0.93827000000E+00  0.93827000000E+00 0.  1.
     999902    2    1    2    0    0 -0.14003901631E-01 -0.10313212516E-01  0.19839385065E-01  0.10175468081E+01  0.10172047158E+01 0.  0.
     999903    2    3    3    0    0  0.28716398011E-01 -0.76774477671E-01  0.99069092012E-01  0.13046199244E+00  0.22061154625E-01 0.  0.
         14    1    1    2    0    0  0.14003901631E-01  0.10313212516E-01 -0.19839385065E-01  0.26383191866E-01  0.00000000000E+00 0. -1.
     999901    1    3    3    0    0 -0.42720299642E-01  0.66461265155E-01 -0.79229706947E-01  0.88708481569E+00  0.88000000000E+00 0.  1.
        -11    1    4    4    0    0  0.81096575134E-02 -0.38808412221E-01  0.33326363688E-01  0.51795434565E-01  0.51100000000E-03 0.  1.
         11    1    4    4    0    0  0.20606740497E-01 -0.37966065450E-01  0.65742728324E-01  0.78666557877E-01  0.51100000000E-03 0. -1.
</event>
<event>
 8    1  0.1060404E+005  0.1043930E+01  0.7957747E-01            NaN
         13   -1    0    0    0    0  0.00000000000E+00  0.00000000000E+00  0.74505805969E-08  0.10566000000E+00  0.10566000000E+00 0.  1.
     999900   -1    0    0    0    0 -0.00000000000E+00 -0.00000000000E+00 -0.74505805969E-08  0.93827000000E+00  0.93827000000E+00 0. -1.
     999902    2    1    2    0    0  0.10605594525E-01 -0.20209221468E-01 -0.54906900088E-02  0.10204557813E+01  0.10201857491E+01 0.  0.
     999903    2    3    3    0    0  0.54582971153E-01 -0.84603954912E-01 -0.85108137187E-01  0.13342724215E+00  0.20550036604E-01 0.  0.
         14    1    1    2    0    0 -0.10605594525E-01  0.20209221468E-01  0.54906900088E-02  0.23474218717E-01  0.00000000000E+00 0. -1.
     999901    1    3    3    0    0 -0.43977376628E-01  0.64394733444E-01  0.79617447178E-01  0.88702853914E+00  0.88000000000E+00 0.  1.
        -11    1    4    4    0    0  0.23490085534E-01 -0.28849079756E-01 -0.43420869684E-01  0.57181173181E-01  0.51100000000E-03 0. -1.
         11    1    4    4    0    0  0.31092885619E-01 -0.55754875155E-01 -0.41687267503E-01  0.76246068965E-01  0.51100000000E-03 0.  1.
</event>
<event>
 8    1  0.1060404E+005  0.1043930E+01  0.7957747E-01            NaN
         13   -1    0    0    0    0  0.00000000000E+00  0.00000000000E+00  0.74505805969E-08  0.10566000000E+00  0.10566000000E+00 0. -1.
     999900   -1    0    0    0    0 -0.00000000000E+00 -0.00000000000E+00 -0.74505805969E-08  0.93827000000E+00  0.93827000000E+00 0. -1.
     999902    2    1    2    0    0  0.23348046719E-01  0.55332518834E-02 -0.15651349486E-02  0.10198842559E+01  0.10196007540E+01 0.  0.
     999903    2    3    3    0    0  0.42514899566E-01 -0.10926936215E+00 -0.54181280319E-01  0.13066242351E+00  0.19742026040E-01 0.  0.
         14    1    1    2    0    0 -0.23348046719E-01 -0.55332518834E-02  0.15651349486E-02  0.24045744102E-01  0.00000000000E+00 0. -1.
     999901    1    3    3    0    0 -0.19166852847E-01  0.11480261403E+00  0.52616145370E-01  0.88922183238E+00  0.88000000000E+00 0.  1.
        -11    1    4    4    0    0  0.31391068356E-01 -0.98582943366E-01 -0.46775629541E-01  0.11354389695E+00  0.51100000000E-03 0.  1.
         11    1    4    4    0    0  0.11123831210E-01 -0.10686418781E-01 -0.74056507776E-02  0.17118526560E-01  0.51100000000E-03 0. -1.
</event>
<event>
 8    1  0.1060404E+005  0.1043930E+01  0.7957747E-01            NaN
         13   -1    0    0    0    0  0.00000000000E+00  0.00000000000E+00  0.74505805969E-08  0.10566000000E+00  0.10566000000E+00 0. -1.
     999900   -1    0    0    0    0 -0.00000000000E+00 -0.00000000000E+00 -0.74505805969E-08  0.93827000000E+00  0.93827000000E+00 0.  1.
     999902    2    1    2    0    0 -0.16196421828E-01  0.41267420894E-02  0.16753006045E-01  0.10202653155E+01  0.10199908317E+01 0.  0.
     999903    2    3    3    0    0  0.47878227843E-01 -0.40755248053E-01 -0.10952290682E+00  0.12781612372E+00  0.19707344243E-01 0.  0.
         14    1    1    2    0    0  0.16196421828E-01 -0.41267420894E-02 -0.16753006045E-01  0.23664684487E-01  0.00000000000E+00 0.  1.
     999901    1    3    3    0    0 -0.64074649671E-01  0.44881990143E-01  0.12627591287E+00  0.89244919180E+00  0.88000000000E+00 0. -1.
        -11    1    4    4    0    0  0.43110221823E-01 -0.41230527105E-01 -0.92043261541E-01  0.10968441415E+00  0.51100000000E-03 0.  1.
         11    1    4    4    0    0  0.47680060200E-02  0.47527905192E-03 -0.17479645284E-01  0.18131709567E-01  0.51100000000E-03 0. -1.
</event>
<event>
 8    1  0.1060404E+005  0.1043930E+01  0.7957747E-01            NaN
         13   -1    0    0    0    0  0.00000000000E+00  0.00000000000E+00  0.74505805969E-08  0.10566000000E+00  0.10566000000E+00 0. -1.
     999900   -1    0    0    0    0 -0.00000000000E+00 -0.00000000000E+00 -0.74505805969E-08  0.93827000000E+00  0.93827000000E+00 0.  1.
     999902    2    1    2    0    0  0.12001794285E-02  0.17263110225E-01 -0.16724520652E-01  0.10198641529E+01  0.10195801711E+01 0.  0.
     999903    2    3    3    0    0  0.12670266416E+00  0.20948374183E-01 -0.15589533624E-01  0.13095147832E+00  0.20318873753E-01 0.  0.
         14    1    1    2    0    0 -0.12001794285E-02 -0.17263110225E-01  0.16724520652E-01  0.24065847094E-01  0.00000000000E+00 0. -1.
     999901    1    3    3    0    0 -0.12550248473E+00 -0.36852639581E-02 -0.11349870276E-02  0.88891267459E+00  0.88000000000E+00 0. -1.
        -11    1    4    4    0    0  0.63258426761E-01  0.26504703141E-02 -0.14279986845E-01  0.64906337861E-01  0.51100000000E-03 0. -1.
         11    1    4    4    0    0  0.63444237395E-01  0.18297903869E-01 -0.13095467791E-02  0.66045140460E-01  0.51100000000E-03 0.  1.
</event>
<event>
 8    1  0.1060404E+005  0.1043930E+01  0.7957747E-01            NaN
         13   -1    0    0    0    0  0.00000000000E+00  0.00000000000E+00  0.74505805969E-08  0.10566000000E+00  0.10566000000E+00 0. -1.
     999900   -1    0    0    0    0 -0.00000000000E+00 -0.00000000000E+00 -0.74505805969E-08  0.93827000000E+00  0.93827000000E+00 0. -1.
     999902    2    1    2    0    0 -0.12108677070E-01  0.58278257950E-02  0.19292820167E-01  0.10204183747E+01  0.10201474712E+01 0.  0.
     999903    2    3    3    0    0  0.37865080518E-01 -0.12187278162E+00 -0.67454053803E-02  0.12941735856E+00  0.20411099436E-01 0.  0.
         14    1    1    2    0    0  0.12108677070E-01 -0.58278257950E-02 -0.19292820167E-01  0.23511625292E-01  0.00000000000E+00 0.  1.
     999901    1    3    3    0    0 -0.49973757588E-01  0.12770060742E+00  0.26038225547E-01  0.89100101615E+00  0.88000000000E+00 0.  1.
        -11    1    4    4    0    0  0.88781046553E-02 -0.36615164916E-01  0.69941000562E-02  0.38323225343E-01  0.51100000000E-03 0.  1.
         11    1    4    4    0    0  0.28986975863E-01 -0.85257616708E-01 -0.13739505436E-01  0.91094133220E-01  0.51100000000E-03 0. -1.
</event>
<event>
 8    1  0.1060404E+005  0.1043930E+01  0.7957747E-01            NaN
         13   -1    0    0    0    0  0.00000000000E+00  0.00000000000E+00  0.74505805969E-08  0.10566000000E+00  0.10566000000E+00 0. -1.
     999900   -1    0    0    0    0 -0.00000000000E+00 -0.00000000000E+00 -0.74505805969E-08  0.93827000000E+00  0.93827000000E+00 0.  1.
     999902    2    1    2    0    0 -0.35248812055E-02  0.16922178128E-01 -0.17372782785E-01  0.10194228892E+01  0.10191282689E+01 0.  0.
     999903    2    3    3    0    0  0.28783906385E-01  0.42279075074E-02  0.12271208292E+00  0.12766688449E+00  0.19854209432E-01 0.  0.
         14    1    1    2    0    0  0.35248812055E-02 -0.16922178128E-01  0.17372782785E-01  0.24507110841E-01  0.00000000000E+00 0. -1.
     999901    1    3    3    0    0 -0.32308787590E-01  0.12694270620E-01 -0.14008486571E+00  0.89175600467E+00  0.88000000000E+00 0.  1.
        -11    1    4    4    0    0  0.28828347786E-01  0.91253224183E-02  0.10787411400E+00  0.11203316803E+00  0.51100000000E-03 0.  1.
         11    1    4    4    0    0 -0.44441401711E-04 -0.48974149110E-02  0.14837968918E-01  0.15633716463E-01  0.51100000000E-03 0. -1.
</event>
<event>
 8    1  0.1060404E+005  0.1043930E+01  0.7957747E-01            NaN
         13   -1    0    0    0    0  0.00000000000E+00  0.00000000000E+00  0.74505805969E-08  0.10566000000E+00  0.10566000000E+00 0.  1.
     999900   -1    0    0    0    0 -0.00000000000E+00 -0.00000000000E+00 -0.74505805969E-08  0.93827000000E+00  0.93827000000E+00 0.  1.
     999902    2    1    2    0    0 -0.19269750998E-01  0.15210302637E-02 -0.14442164649E-01  0.10198009106E+01  0.10195154164E+01 0.  0.
     999903    2    3    3    0    0 -0.13170909548E-01  0.31324760604E-01  0.12253031120E+00  0.12868536400E+00  0.19787174159E-01 0.  0.
         14    1    1    2    0    0  0.19269750998E-01 -0.15210302637E-02  0.14442164649E-01  0.24129089422E-01  0.00000000000E+00 0.  1.
     999901    1    3    3    0    0 -0.60988414495E-02 -0.29803730340E-01 -0.13697247585E+00  0.89111554658E+00  0.88000000000E+00 0.  1.
        -11    1    4    4    0    0 -0.12452078706E-01  0.13321208263E-01  0.36710853725E-01  0.40993374537E-01  0.51100000000E-03 0.  1.
         11    1    4    4    0    0 -0.71883084152E-03  0.18003552342E-01  0.85819457472E-01  0.87691989466E-01  0.51100000000E-03 0. -1.
</event>
<event>
 8    1  0.1060404E+005  0.1043930E+01  0.7957747E-01            NaN
         13   -1    0    0    0    0  0.00000000000E+00  0.00000000000E+00  0.74505805969E-08  0.10566000000E+00  0.10566000000E+00 0.  1.
     999900   -1    0    0    0    0 -0.00000000000E+00 -0.00000000000E+00 -0.74505805969E-08  0.93827000000E+00  0.93827000000E+00 0.  1.
     999902    2    1    2    0    0 -0.11098933785E-01  0.17239851121E-01 -0.12805159893E-01  0.10197562349E+01  0.10194696699E+01 0.  0.
     999903    2    3    3    0    0  0.18380005107E-01 -0.84013364156E-01  0.91883962585E-01  0.12729837385E+00  0.19134875468E-01 0.  0.
         14    1    1    2    0    0  0.11098933785E-01 -0.17239851121E-01  0.12805159893E-01  0.24173765071E-01  0.00000000000E+00 0.  1.
     999901    1    3    3    0    0 -0.29478938892E-01  0.10125321528E+00 -0.10468912248E+00  0.89245786108E+00  0.88000000000E+00 0.  1.
        -11    1    4    4    0    0  0.10193169209E-01 -0.14194475422E-01  0.22850163596E-01  0.28771077985E-01  0.51100000000E-03 0.  1.
         11    1    4    4    0    0  0.81868358981E-02 -0.69818888734E-01  0.69033798989E-01  0.98527295862E-01  0.51100000000E-03 0. -1.
</event>
<event>
 8    1  0.1060404E+005  0.1043930E+01  0.7957747E-01            NaN
         13   -1    0    0    0    0  0.00000000000E+00  0.00000000000E+00  0.74505805969E-08  0.10566000000E+00  0.10566000000E+00 0. -1.
     999900   -1    0    0    0    0 -0.00000000000E+00 -0.00000000000E+00 -0.74505805969E-08  0.93827000000E+00  0.93827000000E+00 0. -1.
     999902    2    1    2    0    0  0.40717435143E-02 -0.17349972645E-01 -0.10334923589E-01  0.10233287551E+01  0.10231213661E+01 0.  0.
     999903    2    3    3    0    0 -0.71132457708E-01  0.81032405731E-01 -0.74163041396E-01  0.13236927629E+00  0.19884448134E-01 0.  0.
         14    1    1    2    0    0 -0.40717435143E-02  0.17349972645E-01  0.10334923589E-01  0.20601244904E-01  0.00000000000E+00 0. -1.
     999901    1    3    3    0    0  0.75204201222E-01 -0.98382378376E-01  0.63828117806E-01  0.89095947881E+00  0.88000000000E+00 0. -1.
        -11    1    4    4    0    0 -0.56433934986E-01  0.74031504570E-01 -0.66269241720E-01  0.11426865802E+00  0.51100000000E-03 0. -1.
         11    1    4    4    0    0 -0.14698522722E-01  0.70009011608E-02 -0.78937996759E-02  0.18100618265E-01  0.51100000000E-03 0.  1.
</event>
<event>
 8    1  0.1060404E+005  0.1043930E+01  0.7957747E-01            NaN
         13   -1    0    0    0    0  0.00000000000E+00  0.00000000000E+00  0.74505805969E-08  0.10566000000E+00  0.10566000000E+00 0.  1.
     999900   -1    0    0    0    0 -0.00000000000E+00 -0.00000000000E+00 -0.74505805969E-08  0.93827000000E+00  0.93827000000E+00 0. -1.
     999902    2    1    2    0    0 -0.13558571497E-01  0.19632038606E-01  0.20417867457E-02  0.10199837958E+01  0.10197026640E+01 0.  0.
     999903    2    3    3    0    0 -0.11850056234E+00 -0.79884037004E-02 -0.52967942729E-01  0.13161350107E+00  0.20256180287E-01 0.  0.
         14    1    1    2    0    0  0.13558571497E-01 -0.19632038606E-01 -0.20417867457E-02  0.23946204166E-01  0.00000000000E+00 0.  1.
     999901    1    3    3    0    0  0.10494199084E+00  0.27620442306E-01  0.55009729474E-01  0.88837029476E+00  0.88000000000E+00 0. -1.
        -11    1    4    4    0    0 -0.65331934108E-01  0.55967266144E-02 -0.30347753033E-01  0.72255326435E-01  0.51100000000E-03 0.  1.
         11    1    4    4    0    0 -0.53168628230E-01 -0.13585130315E-01 -0.22620189695E-01  0.59358174638E-01  0.51100000000E-03 0. -1.
</event>
<event>
 8    1  0.1060404E+005  0.1043930E+01  0.7957747E-01            NaN
         13   -1    0    0    0    0  0.00000000000E+00  0.00000000000E+00  0.74505805969E-08  0.10566000000E+00  0.10566000000E+00 0. -1.
     999900   -1    0    0    0    0 -0.00000000000E+00 -0.00000000000E+00 -0.74505805969E-08  0.93827000000E+00  0.93827000000E+00 0. -1.
     999902    2    1    2    0    0  0.20443551622E-01  0.82741455742E-03  0.11493932524E-01  0.10204622796E+01  0.10201923986E+01 0.  0.
     999903    2    3    3    0    0 -0.74774950698E-01  0.32659522414E-01  0.99346133599E-01  0.13040730625E+00  0.21874039563E-01 0.  0.
         14    1    1    2    0    0 -0.20443551622E-01 -0.82741455742E-03 -0.11493932524E-01  0.23467720440E-01  0.00000000000E+00 0. -1.
     999901    1    3    3    0    0  0.95218502321E-01 -0.31832107856E-01 -0.87852201075E-01  0.89005497331E+00  0.88000000000E+00 0. -1.
        -11    1    4    4    0    0 -0.46439932405E-01  0.21717303445E-01  0.77758599308E-01  0.93139516200E-01  0.51100000000E-03 0. -1.
         11    1    4    4    0    0 -0.28335018293E-01  0.10942218969E-01  0.21587534292E-01  0.37267790053E-01  0.51100000000E-03 0.  1.
</event>
<event>
 8    1  0.1060404E+005  0.1043930E+01  0.7957747E-01            NaN
         13   -1    0    0    0    0  0.00000000000E+00  0.00000000000E+00  0.74505805969E-08  0.10566000000E+00  0.10566000000E+00 0. -1.
     999900   -1    0    0    0    0 -0.00000000000E+00 -0.00000000000E+00 -0.74505805969E-08  0.93827000000E+00  0.93827000000E+00 0. -1.
     999902    2    1    2    0    0 -0.15834201916E-01 -0.99504539267E-02  0.12557365313E-01  0.10214039949E+01  0.10211555708E+01 0.  0.
     999903    2    3    3    0    0  0.10451796904E+00  0.32787649939E-01  0.68107297196E-01  0.13045114229E+00  0.19490016789E-01 0.  0.
         14    1    1    2    0    0  0.15834201916E-01  0.99504539267E-02 -0.12557365313E-01  0.22526005134E-01  0.00000000000E+00 0.  1.
     999901    1    3    3    0    0 -0.12035217095E+00 -0.42738103865E-01 -0.55549931883E-01  0.89095285257E+00  0.88000000000E+00 0. -1.
        -11    1    4    4    0    0  0.21724123209E-01  0.10355001479E-02  0.73690388071E-02  0.22968971324E-01  0.51100000000E-03 0. -1.
         11    1    4    4    0    0  0.82793845827E-01  0.31752149791E-01  0.60738258389E-01  0.10748217097E+00  0.51100000000E-03 0.  1.
</event>
<event>
 8    1  0.1060404E+005  0.1043930E+01  0.7957747E-01            NaN
         13   -1    0    0    0    0  0.00000000000E+00  0.00000000000E+00  0.74505805969E-08  0.10566000000E+00  0.10566000000E+00 0. -1.
     999900   -1    0    0    0    0 -0.00000000000E+00 -0.00000000000E+00 -0.74505805969E-08  0.93827000000E+00  0.93827000000E+00 0. -1.
     999902    2    1    2    0    0  0.11497051052E-01 -0.20195213837E-01 -0.26770827153E-02  0.10205377873E+01  0.10202696602E+01 0.  0.
     999903    2    3    3    0    0  0.75998021540E-01  0.10199105154E+00 -0.15159856920E-01  0.12966985188E+00  0.20163713759E-01 0.  0.
         14    1    1    2    0    0 -0.11497051052E-01  0.20195213837E-01  0.26770827153E-02  0.23392212736E-01  0.00000000000E+00 0. -1.
     999901    1    3    3    0    0 -0.64500970488E-01 -0.12218626538E+00  0.12482774205E-01  0.89086793538E+00  0.88000000000E+00 0.  1.
        -11    1    4    4    0    0  0.66409783377E-01  0.80408682347E-01 -0.64301087736E-02  0.10448647254E+00  0.51100000000E-03 0. -1.
         11    1    4    4    0    0  0.95882381631E-02  0.21582369195E-01 -0.87297481468E-02  0.25183379337E-01  0.51100000000E-03 0.  1.
</event>
<event>
 8    1  0.1060404E+005  0.1043930E+01  0.7957747E-01            NaN
         13   -1    0    0    0    0  0.00000000000E+00  0.00000000000E+00  0.74505805969E-08  0.10566000000E+00  0.10566000000E+00 0. -1.
     999900   -1    0    0    0    0 -0.00000000000E+00 -0.00000000000E+00 -0.74505805969E-08  0.93827000000E+00  0.93827000000E+00 0.  1.
     999902    2    1    2    0    0 -0.22338116450E-02 -0.19767656933E-01 -0.15694755066E-01  0.10185907910E+01  0.10182755639E+01 0.  0.
     999903    2    3    3    0    0 -0.79229129689E-01 -0.14222783171E-01 -0.10147656072E+00  0.13105626053E+00  0.19967686336E-01 0.  0.
         14    1    1    2    0    0  0.22338116450E-02  0.19767656933E-01  0.15694755066E-01  0.25339208979E-01  0.00000000000E+00 0.  1.
     999901    1    3    3    0    0  0.76995318044E-01 -0.55448737619E-02  0.85781805653E-01  0.88753453049E+00  0.88000000000E+00 0. -1.
        -11    1    4    4    0    0 -0.36044288731E-01 -0.12757152593E-01 -0.60067382477E-01  0.71205949548E-01  0.51100000000E-03 0.  1.
         11    1    4    4    0    0 -0.43184840957E-01 -0.14656305785E-02 -0.41409178242E-01  0.59850310986E-01  0.51100000000E-03 0. -1.
</event>
<event>
 8    1  0.1060404E+005  0.1043930E+01  0.7957747E-01            NaN
         13   -1    0    0    0    0  0.00000000000E+00  0.00000000000E+00  0.74505805969E-08  0.10566000000E+00  0.10566000000E+00 0. -1.
     999900   -1    0    0    0    0 -0.00000000000E+00 -0.00000000000E+00 -0.74505805969E-08  0.93827000000E+00  0.93827000000E+00 0. -1.
     999902    2    1    2    0    0 -0.18943789333E-01  0.96786876565E-02  0.10801619615E-01  0.10200716862E+01  0.10197926387E+01 0.  0.
     999903    2    3    3    0    0  0.99829318077E-01  0.29710931722E-01  0.74421250157E-01  0.12959102995E+00  0.20166317366E-01 0.  0.
         14    1    1    2    0    0  0.18943789333E-01 -0.96786876565E-02 -0.10801619615E-01  0.23858313758E-01  0.00000000000E+00 0.  1.
     999901    1    3    3    0    0 -0.11877310741E+00 -0.20032244066E-01 -0.63619630542E-01  0.89048065630E+00  0.88000000000E+00 0. -1.
        -11    1    4    4    0    0  0.68885898562E-01  0.14528685059E-01  0.58875931355E-01  0.91776827817E-01  0.51100000000E-03 0.  1.
         11    1    4    4    0    0  0.30943419515E-01  0.15182246663E-01  0.15545318802E-01  0.37814202130E-01  0.51100000000E-03 0. -1.
</event>
<event>
 8    1  0.1060404E+005  0.1043930E+01  0.7957747E-01            NaN
         13   -1    0    0    0    0  0.00000000000E+00  0.00000000000E+00  0.74505805969E-08  0.10566000000E+00  0.10566000000E+00 0.  1.
     999900   -1    0    0    0    0 -0.00000000000E+00 -0.00000000000E+00 -0.74505805969E-08  0.93827000000E+00  0.93827000000E+00 0. -1.
     999902    2    1    2    0    0 -0.75493389627E-02  0.22347611899E-01 -0.24647769710E-03  0.10203404043E+01  0.10200676799E+01 0.  0.
     999903    2    3    3    0    0  0.10121672387E+00  0.70829268977E-01 -0.40444705022E-01  0.13141047170E+00  0.19269856624E-01 0.  0.
         14    1    1    2    0    0  0.75493389627E-02 -0.22347611899E-01  0.24647769710E-03  0.23589595749E-01  0.00000000000E+00 0. -1.
     999901    1    3    3    0    0 -0.10876606283E+00 -0.48481657078E-01  0.40198227325E-01  0.88892993255E+00  0.88000000000E+00 0.  1.
        -11    1    4    4    0    0  0.59236691025E-01  0.48393639915E-01 -0.17049457306E-01  0.78370115881E-01  0.51100000000E-03 0. -1.
         11    1    4    4    0    0  0.41980032846E-01  0.22435629062E-01 -0.23395247717E-01  0.53040355823E-01  0.51100000000E-03 0.  1.
</event>
<event>
 8    1  0.1060404E+005  0.1043930E+01  0.7957747E-01            NaN
         13   -1    0    0    0    0  0.00000000000E+00  0.00000000000E+00  0.74505805969E-08  0.10566000000E+00  0.10566000000E+00 0.  1.
     999900   -1    0    0    0    0 -0.00000000000E+00 -0.00000000000E+00 -0.74505805969E-08  0.93827000000E+00  0.93827000000E+00 0.  1.
     999902    2    1    2    0    0  0.19769353392E-01 -0.17164531623E-02 -0.14336000945E-01  0.10194495084E+01  0.10191555356E+01 0.  0.
     999903    2    3    3    0    0  0.38599168193E-01  0.10482640506E+00  0.61527475312E-01  0.12958367044E+00  0.22974473748E-01 0.  0.
         14    1    1    2    0    0 -0.19769353392E-01  0.17164531623E-02  0.14336000945E-01  0.24480491582E-01  0.00000000000E+00 0.  1.
     999901    1    3    3    0    0 -0.18829814802E-01 -0.10654285822E+00 -0.75863476257E-01  0.88986583797E+00  0.88000000000E+00 0.  1.
        -11    1    4    4    0    0  0.15922366570E-01  0.68028212998E-01  0.29779252000E-01  0.75950144776E-01  0.51100000000E-03 0. -1.
         11    1    4    4    0    0  0.22676801624E-01  0.36798192064E-01  0.31748223312E-01  0.53633525668E-01  0.51100000000E-03 0.  1.
</event>
<event>
 8    1  0.1060404E+005  0.1043930E+01  0.7957747E-01            NaN
         13   -1    0    0    0    0  0.00000000000E+00  0.00000000000E+00  0.74505805969E-08  0.10566000000E+00  0.10566000000E+00 0. -1.
     999900   -1    0    0    0    0 -0.00000000000E+00 -0.00000000000E+00 -0.74505805969E-08  0.93827000000E+00  0.93827000000E+00 0.  1.
     999902    2    1    2    0    0 -0.17091494381E-01  0.15826434150E-01 -0.16878620692E-02  0.10205752558E+01  0.10203079970E+01 0.  0.
     999903    2    3    3    0    0  0.20233724660E-01  0.12007603935E+00  0.47234528485E-01  0.13228782909E+00  0.21007384536E-01 0.  0.
         14    1    1    2    0    0  0.17091494381E-01 -0.15826434150E-01  0.16878620692E-02  0.23354744196E-01  0.00000000000E+00 0. -1.
     999901    1    3    3    0    0 -0.37325219042E-01 -0.10424960520E+00 -0.48922390554E-01  0.88828742671E+00  0.88000000000E+00 0. -1.
        -11    1    4    4    0    0  0.13682913073E-01  0.89223246945E-01  0.44455646873E-01  0.10062094993E+00  0.51100000000E-03 0. -1.
         11    1    4    4    0    0  0.65508115872E-02  0.30852792403E-01  0.27788816116E-02  0.31666879157E-01  0.51100000000E-03 0.  1.
</event>
<event>
 8    1  0.1060404E+005  0.1043930E+01  0.7957747E-01            NaN
         13   -1    0    0    0    0  0.00000000000E+00  0.00000000000E+00  0.74505805969E-08  0.10566000000E+00  0.10566000000E+00 0. -1.
     999900   -1    0    0    0    0 -0.00000000000E+00 -0.00000000000E+00 -0.74505805969E-08  0.93827000000E+00  0.93827000000E+00 0. -1.
     999902    2    1    2    0    0 -0.12524700969E-01 -0.23527247155E-01 -0.28330926612E-02  0.10171265318E+01  0.10167733060E+01 0.  0.
     999903    2    3    3    0    0  0.47181887063E-01  0.10406053757E+00  0.45894177508E-01  0.12459201353E+00  0.19030721489E-01 0.  0.
         14    1    1    2    0    0  0.12524700969E-01  0.23527247155E-01  0.28330926612E-02  0.26803468191E-01  0.00000000000E+00 0. -1.
     999901    1    3    3    0    0 -0.59706588032E-01 -0.12758778472E+00 -0.48727270169E-01  0.89253451828E+00  0.88000000000E+00 0.  1.
        -11    1    4    4    0    0  0.35659009438E-01  0.90293837696E-01  0.33210231748E-01  0.10260469138E+00  0.51100000000E-03 0. -1.
         11    1    4    4    0    0  0.11522877625E-01  0.13766699871E-01  0.12683945761E-01  0.21987322146E-01  0.51100000000E-03 0.  1.
</event>
<event>
 8    1  0.1060404E+005  0.1043930E+01  0.7957747E-01            NaN
         13   -1    0    0    0    0  0.00000000000E+00  0.00000000000E+00  0.74505805969E-08  0.10566000000E+00  0.10566000000E+00 0.  1.
     999900   -1    0    0    0    0 -0.00000000000E+00 -0.00000000000E+00 -0.74505805969E-08  0.93827000000E+00  0.93827000000E+00 0.  1.
     999902    2    1    2    0    0  0.16311425468E-01 -0.72777848617E-02 -0.16360320295E-01  0.10197083396E+01  0.10194206242E+01 0.  0.
     999903    2    3    3    0    0  0.95192479645E-01 -0.30492885346E-01  0.81516377699E-01  0.13047214508E+00  0.19663076340E-01 0.  0.
         14    1    1    2    0    0 -0.16311425468E-01  0.72777848617E-02  0.16360320295E-01  0.24221660419E-01  0.00000000000E+00 0.  1.
     999901    1    3    3    0    0 -0.78881054177E-01  0.23215100485E-01 -0.97876697994E-01  0.88923619450E+00  0.88000000000E+00 0.  1.
        -11    1    4    4    0    0  0.49620129255E-01 -0.82927332085E-02  0.32112069153E-01  0.59685616003E-01  0.51100000000E-03 0.  1.
         11    1    4    4    0    0  0.45572350390E-01 -0.22200152138E-01  0.49404308546E-01  0.70786529078E-01  0.51100000000E-03 0. -1.
</event>
<event>
 8    1  0.1060404E+005  0.1043930E+01  0.7957747E-01            NaN
         13   -1    0    0    0    0  0.00000000000E+00  0.00000000000E+00  0.74505805969E-08  0.10566000000E+00  0.10566000000E+00 0. -1.
     999900   -1    0    0    0    0 -0.00000000000E+00 -0.00000000000E+00 -0.74505805969E-08  0.93827000000E+00  0.93827000000E+00 0. -1.
     999902    2    1    2    0    0  0.16163040161E-01  0.13914874275E-01  0.99421940149E-02  0.10203988544E+01  0.10201274955E+01 0.  0.
     999903    2    3    3    0    0  0.49020488165E-01  0.41733537973E-01  0.11485999438E+00  0.13312142606E+00  0.19590796685E-01 0.  0.
         14    1    1    2    0    0 -0.16163040161E-01 -0.13914874275E-01 -0.99421940149E-02  0.23531145641E-01  0.00000000000E+00 0.  1.
     999901    1    3    3    0    0 -0.32857448004E-01 -0.27818663697E-01 -0.10491780037E+00  0.88727742830E+00  0.88000000000E+00 0. -1.
        -11    1    4    4    0    0  0.21348898895E-01  0.19190896037E-01  0.70910546256E-01  0.76502501044E-01  0.51100000000E-03 0. -1.
         11    1    4    4    0    0  0.27671589270E-01  0.22542641936E-01  0.43949448125E-01  0.56618925014E-01  0.51100000000E-03 0.  1.
</event>
<event>
 8    1  0.1060404E+005  0.1043930E+01  0.7957747E-01            NaN
         13   -1    0    0    0    0  0.00000000000E+00  0.00000000000E+00  0.74505805969E-08  0.10566000000E+00  0.10566000000E+00 0. -1.
     999900   -1    0    0    0    0 -0.00000000000E+00 -0.00000000000E+00 -0.74505805969E-08  0.93827000000E+00  0.93827000000E+00 0.  1.
     999902    2    1    2    0    0  0.97743490375E-02  0.60349532873E-02  0.16878736009E-01  0.10235130881E+01  0.10233094309E+01 0.  0.
     999903    2    3    3    0    0  0.71982714353E-02 -0.49655912846E-01 -0.11959846554E+00  0.13124959832E+00  0.20128072600E-01 0.  0.
         14    1    1    2    0    0 -0.97743490375E-02 -0.60349532873E-02 -0.16878736009E-01  0.20416911851E-01  0.00000000000E+00 0.  1.
     999901    1    3    3    0    0  0.25760776021E-02  0.55690866133E-01  0.13647720155E+00  0.89226348983E+00  0.88000000000E+00 0. -1.
        -11    1    4    4    0    0  0.90313626589E-02 -0.11105734432E-01 -0.45499825450E-01  0.47701132961E-01  0.51100000000E-03 0.  1.
         11    1    4    4    0    0 -0.18330912236E-02 -0.38550178414E-01 -0.74098640089E-01  0.83548465355E-01  0.51100000000E-03 0. -1.
</event>
<event>
 8    1  0.1060404E+005  0.1043930E+01  0.7957747E-01            NaN
         13   -1    0    0    0    0  0.00000000000E+00  0.00000000000E+00  0.74505805969E-08  0.10566000000E+00  0.10566000000E+00 0. -1.
     999900   -1    0    0    0    0 -0.00000000000E+00 -0.00000000000E+00 -0.74505805969E-08  0.93827000000E+00  0.93827000000E+00 0.  1.
     999902    2    1    2    0    0  0.15383690753E-01  0.17522120236E-01  0.37710828739E-02  0.10203100147E+01  0.10200365790E+01 0.  0.
     999903    2    3    3    0    0 -0.59935455931E-01 -0.10444089140E+00  0.38032057652E-01  0.12805345718E+00  0.21238922140E-01 0.  0.
         14    1    1    2    0    0 -0.15383690753E-01 -0.17522120236E-01 -0.37710828739E-02  0.23619985284E-01  0.00000000000E+00 0.  1.
     999901    1    3    3    0    0  0.75319146684E-01  0.12196301164E+00 -0.34260974778E-01  0.89225655753E+00  0.88000000000E+00 0.  1.
        -11    1    4    4    0    0 -0.29277578618E-01 -0.36617293690E-01  0.22555233814E-01  0.52028862185E-01  0.51100000000E-03 0. -1.
         11    1    4    4    0    0 -0.30657877313E-01 -0.67823597711E-01  0.15476823837E-01  0.76024595000E-01  0.51100000000E-03 0.  1.
</event>
<event>
 8    1  0.1060404E+005  0.1043930E+01  0.7957747E-01            NaN
         13   -1    0    0    0    0  0.00000000000E+00  0.00000000000E+00  0.74505805969E-08  0.10566000000E+00  0.10566000000E+00 0.  1.
     999900   -1    0    0    0    0 -0.00000000000E+00 -0.00000000000E+00 -0.74505805969E-08  0.93827000000E+00  0.93827000000E+00 0. -1.
     999902    2    1    2    0    0 -0.34375707605E-02 -0.21462257225E-01 -0.15460943187E-01  0.10172563024E+01  0.10169065339E+01 0.  0.
     999903    2    3    3    0    0  0.88437268663E-01  0.83927167177E-01  0.22098664840E-01  0.12542748418E+00  0.19462346267E-01 0.  0.
         14    1    1    2    0    0  0.34375707605E-02  0.21462257225E-01  0.15460943187E-01  0.26673697572E-01  0.00000000000E+00 0.  1.
     999901    1    3    3    0    0 -0.91874839424E-01 -0.10538942440E+00 -0.37559608027E-01  0.89182881824E+00  0.88000000000E+00 0. -1.
        -11    1    4    4    0    0  0.66063060073E-01  0.50271218555E-01  0.16178294945E-01  0.84578494132E-01  0.51100000000E-03 0.  1.
         11    1    4    4    0    0  0.22374208590E-01  0.33655948621E-01  0.59203698946E-02  0.40848990053E-01  0.51100000000E-03 0. -1.
</event>
<event>
 8    1  0.1060404E+005  0.1043930E+01  0.7957747E-01            NaN
         13   -1    0    0    0    0  0.00000000000E+00  0.00000000000E+00  0.74505805969E-08  0.10566000000E+00  0.10566000000E+00 0. -1.
     999900   -1    0    0    0    0 -0.00000000000E+00 -0.00000000000E+00 -0.74505805969E-08  0.93827000000E+00  0.93827000000E+00 0.  1.
     999902    2    1    2    0    0 -0.23311746973E-01  0.15359026030E-02 -0.94253911692E-02  0.10187380461E+01  0.10184265177E+01 0.  0.
     999903    2    3    3    0    0  0.37592484489E-01  0.14737696025E-01  0.11964970572E+00  0.12714172857E+00  0.14784197324E-01 0.  0.
         14    1    1    2    0    0  0.23311746973E-01 -0.15359026030E-02  0.94253911692E-02  0.25191953922E-01  0.00000000000E+00 0. -1.
     999901    1    3    3    0    0 -0.60904231462E-01 -0.13201793422E-01 -0.12907509689E+00  0.89159631751E+00  0.88000000000E+00 0.  1.
        -11    1    4    4    0    0  0.21848716902E-02  0.59453618394E-02  0.21946640261E-01  0.22848131902E-01  0.51100000000E-03 0.  1.
         11    1    4    4    0    0  0.35407612799E-01  0.87923341858E-02  0.97703065459E-01  0.10429359667E+00  0.51100000000E-03 0. -1.
</event>
<event>
 8    1  0.1060404E+005  0.1043930E+01  0.7957747E-01            NaN
         13   -1    0    0    0    0  0.00000000000E+00  0.00000000000E+00  0.74505805969E-08  0.10566000000E+00  0.10566000000E+00 0.  1.
     999900   -1    0    0    0    0 -0.00000000000E+00 -0.00000000000E+00 -0.74505805969E-08  0.93827000000E+00  0.93827000000E+00 0. -1.
     999902    2    1    2    0    0 -0.17534779815E-01  0.14637070711E-01  0.51129968543E-02  0.10205236957E+01  0.10202552418E+01 0.  0.
     999903    2    3    3    0    0 -0.63705949824E-02 -0.12689019901E+00 -0.10624911715E-01  0.12900684853E+00  0.19702059092E-01 0.  0.
         14    1    1    2    0    0  0.17534779815E-01 -0.14637070711E-01 -0.51129968543E-02  0.23406304257E-01  0.00000000000E+00 0.  1.
     999901    1    3    3    0    0 -0.11164184833E-01  0.14152726972E+00  0.15737908569E-01  0.89151684721E+00  0.88000000000E+00 0.  1.
        -11    1    4    4    0    0  0.55950077933E-02 -0.77612362670E-01 -0.48440025988E-02  0.77966072324E-01  0.51100000000E-03 0.  1.
         11    1    4    4    0    0 -0.11965602776E-01 -0.49277836343E-01 -0.57809091158E-02  0.51040776206E-01  0.51100000000E-03 0. -1.
</event>
<event>
 8    1  0.1060404E+005  0.1043930E+01  0.7957747E-01            NaN
         13   -1    0    0    0    0  0.00000000000E+00  0.00000000000E+00  0.74505805969E-08  0.10566000000E+00  0.10566000000E+00 0.  1.
     999900   -1    0    0    0    0 -0.00000000000E+00 -0.00000000000E+00 -0.74505805969E-08  0.93827000000E+00  0.93827000000E+00 0.  1.
     999902    2    1    2    0    0  0.17154146921E-01 -0.60772633471E-02  0.16945073193E-01  0.10190636896E+01  0.10187602614E+01 0.  0.
     999903    2    3    3    0    0 -0.84644397527E-01  0.66504175107E-01 -0.63586373501E-01  0.12658605810E+00  0.19832394479E-01 0.  0.
         14    1    1    2    0    0 -0.17154146921E-01  0.60772633471E-02 -0.16945073193E-01  0.24866310379E-01  0.00000000000E+00 0. -1.
     999901    1    3    3    0    0  0.10179854445E+00 -0.72581438454E-01  0.80531446694E-01  0.89247763152E+00  0.88000000000E+00 0. -1.
        -11    1    4    4    0    0 -0.39701335535E-01  0.21588629068E-01 -0.33648415515E-01  0.56344848353E-01  0.51100000000E-03 0.  1.
         11    1    4    4    0    0 -0.44943061992E-01  0.44915546039E-01 -0.29937957986E-01  0.70241209746E-01  0.51100000000E-03 0. -1.
</event>
<event>
 8    1  0.1060404E+005  0.1043930E+01  0.7957747E-01            NaN
         13   -1    0    0    0    0  0.00000000000E+00  0.00000000000E+00  0.74505805969E-08  0.10566000000E+00  0.10566000000E+00 0. -1.
     999900   -1    0    0    0    0 -0.00000000000E+00 -0.00000000000E+00 -0.74505805969E-08  0.93827000000E+00  0.93827000000E+00 0.  1.
     999902    2    1    2    0    0 -0.85476676814E-02 -0.22625936314E-01  0.11374892347E-01  0.10172020410E+01  0.10168508290E+01 0.  0.
     999903    2    3    3    0    0 -0.44340451506E-01 -0.58914128649E-01 -0.10331418101E+00  0.12829735554E+00  0.18693347619E-01 0.  0.
         14    1    1    2    0    0  0.85476676814E-02  0.22625936314E-01 -0.11374892347E-01  0.26727959009E-01  0.00000000000E+00 0.  1.
     999901    1    3    3    0    0  0.35792783825E-01  0.36288192335E-01  0.11468907336E+00  0.88890468546E+00  0.88000000000E+00 0. -1.
        -11    1    4    4    0    0 -0.19253574955E-01 -0.34264422866E-01 -0.67422861108E-01  0.78043924453E-01  0.51100000000E-03 0.  1.
         11    1    4    4    0    0 -0.25086876551E-01 -0.24649705782E-01 -0.35891319903E-01  0.50253431083E-01  0.51100000000E-03 0. -1.
</event>
<event>
 8    1  0.1060404E+005  0.1043930E+01  0.7957747E-01            NaN
         13   -1    0    0    0    0  0.00000000000E+00  0.00000000000E+00  0.74505805969E-08  0.10566000000E+00  0.10566000000E+00 0. -1.
     999900   -1    0    0    0    0 -0.00000000000E+00 -0.00000000000E+00 -0.74505805969E-08  0.93827000000E+00  0.93827000000E+00 0.  1.
     999902    2    1    2    0    0 -0.24865973259E-01 -0.22739496026E-01 -0.30412430859E-02  0.10100973166E+01  0.10095305536E+01 0.  0.
     999903    2    3    3    0    0  0.80438837293E-01 -0.22062833029E-01 -0.84194729851E-01  0.12011110918E+00  0.19512838558E-01 0.  0.
         14    1    1    2    0    0  0.24865973259E-01  0.22739496026E-01  0.30412430859E-02  0.33832683387E-01  0.00000000000E+00 0. -1.
     999901    1    3    3    0    0 -0.10530481055E+00 -0.67666299738E-03  0.81153486765E-01  0.88998620743E+00  0.88000000000E+00 0.  1.
        -11    1    4    4    0    0  0.28246775363E-02 -0.55563092068E-02 -0.50654687603E-02  0.80480724368E-02  0.51100000000E-03 0. -1.
         11    1    4    4    0    0  0.77614159757E-01 -0.16506523822E-01 -0.79129261091E-01  0.11206303675E+00  0.51100000000E-03 0.  1.
</event>
<event>
 8    1  0.1060404E+005  0.1043930E+01  0.7957747E-01            NaN
         13   -1    0    0    0    0  0.00000000000E+00  0.00000000000E+00  0.74505805969E-08  0.10566000000E+00  0.10566000000E+00 0. -1.
     999900   -1    0    0    0    0 -0.00000000000E+00 -0.00000000000E+00 -0.74505805969E-08  0.93827000000E+00  0.93827000000E+00 0. -1.
     999902    2    1    2    0    0 -0.12498467598E-01  0.19514278809E-01  0.12409733716E-01  0.10176427358E+01  0.10173031590E+01 0.  0.
     999903    2    3    3    0    0  0.71116661664E-01  0.51884436621E-01 -0.89593160384E-01  0.12722490837E+00  0.20240271521E-01 0.  0.
         14    1    1    2    0    0  0.12498467598E-01 -0.19514278809E-01 -0.12409733716E-01  0.26287264229E-01  0.00000000000E+00 0.  1.
     999901    1    3    3    0    0 -0.83615129263E-01 -0.32370157812E-01  0.10200289410E+00  0.89041782741E+00  0.88000000000E+00 0. -1.
        -11    1    4    4    0    0  0.14728964013E-01  0.60050564753E-02 -0.26775049954E-01  0.31147512023E-01  0.51100000000E-03 0.  1.
         11    1    4    4    0    0  0.56387697651E-01  0.45879380146E-01 -0.62818110429E-01  0.96077396342E-01  0.51100000000E-03 0. -1.
</event>
<event>
 8    1  0.1060404E+005  0.1043930E+01  0.7957747E-01            NaN
         13   -1    0    0    0    0  0.00000000000E+00  0.00000000000E+00  0.74505805969E-08  0.10566000000E+00  0.10566000000E+00 0.  1.
     999900   -1    0    0    0    0 -0.00000000000E+00 -0.00000000000E+00 -0.74505805969E-08  0.93827000000E+00  0.93827000000E+00 0. -1.
     999902    2    1    2    0    0 -0.83684364875E-03 -0.21147213236E-01  0.10728010828E-01  0.10202024811E+01  0.10199265206E+01 0.  0.
     999903    2    3    3    0    0  0.35176496907E-01 -0.76905383965E-01 -0.97008793034E-01  0.13115065295E+00  0.25257945796E-01 0.  0.
         14    1    1    2    0    0  0.83684364875E-03  0.21147213236E-01 -0.10728010828E-01  0.23727518860E-01  0.00000000000E+00 0. -1.
     999901    1    3    3    0    0 -0.36013340555E-01  0.55758170729E-01  0.10773680386E+00  0.88905182819E+00  0.88000000000E+00 0.  1.
        -11    1    4    4    0    0  0.33797687519E-01 -0.53592014271E-01 -0.80972228535E-01  0.10281610083E+00  0.51100000000E-03 0. -1.
         11    1    4    4    0    0  0.13788093871E-02 -0.23313369694E-01 -0.16036564499E-01  0.28334552119E-01  0.51100000000E-03 0.  1.
</event>
<event>
 8    1  0.1060404E+005  0.1043930E+01  0.7957747E-01            NaN
         13   -1    0    0    0    0  0.00000000000E+00  0.00000000000E+00  0.74505805969E-08  0.10566000000E+00  0.10566000000E+00 0.  1.
     999900   -1    0    0    0    0 -0.00000000000E+00 -0.00000000000E+00 -0.74505805969E-08  0.93827000000E+00  0.93827000000E+00 0. -1.
     999902    2    1    2    0    0  0.14419436905E-01  0.18056527001E-01  0.72248611571E-02  0.10197193216E+01  0.10194318702E+01 0.  0.
     999903    2    3    3    0    0  0.77773957959E-01  0.74123165122E-01  0.76491663297E-01  0.13295263692E+00  0.16804670945E-01 0.  0.
         14    1    1    2    0    0 -0.14419436905E-01 -0.18056527001E-01 -0.72248611571E-02  0.24210678362E-01  0.00000000000E+00 0. -1.
     999901    1    3    3    0    0 -0.63354521054E-01 -0.56066638120E-01 -0.69266802140E-01  0.88676668472E+00  0.88000000000E+00 0. -1.
        -11    1    4    4    0    0  0.33845279051E-01  0.40654492021E-01  0.44492500175E-01  0.69124050289E-01  0.51100000000E-03 0. -1.
         11    1    4    4    0    0  0.43928678908E-01  0.33468673101E-01  0.31999163122E-01  0.63828586630E-01  0.51100000000E-03 0.  1.
</event>
<event>
 8    1  0.1307844E+005  0.1043930E+01  0.7957747E-01            NaN
         13   -1    0    0    0    0  0.00000000000E+00  0.00000000000E+00  0.74505805969E-08  0.10566000000E+00  0.10566000000E+00 0.  1.
     999900   -1    0    0    0    0 -0.00000000000E+00 -0.00000000000E+00 -0.74505805969E-08  0.93827000000E+00  0.93827000000E+00 0. -1.
     999902    2    1    2    0    0 -0.68041478437E-02  0.17853399104E-01  0.15497319514E-01  0.10193290407E+01  0.10190321320E+01 0.  0.
     999903    2    3    3    0    0 -0.15922649260E-01 -0.76690445596E-01  0.10201957242E+00  0.12999907611E+00  0.18889452763E-01 0.  0.
         14    1    1    2    0    0  0.68041478437E-02 -0.17853399104E-01 -0.15497319514E-01  0.24600959322E-01  0.00000000000E+00 0.  1.
     999901    1    3    3    0    0  0.91185014159E-02  0.94543844699E-01 -0.86522252909E-01  0.88932996457E+00  0.88000000000E+00 0. -1.
        -11    1    4    4    0    0 -0.68982462352E-03 -0.44780581147E-01  0.50365723453E-01  0.67399877788E-01  0.51100000000E-03 0.  1.
         11    1    4    4    0    0 -0.15232824636E-01 -0.31909864448E-01  0.51653848970E-01  0.62599198317E-01  0.51100000000E-03 0. -1.
</event>
<event>
 8    1  0.1060404E+005  0.1043930E+01  0.7957747E-01            NaN
         13   -1    0    0    0    0  0.00000000000E+00  0.00000000000E+00  0.74505805969E-08  0.10566000000E+00  0.10566000000E+00 0. -1.
     999900   -1    0    0    0    0 -0.00000000000E+00 -0.00000000000E+00 -0.74505805969E-08  0.93827000000E+00  0.93827000000E+00 0. -1.
     999902    2    1    2    0    0  0.14593866422E-01 -0.53586543527E-02 -0.17463034051E-01  0.10205493740E+01  0.10202815156E+01 0.  0.
     999903    2    3    3    0    0  0.38285868167E-01 -0.52657834837E-01 -0.11495849712E+00  0.13358607784E+00  0.19776978094E-01 0.  0.
         14    1    1    2    0    0 -0.14593866422E-01  0.53586543527E-02  0.17463034051E-01  0.23380625995E-01  0.00000000000E+00 0. -1.
     999901    1    3    3    0    0 -0.23692001745E-01  0.47299180484E-01  0.97495463067E-01  0.88696329616E+00  0.88000000000E+00 0.  1.
        -11    1    4    4    0    0  0.32203795623E-01 -0.28326062187E-01 -0.75324960260E-01  0.86680799550E-01  0.51100000000E-03 0.  1.
         11    1    4    4    0    0  0.60820725443E-02 -0.24331772650E-01 -0.39633536859E-01  0.46905278293E-01  0.51100000000E-03 0. -1.
</event>
<event>
 8    1  0.1060404E+005  0.1043930E+01  0.7957747E-01            NaN
         13   -1    0    0    0    0  0.00000000000E+00  0.00000000000E+00  0.74505805969E-08  0.10566000000E+00  0.10566000000E+00 0.  1.
     999900   -1    0    0    0    0 -0.00000000000E+00 -0.00000000000E+00 -0.74505805969E-08  0.93827000000E+00  0.93827000000E+00 0. -1.
     999902    2    1    2    0    0  0.16343580518E-01  0.98386421335E-02  0.16042867299E-01  0.10190044088E+01  0.10186995142E+01 0.  0.
     999903    2    3    3    0    0 -0.92836361899E-01 -0.47379181728E-01 -0.68624185692E-01  0.12638878661E+00  0.20036705510E-01 0.  0.
         14    1    1    2    0    0 -0.16343580518E-01 -0.98386421335E-02 -0.16042867299E-01  0.24925591153E-01  0.00000000000E+00 0. -1.
     999901    1    3    3    0    0  0.10917994242E+00  0.57217823861E-01  0.84667052992E-01  0.89261562223E+00  0.88000000000E+00 0.  1.
        -11    1    4    4    0    0 -0.40102122411E-01 -0.31640634941E-01 -0.31907619377E-01  0.60230119514E-01  0.51100000000E-03 0. -1.
         11    1    4    4    0    0 -0.52734239488E-01 -0.15738546787E-01 -0.36716566315E-01  0.66158667099E-01  0.51100000000E-03 0.  1.
</event>
<event>
 8    1  0.1060404E+005  0.1043930E+01  0.7957747E-01            NaN
         13   -1    0    0    0    0  0.00000000000E+00  0.00000000000E+00  0.74505805969E-08  0.10566000000E+00  0.10566000000E+00 0.  1.
     999900   -1    0    0    0    0 -0.00000000000E+00 -0.00000000000E+00 -0.74505805969E-08  0.93827000000E+00  0.93827000000E+00 0. -1.
     999902    2    1    2    0    0 -0.19080541188E-01  0.11910346544E-01 -0.69541938891E-02  0.10203867585E+01  0.10201151174E+01 0.  0.
     999903    2    3    3    0    0  0.37654336470E-01 -0.11912346026E+00 -0.24245048683E-01  0.12870986719E+00  0.19239534472E-01 0.  0.
         14    1    1    2    0    0  0.19080541188E-01 -0.11910346544E-01  0.69541938891E-02  0.23543241482E-01  0.00000000000E+00 0. -1.
     999901    1    3    3    0    0 -0.56734877658E-01  0.13103380681E+00  0.17290854794E-01  0.89167689133E+00  0.88000000000E+00 0.  1.
        -11    1    4    4    0    0  0.22254047915E-01 -0.66996038241E-01 -0.40186455122E-02  0.70711543763E-01  0.51100000000E-03 0.  1.
         11    1    4    4    0    0  0.15400288555E-01 -0.52127422021E-01 -0.20226403171E-01  0.57998323427E-01  0.51100000000E-03 0. -1.
</event>
<event>
 8    1  0.1060404E+005  0.1043930E+01  0.7957747E-01            NaN
         13   -1    0    0    0    0  0.00000000000E+00  0.00000000000E+00  0.74505805969E-08  0.10566000000E+00  0.10566000000E+00 0.  1.
     999900   -1    0    0    0    0 -0.00000000000E+00 -0.00000000000E+00 -0.74505805969E-08  0.93827000000E+00  0.93827000000E+00 0.  1.
     999902    2    1    2    0    0  0.64120934441E-02  0.19546683266E-01  0.11010588694E-01  0.10205971726E+01  0.10203304210E+01 0.  0.
     999903    2    3    3    0    0  0.92897869444E-01 -0.20528164934E-01  0.89370997409E-01  0.13198807042E+00  0.19551364444E-01 0.  0.
         14    1    1    2    0    0 -0.64120934441E-02 -0.19546683266E-01 -0.11010588694E-01  0.23332827356E-01  0.00000000000E+00 0. -1.
     999901    1    3    3    0    0 -0.86485776000E-01  0.40074848200E-01 -0.78360408714E-01  0.88860910223E+00  0.88000000000E+00 0.  1.
        -11    1    4    4    0    0  0.54090274367E-01 -0.21714183329E-01  0.52721405342E-01  0.78594346114E-01  0.51100000000E-03 0. -1.
         11    1    4    4    0    0  0.38807595076E-01  0.11860183954E-02  0.36649592067E-01  0.53393724303E-01  0.51100000000E-03 0.  1.
</event>
<event>
 8    1  0.1060404E+005  0.1043930E+01  0.7957747E-01            NaN
         13   -1    0    0    0    0  0.00000000000E+00  0.00000000000E+00  0.74505805969E-08  0.10566000000E+00  0.10566000000E+00 0. -1.
     999900   -1    0    0    0    0 -0.00000000000E+00 -0.00000000000E+00 -0.74505805969E-08  0.93827000000E+00  0.93827000000E+00 0.  1.
     999902    2    1    2    0    0  0.72172635382E-02 -0.18376479123E-01 -0.94728466653E-02  0.10220320845E+01  0.10217974668E+01 0.  0.
     999903    2    3    3    0    0  0.11725119526E+00  0.39544969984E-01 -0.43161260884E-01  0.13265181173E+00  0.20541695972E-01 0.  0.
         14    1    1    2    0    0 -0.72172635382E-02  0.18376479123E-01  0.94728466653E-02  0.21897915469E-01  0.00000000000E+00 0. -1.
     999901    1    3    3    0    0 -0.11003393172E+00 -0.57921449108E-01  0.33688414218E-01  0.88938027280E+00  0.88000000000E+00 0. -1.
        -11    1    4    4    0    0  0.19666588660E-01  0.10770597746E-01 -0.15353123188E-01  0.27180139771E-01  0.51100000000E-03 0. -1.
         11    1    4    4    0    0  0.97584606598E-01  0.28774372239E-01 -0.27808137696E-01  0.10547167196E+00  0.51100000000E-03 0.  1.
</event>
<event>
 8    1  0.1060404E+005  0.1043930E+01  0.7957747E-01            NaN
         13   -1    0    0    0    0  0.00000000000E+00  0.00000000000E+00  0.74505805969E-08  0.10566000000E+00  0.10566000000E+00 0. -1.
     999900   -1    0    0    0    0 -0.00000000000E+00 -0.00000000000E+00 -0.74505805969E-08  0.93827000000E+00  0.93827000000E+00 0. -1.
     999902    2    1    2    0    0 -0.11862588257E-01 -0.20493382441E-01 -0.86761016341E-02  0.10187114659E+01  0.10183992715E+01 0.  0.
     999903    2    3    3    0    0  0.84390510476E-01 -0.23272739700E-01 -0.92940504997E-01  0.12945735510E+00  0.21398379608E-01 0.  0.
         14    1    1    2    0    0  0.11862588257E-01  0.20493382441E-01  0.86761016341E-02  0.25218534129E-01  0.00000000000E+00 0. -1.
     999901    1    3    3    0    0 -0.96253098733E-01  0.27793572588E-02  0.84264403363E-01  0.88925411077E+00  0.88000000000E+00 0.  1.
        -11    1    4    4    0    0  0.74386290273E-01 -0.12780538868E-01 -0.75267313040E-01  0.10659311370E+00  0.51100000000E-03 0.  1.
         11    1    4    4    0    0  0.10004220203E-01 -0.10492200832E-01 -0.17673191957E-01  0.22864241407E-01  0.51100000000E-03 0. -1.
</event>
<event>
 8    1  0.1060404E+005  0.1043930E+01  0.7957747E-01            NaN
         13   -1    0    0    0    0  0.00000000000E+00  0.00000000000E+00  0.74505805969E-08  0.10566000000E+00  0.10566000000E+00 0.  1.
     999900   -1    0    0    0    0 -0.00000000000E+00 -0.00000000000E+00 -0.74505805969E-08  0.93827000000E+00  0.93827000000E+00 0.  1.
     999902    2    1    2    0    0  0.22455046718E-01  0.83088156853E-02  0.71501858000E-03  0.10199763616E+01  0.10196950532E+01 0.  0.
     999903    2    3    3    0    0 -0.66777435324E-01 -0.23293472824E-01  0.10581598176E+00  0.12868103851E+00  0.18973031708E-01 0.  0.
         14    1    1    2    0    0 -0.22455046718E-01 -0.83088156853E-02 -0.71501858000E-03  0.23953638404E-01  0.00000000000E+00 0.  1.
     999901    1    3    3    0    0  0.89232482042E-01  0.31602288509E-01 -0.10510096318E+00  0.89129532308E+00  0.88000000000E+00 0.  1.
        -11    1    4    4    0    0 -0.14383387176E-02 -0.33784494065E-02  0.12481018876E-01  0.13019972805E-01  0.51100000000E-03 0.  1.
         11    1    4    4    0    0 -0.65339096606E-01 -0.19915023418E-01  0.93334962883E-01  0.11566106571E+00  0.51100000000E-03 0. -1.
</event>
<event>
 8    1  0.1060404E+005  0.1043930E+01  0.7957747E-01            NaN
         13   -1    0    0    0    0  0.00000000000E+00  0.00000000000E+00  0.74505805969E-08  0.10566000000E+00  0.10566000000E+00 0.  1.
     999900   -1    0    0    0    0 -0.00000000000E+00 -0.00000000000E+00 -0.74505805969E-08  0.93827000000E+00  0.93827000000E+00 0.  1.
     999902    2    1    2    0    0 -0.22706508105E-01  0.20155729994E-02 -0.88993724636E-02  0.10194586520E+01  0.10191649014E+01 0.  0.
     999903    2    3    3    0    0  0.29757386995E-01  0.31491775060E-01 -0.12111325561E+00  0.13029429013E+00  0.20759272089E-01 0.  0.
         14    1    1    2    0    0  0.22706508105E-01 -0.20155729994E-02  0.88993724636E-02  0.24471348044E-01  0.00000000000E+00 0.  1.
     999901    1    3    3    0    0 -0.52463895100E-01 -0.29476202061E-01  0.11221388315E+00  0.88916436183E+00  0.88000000000E+00 0. -1.
        -11    1    4    4    0    0  0.14080605448E-01  0.26669112934E-01 -0.62029988372E-01  0.68974528726E-01  0.51100000000E-03 0. -1.
         11    1    4    4    0    0  0.15676781547E-01  0.48226621266E-02 -0.59083267238E-01  0.61319761401E-01  0.51100000000E-03 0.  1.
</event>
<event>
 8    1  0.1060404E+005  0.1043930E+01  0.7957747E-01            NaN
         13   -1    0    0    0    0  0.00000000000E+00  0.00000000000E+00  0.74505805969E-08  0.10566000000E+00  0.10566000000E+00 0.  1.
     999900   -1    0    0    0    0 -0.00000000000E+00 -0.00000000000E+00 -0.74505805969E-08  0.93827000000E+00  0.93827000000E+00 0.  1.
     999902    2    1    2    0    0  0.21559817457E-01  0.15924054065E-03  0.95340084249E-02  0.10203556834E+01  0.10200833163E+01 0.  0.
     999903    2    3    3    0    0 -0.58507716924E-01 -0.92380483972E-01 -0.65081536798E-01  0.12876054531E+00  0.19656165426E-01 0.  0.
         14    1    1    2    0    0 -0.21559817457E-01 -0.15924054065E-03 -0.95340084249E-02  0.23574316596E-01  0.00000000000E+00 0. -1.
     999901    1    3    3    0    0  0.80067534381E-01  0.92539724512E-01  0.74615545223E-01  0.89159513809E+00  0.88000000000E+00 0. -1.
        -11    1    4    4    0    0 -0.20195720750E-01 -0.31474542630E-01 -0.11772998510E-01  0.39209419599E-01  0.51100000000E-03 0.  1.
         11    1    4    4    0    0 -0.38311996174E-01 -0.60905941341E-01 -0.53308538288E-01  0.89551125716E-01  0.51100000000E-03 0. -1.
</event>
<event>
 8    1  0.1060404E+005  0.1043930E+01  0.7957747E-01            NaN
         13   -1    0    0    0    0  0.00000000000E+00  0.00000000000E+00  0.74505805969E-08  0.10566000000E+00  0.10566000000E+00 0. -1.
     999900   -1    0    0    0    0 -0.00000000000E+00 -0.00000000000E+00 -0.74505805969E-08  0.93827000000E+00  0.93827000000E+00 0. -1.
     999902    2    1    2    0    0 -0.89700768475E-03 -0.17724823747E-01  0.11857190337E-01  0.10225859853E+01  0.10223632087E+01 0.  0.
     999903    2    3    3    0    0 -0.72483354744E-01 -0.89502750896E-01 -0.64483806197E-01  0.13348271592E+00  0.19871966587E-01 0.  0.
         14    1    1    2    0    0  0.89700768475E-03  0.17724823747E-01 -0.11857190337E-01  0.21344014673E-01  0.00000000000E+00 0. -1.
     999901    1    3    3    0    0  0.71586347059E-01  0.71777927148E-01  0.76340996534E-01  0.88910326940E+00  0.88000000000E+00 0.  1.
        -11    1    4    4    0    0 -0.28273346322E-01 -0.40469294835E-01 -0.17224795196E-01  0.52288628087E-01  0.51100000000E-03 0. -1.
         11    1    4    4    0    0 -0.44210008422E-01 -0.49033456061E-01 -0.47259011001E-01  0.81194087837E-01  0.51100000000E-03 0.  1.
</event>
<event>
 7    1  0.1060404E+005  0.1043930E+01  0.7957747E-01            NaN
         13   -1    0    0    0    0  0.00000000000E+00  0.00000000000E+00  0.74505805969E-08  0.10566000000E+00  0.10566000000E+00 0.  1.
     999900   -1    0    0    0    0 -0.00000000000E+00 -0.00000000000E+00 -0.74505805969E-08  0.93827000000E+00  0.93827000000E+00 0. -1.
     999903    2    1    2    0    0  0.35336495987E-01 -0.25988459721E-02 -0.10219054543E+00  0.10986564700E+00  0.19290693803E-01 0.  0.
         14    1    1    2    0    0 -0.20573207480E-01  0.36412700160E-01  0.27663201194E-01  0.50143736391E-01  0.00000000000E+00 0.  1.
     999901    1    1    2    0    0 -0.14763288507E-01 -0.33813854188E-01  0.74527344234E-01  0.88392061661E+00  0.88000000000E+00 0.  1.
        -11    1    3    3    0    0  0.23648802882E-01  0.69869574750E-02 -0.71825579454E-01  0.75942467944E-01  0.51100000000E-03 0. -1.
         11    1    3    3    0    0  0.11687693105E-01 -0.95858034471E-02 -0.30364965974E-01  0.33923179059E-01  0.51100000000E-03 0.  1.
</event>
<event>
 8    1  0.1060404E+005  0.1043930E+01  0.7957747E-01            NaN
         13   -1    0    0    0    0  0.00000000000E+00  0.00000000000E+00  0.74505805969E-08  0.10566000000E+00  0.10566000000E+00 0.  1.
     999900   -1    0    0    0    0 -0.00000000000E+00 -0.00000000000E+00 -0.74505805969E-08  0.93827000000E+00  0.93827000000E+00 0. -1.
     999902    2    1    2    0    0  0.20665089906E-01 -0.44357792775E-02 -0.88451633375E-02  0.10210180164E+01  0.10207609078E+01 0.  0.
     999903    2    3    3    0    0  0.32993894765E-01 -0.81830302563E-01 -0.97642153790E-01  0.13308400016E+00  0.19813263032E-01 0.  0.
         14    1    1    2    0    0 -0.20665089906E-01  0.44357792775E-02  0.88451633375E-02  0.22911983613E-01  0.00000000000E+00 0.  1.
     999901    1    3    3    0    0 -0.12328804859E-01  0.77394523286E-01  0.88796990452E-01  0.88793401623E+00  0.88000000000E+00 0.  1.
        -11    1    4    4    0    0 -0.60757349363E-03 -0.18386684756E-01 -0.23903854660E-01  0.30167776028E-01  0.51100000000E-03 0. -1.
         11    1    4    4    0    0  0.33601468259E-01 -0.63443617807E-01 -0.73738299130E-01  0.10291622413E+00  0.51100000000E-03 0.  1.
</event>
<event>
 8    1  0.1060404E+005  0.1043930E+01  0.7957747E-01            NaN
         13   -1    0    0    0    0  0.00000000000E+00  0.00000000000E+00  0.74505805969E-08  0.10566000000E+00  0.10566000000E+00 0. -1.
     999900   -1    0    0    0    0 -0.00000000000E+00 -0.00000000000E+00 -0.74505805969E-08  0.93827000000E+00  0.93827000000E+00 0.  1.
     999902    2    1    2    0    0  0.26551093811E-01  0.96111410043E-02  0.69866155358E-02  0.10148413869E+01  0.10144244147E+01 0.  0.
     999903    2    3    3    0    0  0.93252344060E-01  0.15656771799E-01 -0.83550218521E-01  0.12766467129E+00  0.19403481801E-01 0.  0.
         14    1    1    2    0    0 -0.26551093811E-01 -0.96111410043E-02 -0.69866155358E-02  0.29088613075E-01  0.00000000000E+00 0.  1.
     999901    1    3    3    0    0 -0.66701250249E-01 -0.60456307942E-02  0.90536834056E-01  0.88717671563E+00  0.88000000000E+00 0. -1.
        -11    1    4    4    0    0  0.26786172408E-01  0.13453747506E-01 -0.27755738070E-01  0.40855164557E-01  0.51100000000E-03 0. -1.
         11    1    4    4    0    0  0.66466171652E-01  0.22030242929E-02 -0.55794480451E-01  0.86809506737E-01  0.51100000000E-03 0.  1.
</event>
<event>
 8    1  0.1060404E+005  0.1043930E+01  0.7957747E-01            NaN
         13   -1    0    0    0    0  0.00000000000E+00  0.00000000000E+00  0.74505805969E-08  0.10566000000E+00  0.10566000000E+00 0.  1.
     999900   -1    0    0    0    0 -0.00000000000E+00 -0.00000000000E+00 -0.74505805969E-08  0.93827000000E+00  0.93827000000E+00 0. -1.
     999902    2    1    2    0    0  0.97198043951E-02  0.20537465936E-01  0.37484659553E-02  0.10209014720E+01  0.10206417111E+01 0.  0.
     999903    2    3    3    0    0  0.10177261895E+00 -0.70766358653E-01  0.36844349407E-01  0.13078606008E+00  0.19543386144E-01 0.  0.
         14    1    1    2    0    0 -0.97198043951E-02 -0.20537465936E-01 -0.37484659553E-02  0.23028527994E-01  0.00000000000E+00 0.  1.
     999901    1    3    3    0    0 -0.92052814556E-01  0.91303824589E-01 -0.33095883451E-01  0.89011541193E+00  0.88000000000E+00 0.  1.
        -11    1    4    4    0    0  0.35757129946E-01 -0.35205926639E-01  0.10209971135E-01  0.51210684862E-01  0.51100000000E-03 0. -1.
         11    1    4    4    0    0  0.66015489005E-01 -0.35560432014E-01  0.26634378271E-01  0.79575375214E-01  0.51100000000E-03 0.  1.
</event>
<event>
 8    1  0.1060404E+005  0.1043930E+01  0.7957747E-01            NaN
         13   -1    0    0    0    0  0.00000000000E+00  0.00000000000E+00  0.74505805969E-08  0.10566000000E+00  0.10566000000E+00 0. -1.
     999900   -1    0    0    0    0 -0.00000000000E+00 -0.00000000000E+00 -0.74505805969E-08  0.93827000000E+00  0.93827000000E+00 0. -1.
     999902    2    1    2    0    0 -0.24501024436E-01 -0.49326155363E-02 -0.45517596566E-02  0.10185262717E+01  0.10182094170E+01 0.  0.
     999903    2    3    3    0    0  0.84509011262E-02 -0.40912867825E-04 -0.12761487928E+00  0.12933883953E+00  0.19275855212E-01 0.  0.
         14    1    1    2    0    0  0.24501024436E-01  0.49326155363E-02  0.45517596566E-02  0.25403728278E-01  0.00000000000E+00 0. -1.
     999901    1    3    3    0    0 -0.32951925562E-01 -0.48917026684E-02  0.12306311962E+00  0.88918743219E+00  0.88000000000E+00 0.  1.
        -11    1    4    4    0    0 -0.19345456902E-02 -0.75039087085E-02 -0.35538213395E-01  0.36376872395E-01  0.51100000000E-03 0.  1.
         11    1    4    4    0    0  0.10385446816E-01  0.74629958407E-02 -0.92076665885E-01  0.92961967137E-01  0.51100000000E-03 0. -1.
</event>
<event>
 8    1  0.1060404E+005  0.1043930E+01  0.7957747E-01            NaN
         13   -1    0    0    0    0  0.00000000000E+00  0.00000000000E+00  0.74505805969E-08  0.10566000000E+00  0.10566000000E+00 0.  1.
     999900   -1    0    0    0    0 -0.00000000000E+00 -0.00000000000E+00 -0.74505805969E-08  0.93827000000E+00  0.93827000000E+00 0.  1.
     999902    2    1    2    0    0 -0.16057743288E-01 -0.15766645640E-01  0.98996625104E-02  0.10193446069E+01  0.10190480784E+01 0.  0.
     999903    2    3    3    0    0 -0.43039239184E-01 -0.98131136251E-01  0.75336965769E-01  0.13266882003E+00  0.21053773643E-01 0.  0.
         14    1    1    2    0    0  0.16057743288E-01  0.15766645640E-01 -0.98996625104E-02  0.24585393063E-01  0.00000000000E+00 0. -1.
     999901    1    3    3    0    0  0.26981495897E-01  0.82364490611E-01 -0.65437303259E-01  0.88667578691E+00  0.88000000000E+00 0.  1.
        -11    1    4    4    0    0 -0.11758343667E-01 -0.32150012822E-01  0.12878614637E-01  0.36578707006E-01  0.51100000000E-03 0.  1.
         11    1    4    4    0    0 -0.31280895517E-01 -0.65981123429E-01  0.62458351132E-01  0.96090113021E-01  0.51100000000E-03 0. -1.
</event>
<event>
 8    1  0.1060404E+005  0.1043930E+01  0.7957747E-01            NaN
         13   -1    0    0    0    0  0.00000000000E+00  0.00000000000E+00  0.74505805969E-08  0.10566000000E+00  0.10566000000E+00 0. -1.
     999900   -1    0    0    0    0 -0.00000000000E+00 -0.00000000000E+00 -0.74505805969E-08  0.93827000000E+00  0.93827000000E+00 0. -1.
     999902    2    1    2    0    0 -0.86283625589E-02 -0.71269614065E-02 -0.21073570081E-01  0.10200692042E+01  0.10197900979E+01 0.  0.
     999903    2    3    3    0    0  0.11106393447E-01 -0.11398769817E+00 -0.63163968294E-01  0.13238667128E+00  0.20493816963E-01 0.  0.
         14    1    1    2    0    0  0.86283625589E-02  0.71269614065E-02  0.21073570081E-01  0.23860795781E-01  0.00000000000E+00 0. -1.
     999901    1    3    3    0    0 -0.19734756005E-01  0.10686073676E+00  0.42090398213E-01  0.88768253293E+00  0.88000000000E+00 0. -1.
        -11    1    4    4    0    0  0.33479157995E-02 -0.60711306005E-01 -0.44699523168E-01  0.75467739528E-01  0.51100000000E-03 0.  1.
         11    1    4    4    0    0  0.77584776471E-02 -0.53276392164E-01 -0.18464445126E-01  0.56918931756E-01  0.51100000000E-03 0. -1.
</event>
<event>
 8    1  0.1060404E+005  0.1043930E+01  0.7957747E-01            NaN
         13   -1    0    0    0    0  0.00000000000E+00  0.00000000000E+00  0.74505805969E-08  0.10566000000E+00  0.10566000000E+00 0. -1.
     999900   -1    0    0    0    0 -0.00000000000E+00 -0.00000000000E+00 -0.74505805969E-08  0.93827000000E+00  0.93827000000E+00 0. -1.
     999902    2    1    2    0    0 -0.99485269432E-02 -0.19848903014E-01  0.92334493993E-02  0.10198840289E+01  0.10196005216E+01 0.  0.
     999903    2    3    3    0    0  0.83953788974E-01 -0.74594584802E-01 -0.62921770708E-01  0.13026550929E+00  0.19933963915E-01 0.  0.
         14    1    1    2    0    0  0.99485269432E-02  0.19848903014E-01 -0.92334493993E-02  0.24045971118E-01  0.00000000000E+00 0.  1.
     999901    1    3    3    0    0 -0.93902315917E-01  0.54745681788E-01  0.72155220107E-01  0.88961851959E+00  0.88000000000E+00 0.  1.
        -11    1    4    4    0    0  0.19611987768E-01 -0.22312540916E-01 -0.78368726138E-02  0.30727141744E-01  0.51100000000E-03 0. -1.
         11    1    4    4    0    0  0.64341801206E-01 -0.52282043885E-01 -0.55084898094E-01  0.99538367549E-01  0.51100000000E-03 0.  1.
</event>
<event>
 8    1  0.1060404E+005  0.1043930E+01  0.7957747E-01            NaN
         13   -1    0    0    0    0  0.00000000000E+00  0.00000000000E+00  0.74505805969E-08  0.10566000000E+00  0.10566000000E+00 0.  1.
     999900   -1    0    0    0    0 -0.00000000000E+00 -0.00000000000E+00 -0.74505805969E-08  0.93827000000E+00  0.93827000000E+00 0.  1.
     999902    2    1    2    0    0  0.60575869143E-02  0.20476433850E-01  0.12479145310E-01  0.10191972733E+01  0.10188971362E+01 0.  0.
     999903    2    3    3    0    0  0.71477068381E-01 -0.76091975674E-01  0.73530699790E-01  0.12940378120E+00  0.20966990991E-01 0.  0.
         14    1    1    2    0    0 -0.60575869143E-02 -0.20476433850E-01 -0.12479145310E-01  0.24732726702E-01  0.00000000000E+00 0.  1.
     999901    1    3    3    0    0 -0.65419481466E-01  0.96568409524E-01 -0.61051554480E-01  0.88979349210E+00  0.88000000000E+00 0.  1.
        -11    1    4    4    0    0  0.29580644032E-01 -0.17375857533E-01  0.25359734839E-01  0.42665116881E-01  0.51100000000E-03 0.  1.
         11    1    4    4    0    0  0.41896424349E-01 -0.58716118140E-01  0.48170964952E-01  0.86738664320E-01  0.51100000000E-03 0. -1.
</event>
<event>
 8    1  0.1060404E+005  0.1043930E+01  0.7957747E-01            NaN
         13   -1    0    0    0    0  0.00000000000E+00  0.00000000000E+00  0.74505805969E-08  0.10566000000E+00  0.10566000000E+00 0.  1.
     999900   -1    0    0    0    0 -0.00000000000E+00 -0.00000000000E+00 -0.74505805969E-08  0.93827000000E+00  0.93827000000E+00 0.  1.
     999902    2    1    2    0    0  0.12992789468E-01 -0.17621508244E-01 -0.95385965651E-02  0.10200487321E+01  0.10197691410E+01 0.  0.
     999903    2    3    3    0    0  0.10984146322E+00  0.63005415398E-01  0.23710167573E-01  0.13045003229E+00  0.20499011385E-01 0.  0.
         14    1    1    2    0    0 -0.12992789468E-01  0.17621508244E-01  0.95385965651E-02  0.23881267877E-01  0.00000000000E+00 0. -1.
     999901    1    3    3    0    0 -0.96848673748E-01 -0.80626923643E-01 -0.33248764138E-01  0.88959869983E+00  0.88000000000E+00 0.  1.
        -11    1    4    4    0    0  0.80809378709E-01  0.43572149810E-01  0.80503223097E-02  0.92161579504E-01  0.51100000000E-03 0.  1.
         11    1    4    4    0    0  0.29032084508E-01  0.19433265589E-01  0.15659845263E-01  0.38288452789E-01  0.51100000000E-03 0. -1.
</event>
<event>
 8    1  0.1060404E+005  0.1043930E+01  0.7957747E-01            NaN
         13   -1    0    0    0    0  0.00000000000E+00  0.00000000000E+00  0.74505805969E-08  0.10566000000E+00  0.10566000000E+00 0.  1.
     999900   -1    0    0    0    0 -0.00000000000E+00 -0.00000000000E+00 -0.74505805969E-08  0.93827000000E+00  0.93827000000E+00 0.  1.
     999902    2    1    2    0    0  0.26456135712E-02 -0.16884325695E-01  0.16723021221E-01  0.10200189322E+01  0.10197386346E+01 0.  0.
     999903    2    3    3    0    0 -0.29785832632E-01 -0.50920343872E-01 -0.11253795106E+00  0.12933456149E+00  0.24136303022E-01 0.  0.
         14    1    1    2    0    0 -0.26456135712E-02  0.16884325695E-01 -0.16723021221E-01  0.23911067816E-01  0.00000000000E+00 0. -1.
     999901    1    3    3    0    0  0.32431446203E-01  0.34036018177E-01  0.12926097228E+00  0.89068437069E+00  0.88000000000E+00 0. -1.
        -11    1    4    4    0    0 -0.29998245248E-01 -0.45710777539E-01 -0.83374223986E-01  0.99704023226E-01  0.51100000000E-03 0. -1.
         11    1    4    4    0    0  0.21241261604E-03 -0.52095663335E-02 -0.29163727070E-01  0.29630538269E-01  0.51100000000E-03 0.  1.
</event>
<event>
 8    1  0.1060404E+005  0.1043930E+01  0.7957747E-01            NaN
         13   -1    0    0    0    0  0.00000000000E+00  0.00000000000E+00  0.74505805969E-08  0.10566000000E+00  0.10566000000E+00 0.  1.
     999900   -1    0    0    0    0 -0.00000000000E+00 -0.00000000000E+00 -0.74505805969E-08  0.93827000000E+00  0.93827000000E+00 0.  1.
     999902    2    1    2    0    0  0.93199104739E-02  0.20918005327E-01 -0.41310367002E-02  0.10206600807E+01  0.10203947821E+01 0.  0.
     999903    2    3    3    0    0  0.40681194598E-01  0.11319353398E+00 -0.54990883569E-01  0.13382016996E+00  0.20398649088E-01 0.  0.
         14    1    1    2    0    0 -0.93199104739E-02 -0.20918005327E-01  0.41310367002E-02  0.23269919259E-01  0.00000000000E+00 0.  1.
     999901    1    3    3    0    0 -0.31361284124E-01 -0.92275528649E-01  0.50859846869E-01  0.88683991078E+00  0.88000000000E+00 0. -1.
        -11    1    4    4    0    0  0.15318566757E-01  0.42722911900E-01 -0.31779198240E-01  0.55408340983E-01  0.51100000000E-03 0. -1.
         11    1    4    4    0    0  0.25362627841E-01  0.70470622077E-01 -0.23211685329E-01  0.78411828978E-01  0.51100000000E-03 0.  1.
</event>
<event>
 8    1  0.1060404E+005  0.1043930E+01  0.7957747E-01            NaN
         13   -1    0    0    0    0  0.00000000000E+00  0.00000000000E+00  0.74505805969E-08  0.10566000000E+00  0.10566000000E+00 0.  1.
     999900   -1    0    0    0    0 -0.00000000000E+00 -0.00000000000E+00 -0.74505805969E-08  0.93827000000E+00  0.93827000000E+00 0.  1.
     999902    2    1    2    0    0  0.12250310812E-01  0.69103155385E-02  0.20636155817E-01  0.10189565440E+01  0.10186504627E+01 0.  0.
     999903    2    3    3    0    0 -0.53642610589E-01 -0.10547067688E+00  0.47355977600E-01  0.12896479496E+00  0.19691022643E-01 0.  0.
         14    1    1    2    0    0 -0.12250310812E-01 -0.69103155385E-02 -0.20636155817E-01  0.24973455963E-01  0.00000000000E+00 0. -1.
     999901    1    3    3    0    0  0.65892921401E-01  0.11238099242E+00 -0.26719821783E-01  0.88999174908E+00  0.88000000000E+00 0. -1.
        -11    1    4    4    0    0 -0.45498679348E-01 -0.86388989403E-01  0.30692968474E-01  0.10234992304E+00  0.51100000000E-03 0. -1.
         11    1    4    4    0    0 -0.81439312407E-02 -0.19081687476E-01  0.16663009126E-01  0.26614871916E-01  0.51100000000E-03 0.  1.
</event>
<event>
 8    1  0.1060404E+005  0.1043930E+01  0.7957747E-01            NaN
         13   -1    0    0    0    0  0.00000000000E+00  0.00000000000E+00  0.74505805969E-08  0.10566000000E+00  0.10566000000E+00 0. -1.
     999900   -1    0    0    0    0 -0.00000000000E+00 -0.00000000000E+00 -0.74505805969E-08  0.93827000000E+00  0.93827000000E+00 0.  1.
     999902    2    1    2    0    0  0.14262863739E-01  0.14189472053E-01  0.13605128415E-01  0.10196427622E+01  0.10193534680E+01 0.  0.
     999903    2    3    3    0    0  0.12589291425E+00 -0.28523872377E-01  0.16201289276E-01  0.13155918620E+00  0.19562733589E-01 0.  0.
         14    1    1    2    0    0 -0.14262863739E-01 -0.14189472053E-01 -0.13605128415E-01  0.24287237767E-01  0.00000000000E+00 0.  1.
     999901    1    3    3    0    0 -0.11163005051E+00  0.42713344430E-01 -0.25961608609E-02  0.88808357603E+00  0.88000000000E+00 0. -1.
        -11    1    4    4    0    0  0.54389408533E-01 -0.34379496252E-02  0.25398236623E-02  0.54559500396E-01  0.51100000000E-03 0.  1.
         11    1    4    4    0    0  0.71503505717E-01 -0.25085922752E-01  0.13661465613E-01  0.76999685804E-01  0.51100000000E-03 0. -1.
</event>
<event>
 8    1  0.1060404E+005  0.1043930E+01  0.7957747E-01            NaN
         13   -1    0    0    0    0  0.00000000000E+00  0.00000000000E+00  0.74505805969E-08  0.10566000000E+00  0.10566000000E+00 0. -1.
     999900   -1    0    0    0    0 -0.00000000000E+00 -0.00000000000E+00 -0.74505805969E-08  0.93827000000E+00  0.93827000000E+00 0. -1.
     999902    2    1    2    0    0  0.73102322441E-02  0.22316505643E-01  0.62204295447E-02  0.10196367980E+01  0.10193473599E+01 0.  0.
     999903    2    3    3    0    0 -0.90309399982E-01 -0.81492443082E-01  0.34786062971E-01  0.12771646196E+00  0.17453322730E-01 0.  0.
         14    1    1    2    0    0 -0.73102322441E-02 -0.22316505643E-01 -0.62204295447E-02  0.24293201998E-01  0.00000000000E+00 0. -1.
     999901    1    3    3    0    0  0.97619632226E-01  0.10380894872E+00 -0.28565633426E-01  0.89192033604E+00  0.88000000000E+00 0.  1.
        -11    1    4    4    0    0 -0.42849409733E-01 -0.39818826480E-01  0.77357689480E-02  0.59006051376E-01  0.51100000000E-03 0.  1.
         11    1    4    4    0    0 -0.47459990248E-01 -0.41673616601E-01  0.27050294023E-01  0.68710410585E-01  0.51100000000E-03 0. -1.
</event>
<event>
 8    1  0.1060404E+005  0.1043930E+01  0.7957747E-01            NaN
         13   -1    0    0    0    0  0.00000000000E+00  0.00000000000E+00  0.74505805969E-08  0.10566000000E+00  0.10566000000E+00 0. -1.
     999900   -1    0    0    0    0 -0.00000000000E+00 -0.00000000000E+00 -0.74505805969E-08  0.93827000000E+00  0.93827000000E+00 0. -1.
     999902    2    1    2    0    0  0.17495467314E-01  0.15710910872E-01 -0.49001993941E-02  0.10199105069E+01  0.10196276310E+01 0.  0.
     999903    2    3    3    0    0  0.62663580102E-01 -0.44422598152E-01  0.10313662191E+00  0.13011943470E+00  0.19844722476E-01 0.  0.
         14    1    1    2    0    0 -0.17495467314E-01 -0.15710910872E-01  0.49001993941E-02  0.24019493147E-01  0.00000000000E+00 0. -1.
     999901    1    3    3    0    0 -0.45168112788E-01  0.60133509024E-01 -0.10803682131E+00  0.88979107215E+00  0.88000000000E+00 0. -1.
        -11    1    4    4    0    0  0.60122232737E-01 -0.35040587738E-01  0.89777332536E-01  0.11359029983E+00  0.51100000000E-03 0.  1.
         11    1    4    4    0    0  0.25413473649E-02 -0.93820104144E-02  0.13359289376E-01  0.16529134868E-01  0.51100000000E-03 0. -1.
</event>
<event>
 8    1  0.1060404E+005  0.1043930E+01  0.7957747E-01            NaN
         13   -1    0    0    0    0  0.00000000000E+00  0.00000000000E+00  0.74505805969E-08  0.10566000000E+00  0.10566000000E+00 0. -1.
     999900   -1    0    0    0    0 -0.00000000000E+00 -0.00000000000E+00 -0.74505805969E-08  0.93827000000E+00  0.93827000000E+00 0.  1.
     999902    2    1    2    0    0  0.13753036985E-02  0.23282702319E-01 -0.11700724762E-02  0.10205773822E+01  0.10203101726E+01 0.  0.
     999903    2    3    3    0    0 -0.40236347672E-01 -0.11935681940E+00  0.98150953953E-02  0.12805386063E+00  0.20891173100E-01 0.  0.
         14    1    1    2    0    0 -0.13753036985E-02 -0.23282702319E-01  0.11700724762E-02  0.23352617779E-01  0.00000000000E+00 0. -1.
     999901    1    3    3    0    0  0.41611651370E-01  0.14263952172E+00 -0.10985167872E-01  0.89252352159E+00  0.88000000000E+00 0.  1.
        -11    1    4    4    0    0 -0.21403655641E-01 -0.88915606806E-01  0.23651035678E-02  0.91487466050E-01  0.51100000000E-03 0.  1.
         11    1    4    4    0    0 -0.18832692031E-01 -0.30441212591E-01  0.74499918276E-02  0.36566394577E-01  0.51100000000E-03 0. -1.
</event>
<event>
 8    1  0.1060404E+005  0.1043930E+01  0.7957747E-01            NaN
         13   -1    0    0    0    0  0.00000000000E+00  0.00000000000E+00  0.74505805969E-08  0.10566000000E+00  0.10566000000E+00 0. -1.
     999900   -1    0    0    0    0 -0.00000000000E+00 -0.00000000000E+00 -0.74505805969E-08  0.93827000000E+00  0.93827000000E+00 0. -1.
     999902    2    1    2    0    0  0.16769265831E-01 -0.16783015712E-01  0.12273262428E-02  0.10201732279E+01  0.10198965784E+01 0.  0.
     999903    2    3    3    0    0  0.18811847218E-01 -0.65932824809E-01 -0.11072838922E+00  0.13171728742E+00  0.19688693311E-01 0.  0.
         14    1    1    2    0    0 -0.16769265831E-01  0.16783015712E-01 -0.12273262428E-02  0.23756772142E-01  0.00000000000E+00 0.  1.
     999901    1    3    3    0    0 -0.20425813872E-02  0.49149809097E-01  0.11195571546E+00  0.88845594044E+00  0.88000000000E+00 0.  1.
        -11    1    4    4    0    0  0.14559972430E-01 -0.46745736344E-01 -0.60843104865E-01  0.78098022984E-01  0.51100000000E-03 0. -1.
         11    1    4    4    0    0  0.42518747879E-02 -0.19187088465E-01 -0.49885284351E-01  0.53619264437E-01  0.51100000000E-03 0.  1.
</event>
<event>
 8    1  0.1060404E+005  0.1043930E+01  0.7957747E-01            NaN
         13   -1    0    0    0    0  0.00000000000E+00  0.00000000000E+00  0.74505805969E-08  0.10566000000E+00  0.10566000000E+00 0. -1.
     999900   -1    0    0    0    0 -0.00000000000E+00 -0.00000000000E+00 -0.74505805969E-08  0.93827000000E+00  0.93827000000E+00 0. -1.
     999902    2    1    2    0    0 -0.17162904596E-02  0.47734361722E-02  0.20142232735E-01  0.10231588449E+01  0.10229479855E+01 0.  0.
     999903    2    3    3    0    0 -0.20574314012E-01 -0.77539860821E-01  0.10665070658E+00  0.13489378310E+00  0.19652661185E-01 0.  0.
         14    1    1    2    0    0  0.17162904596E-02 -0.47734361722E-02 -0.20142232735E-01  0.20771155129E-01  0.00000000000E+00 0.  1.
     999901    1    3    3    0    0  0.18858023552E-01  0.82313296993E-01 -0.86508473847E-01  0.88826506177E+00  0.88000000000E+00 0.  1.
        -11    1    4    4    0    0  0.26639931205E-02 -0.23034799470E-01  0.33701555848E-01  0.40911548902E-01  0.51100000000E-03 0.  1.
         11    1    4    4    0    0 -0.23238307132E-01 -0.54505061350E-01  0.72949150734E-01  0.93982234198E-01  0.51100000000E-03 0. -1.
</event>
<event>
 8    1  0.1060404E+005  0.1043930E+01  0.7957747E-01            NaN
         13   -1    0    0    0    0  0.00000000000E+00  0.00000000000E+00  0.74505805969E-08  0.10566000000E+00  0.10566000000E+00 0.  1.
     999900   -1    0    0    0    0 -0.00000000000E+00 -0.00000000000E+00 -0.74505805969E-08  0.93827000000E+00  0.93827000000E+00 0. -1.
     999902    2    1    2    0    0 -0.58621522790E-02 -0.67987187299E-02 -0.23024563386E-01  0.10192172922E+01  0.10189176468E+01 0.  0.
     999903    2    3    3    0    0  0.80201696072E-01 -0.26758441005E-01 -0.98758682859E-01  0.13155686541E+00  0.20139641978E-01 0.  0.
         14    1    1    2    0    0  0.58621522790E-02  0.67987187299E-02  0.23024563386E-01  0.24712707760E-01  0.00000000000E+00 0.  1.
     999901    1    3    3    0    0 -0.86063848351E-01  0.19959722275E-01  0.75734119473E-01  0.88766042683E+00  0.88000000000E+00 0. -1.
        -11    1    4    4    0    0  0.32151921243E-01 -0.63546860919E-03 -0.38885405631E-01  0.50462716455E-01  0.51100000000E-03 0. -1.
         11    1    4    4    0    0  0.48049774829E-01 -0.26122972395E-01 -0.59873277228E-01  0.81094148956E-01  0.51100000000E-03 0.  1.
</event>
<event>
 8    1  0.1060404E+005  0.1043930E+01  0.7957747E-01            NaN
         13   -1    0    0    0    0  0.00000000000E+00  0.00000000000E+00  0.74505805969E-08  0.10566000000E+00  0.10566000000E+00 0. -1.
     999900   -1    0    0    0    0 -0.00000000000E+00 -0.00000000000E+00 -0.74505805969E-08  0.93827000000E+00  0.93827000000E+00 0. -1.
     999902    2    1    2    0    0  0.57387624098E-02  0.68160046770E-02  0.22214603610E-01  0.10199950898E+01  0.10197142263E+01 0.  0.
     999903    2    3    3    0    0 -0.95050257427E-01  0.51406405989E-01 -0.66891739026E-01  0.12865527203E+00  0.20012602465E-01 0.  0.
         14    1    1    2    0    0 -0.57387624098E-02 -0.68160046770E-02 -0.22214603610E-01  0.23934910221E-01  0.00000000000E+00 0.  1.
     999901    1    3    3    0    0  0.10078901984E+00 -0.44590401312E-01  0.89106342635E-01  0.89133981775E+00  0.88000000000E+00 0. -1.
        -11    1    4    4    0    0 -0.86313885863E-01  0.47951046449E-01 -0.53540972198E-01  0.11232224434E+00  0.51100000000E-03 0.  1.
         11    1    4    4    0    0 -0.87363715640E-02  0.34553595394E-02 -0.13350766828E-01  0.16333027691E-01  0.51100000000E-03 0. -1.
</event>
<event>
 8    1  0.1060404E+005  0.1043930E+01  0.7957747E-01            NaN
         13   -1    0    0    0    0  0.00000000000E+00  0.00000000000E+00  0.74505805969E-08  0.10566000000E+00  0.10566000000E+00 0.  1.
     999900   -1    0    0    0    0 -0.00000000000E+00 -0.00000000000E+00 -0.74505805969E-08  0.93827000000E+00  0.93827000000E+00 0. -1.
     999902    2    1    2    0    0 -0.17128785387E-01  0.14160087017E-01  0.82424823886E-02  0.10202267962E+01  0.10199514076E+01 0.  0.
     999903    2    3    3    0    0  0.12580826608E+00 -0.12454057000E-01  0.75321366360E-02  0.12829640773E+00  0.20503946062E-01 0.  0.
         14    1    1    2    0    0  0.17128785387E-01 -0.14160087017E-01 -0.82424823886E-02  0.23703203772E-01  0.00000000000E+00 0. -1.
     999901    1    3    3    0    0 -0.14293705146E+00  0.26614144017E-01  0.71034575257E-03  0.89193038850E+00  0.88000000000E+00 0.  1.
        -11    1    4    4    0    0  0.11633141621E+00 -0.67767390027E-02  0.36875192791E-02  0.11658808476E+00  0.51100000000E-03 0. -1.
         11    1    4    4    0    0  0.94768498708E-02 -0.56773179974E-02  0.38446173568E-02  0.11708322969E-01  0.51100000000E-03 0.  1.
</event>
<event>
 8    1  0.1060404E+005  0.1043930E+01  0.7957747E-01            NaN
         13   -1    0    0    0    0  0.00000000000E+00  0.00000000000E+00  0.74505805969E-08  0.10566000000E+00  0.10566000000E+00 0. -1.
     999900   -1    0    0    0    0 -0.00000000000E+00 -0.00000000000E+00 -0.74505805969E-08  0.93827000000E+00  0.93827000000E+00 0. -1.
     999902    2    1    2    0    0 -0.12386846563E-01 -0.11503751401E-01 -0.16353214028E-01  0.10204098411E+01  0.10201387386E+01 0.  0.
     999903    2    3    3    0    0 -0.11508807520E+00 -0.66074928588E-02  0.59625542229E-01  0.13117180376E+00  0.19024005860E-01 0.  0.
         14    1    1    2    0    0  0.12386846563E-01  0.11503751401E-01  0.16353214028E-01  0.23520158867E-01  0.00000000000E+00 0. -1.
     999901    1    3    3    0    0  0.10270122864E+00 -0.48962585421E-02 -0.75978756258E-01  0.88923803738E+00  0.88000000000E+00 0. -1.
        -11    1    4    4    0    0 -0.10666442463E+00 -0.10344226117E-01  0.57814070081E-01  0.12176629384E+00  0.51100000000E-03 0. -1.
         11    1    4    4    0    0 -0.84236505773E-02  0.37367332585E-02  0.18114721480E-02  0.94055099190E-02  0.51100000000E-03 0.  1.
</event>
<event>
 8    1  0.1060404E+005  0.1043930E+01  0.7957747E-01            NaN
         13   -1    0    0    0    0  0.00000000000E+00  0.00000000000E+00  0.74505805969E-08  0.10566000000E+00  0.10566000000E+00 0. -1.
     999900   -1    0    0    0    0 -0.00000000000E+00 -0.00000000000E+00 -0.74505805969E-08  0.93827000000E+00  0.93827000000E+00 0. -1.
     999902    2    1    2    0    0 -0.11717390767E-01  0.12594064949E-01  0.16081855923E-01  0.10203814585E+01  0.10201096936E+01 0.  0.
     999903    2    3    3    0    0 -0.81740423305E-01  0.10257719837E+00  0.96534265314E-02  0.13300244469E+00  0.19821282067E-01 0.  0.
         14    1    1    2    0    0  0.11717390767E-01 -0.12594064949E-01 -0.16081855923E-01  0.23548541531E-01  0.00000000000E+00 0.  1.
     999901    1    3    3    0    0  0.70023032538E-01 -0.89983133422E-01  0.64284293918E-02  0.88737901378E+00  0.88000000000E+00 0.  1.
        -11    1    4    4    0    0 -0.64417915204E-01  0.67019968455E-01  0.40141299860E-02  0.93046860944E-01  0.51100000000E-03 0. -1.
         11    1    4    4    0    0 -0.17322508100E-01  0.35557229916E-01  0.56392965454E-02  0.39955583748E-01  0.51100000000E-03 0.  1.
</event>
<event>
 8    1  0.1060404E+005  0.1043930E+01  0.7957747E-01            NaN
         13   -1    0    0    0    0  0.00000000000E+00  0.00000000000E+00  0.74505805969E-08  0.10566000000E+00  0.10566000000E+00 0. -1.
     999900   -1    0    0    0    0 -0.00000000000E+00 -0.00000000000E+00 -0.74505805969E-08  0.93827000000E+00  0.93827000000E+00 0. -1.
     999902    2    1    2    0    0 -0.86691939295E-02 -0.21354409295E-01  0.28219666524E-02  0.10207108438E+01  0.10204467146E+01 0.  0.
     999903    2    3    3    0    0 -0.49307821006E-01  0.98385373711E-01 -0.64335220294E-01  0.12913964561E+00  0.20666023472E-01 0.  0.
         14    1    1    2    0    0  0.86691939295E-02  0.21354409295E-01 -0.28219666524E-02  0.23219156219E-01  0.00000000000E+00 0.  1.
     999901    1    3    3    0    0  0.40638627076E-01 -0.11973978301E+00  0.67157186946E-01  0.89157119817E+00  0.88000000000E+00 0.  1.
        -11    1    4    4    0    0 -0.31927845901E-01  0.51198095905E-01 -0.25083787509E-01  0.65345924777E-01  0.51100000000E-03 0. -1.
         11    1    4    4    0    0 -0.17379975105E-01  0.47187277806E-01 -0.39251432785E-01  0.63793720836E-01  0.51100000000E-03 0.  1.
</event>
<event>
 8    1  0.1060404E+005  0.1043930E+01  0.7957747E-01            NaN
         13   -1    0    0    0    0  0.00000000000E+00  0.00000000000E+00  0.74505805969E-08  0.10566000000E+00  0.10566000000E+00 0. -1.
     999900   -1    0    0    0    0 -0.00000000000E+00 -0.00000000000E+00 -0.74505805969E-08  0.93827000000E+00  0.93827000000E+00 0. -1.
     999902    2    1    2    0    0 -0.32781713596E-02 -0.67011224645E-02  0.20969395595E-01  0.10216731583E+01  0.10214307003E+01 0.  0.
     999903    2    3    3    0    0  0.16675890389E-01  0.10532185461E+00  0.76323932386E-01  0.13262229548E+00  0.19812930781E-01 0.  0.
         14    1    1    2    0    0  0.32781713596E-02  0.67011224645E-02 -0.20969395595E-01  0.22256841676E-01  0.00000000000E+00 0.  1.
     999901    1    3    3    0    0 -0.19954061749E-01 -0.11202297707E+00 -0.55354536791E-01  0.88905086284E+00  0.88000000000E+00 0. -1.
        -11    1    4    4    0    0  0.16154616932E-01  0.46149318994E-01  0.40108464829E-01  0.63243034112E-01  0.51100000000E-03 0. -1.
         11    1    4    4    0    0  0.52127345759E-03  0.59172535616E-01  0.36215467557E-01  0.69379261373E-01  0.51100000000E-03 0.  1.
</event>
<event>
 7    1  0.1614238E+005  0.1043930E+01  0.7957747E-01            NaN
         13   -1    0    0    0    0  0.00000000000E+00  0.00000000000E+00  0.74505805969E-08  0.10566000000E+00  0.10566000000E+00 0. -1.
     999900   -1    0    0    0    0 -0.00000000000E+00 -0.00000000000E+00 -0.74505805969E-08  0.93827000000E+00  0.93827000000E+00 0.  1.
     999903    2    1    2    0    0  0.75750457094E-01  0.63790592241E-01 -0.13558336877E-02  0.10103414143E+00  0.19967174072E-01 0.  0.
         14    1    1    2    0    0  0.23264273946E-01  0.44629766355E-01  0.62595317771E-02  0.50717099929E-01  0.00000000000E+00 0. -1.
     999901    1    1    2    0    0 -0.99014731040E-01 -0.10842035860E+00 -0.49036980894E-02  0.89217875864E+00  0.88000000000E+00 0. -1.
        -11    1    3    3    0    0  0.45027523616E-01  0.40817488442E-01  0.86398820622E-02  0.61387734351E-01  0.51100000000E-03 0.  1.
         11    1    3    3    0    0  0.30722933478E-01  0.22973103799E-01 -0.99957157499E-02  0.39646407075E-01  0.51100000000E-03 0. -1.
</event>
<event>
 8    1  0.1060404E+005  0.1043930E+01  0.7957747E-01            NaN
         13   -1    0    0    0    0  0.00000000000E+00  0.00000000000E+00  0.74505805969E-08  0.10566000000E+00  0.10566000000E+00 0.  1.
     999900   -1    0    0    0    0 -0.00000000000E+00 -0.00000000000E+00 -0.74505805969E-08  0.93827000000E+00  0.93827000000E+00 0.  1.
     999902    2    1    2    0    0  0.18000707396E-01 -0.10701336950E-01  0.11901332611E-01  0.10198429537E+01  0.10195584655E+01 0.  0.
     999903    2    3    3    0    0 -0.50017044173E-01  0.20854716465E-01  0.11704299596E+00  0.13041787629E+00  0.19316719378E-01 0.  0.
         14    1    1    2    0    0 -0.18000707396E-01  0.10701336950E-01 -0.11901332611E-01  0.24087046253E-01  0.00000000000E+00 0. -1.
     999901    1    3    3    0    0  0.68017751569E-01 -0.31556053415E-01 -0.10514166335E+00  0.88942507746E+00  0.88000000000E+00 0.  1.
        -11    1    4    4    0    0 -0.32575507715E-01  0.70607006268E-02  0.52897315448E-01  0.62525229298E-01  0.51100000000E-03 0. -1.
         11    1    4    4    0    0 -0.17441536459E-01  0.13794015838E-01  0.64145680508E-01  0.67892646994E-01  0.51100000000E-03 0.  1.
</event>
<event>
 8    1  0.1060404E+005  0.1043930E+01  0.7957747E-01            NaN
         13   -1    0    0    0    0  0.00000000000E+00  0.00000000000E+00  0.74505805969E-08  0.10566000000E+00  0.10566000000E+00 0.  1.
     999900   -1    0    0    0    0 -0.00000000000E+00 -0.00000000000E+00 -0.74505805969E-08  0.93827000000E+00  0.93827000000E+00 0.  1.
     999902    2    1    2    0    0 -0.21132193755E-01 -0.29036691063E-02  0.94688790225E-02  0.10205920357E+01  0.10203251652E+01 0.  0.
     999903    2    3    3    0    0  0.74290645647E-01  0.19981231451E-01  0.10280448689E+00  0.13023212385E+00  0.21755319282E-01 0.  0.
         14    1    1    2    0    0  0.21132193755E-01  0.29036691063E-02 -0.94688790225E-02  0.23337964288E-01  0.00000000000E+00 0. -1.
     999901    1    3    3    0    0 -0.95422839401E-01 -0.22884900558E-01 -0.93335607868E-01  0.89035991186E+00  0.88000000000E+00 0.  1.
        -11    1    4    4    0    0  0.32971889335E-01  0.58968345405E-02  0.28178202844E-01  0.43774311879E-01  0.51100000000E-03 0. -1.
         11    1    4    4    0    0  0.41318756311E-01  0.14084396911E-01  0.74626284047E-01  0.86457811973E-01  0.51100000000E-03 0.  1.
</event>
<event>
 8    1  0.1060404E+005  0.1043930E+01  0.7957747E-01            NaN
         13   -1    0    0    0    0  0.00000000000E+00  0.00000000000E+00  0.74505805969E-08  0.10566000000E+00  0.10566000000E+00 0.  1.
     999900   -1    0    0    0    0 -0.00000000000E+00 -0.00000000000E+00 -0.74505805969E-08  0.93827000000E+00  0.93827000000E+00 0. -1.
     999902    2    1    2    0    0  0.74653284746E-02  0.71177681328E-02 -0.20627054715E-01  0.10208677118E+01  0.10206071800E+01 0.  0.
     999903    2    3    3    0    0 -0.62240179588E-01 -0.92631546601E-01 -0.65943449905E-01  0.13133842089E+00  0.21137616625E-01 0.  0.
         14    1    1    2    0    0 -0.74653284746E-02 -0.71177681328E-02  0.20627054715E-01  0.23062288236E-01  0.00000000000E+00 0.  1.
     999901    1    3    3    0    0  0.69705508062E-01  0.99749314734E-01  0.45316395189E-01  0.88952929087E+00  0.88000000000E+00 0.  1.
        -11    1    4    4    0    0 -0.33874013866E-01 -0.66336081714E-01 -0.38005827937E-01  0.83621938693E-01  0.51100000000E-03 0. -1.
         11    1    4    4    0    0 -0.28366165722E-01 -0.26295464887E-01 -0.27937621968E-01  0.47716482201E-01  0.51100000000E-03 0.  1.
</event>
<event>
 8    1  0.1060404E+005  0.1043930E+01  0.7957747E-01            NaN
         13   -1    0    0    0    0  0.00000000000E+00  0.00000000000E+00  0.74505805969E-08  0.10566000000E+00  0.10566000000E+00 0. -1.
     999900   -1    0    0    0    0 -0.00000000000E+00 -0.00000000000E+00 -0.74505805969E-08  0.93827000000E+00  0.93827000000E+00 0. -1.
     999902    2    1    2    0    0 -0.53999425208E-02 -0.14935607781E-01  0.17110988347E-01  0.10205843863E+01  0.10203173388E+01 0.  0.
     999903    2    3    3    0    0 -0.79006532334E-01  0.10021252907E+00 -0.98709156755E-02  0.12962700982E+00  0.20521782660E-01 0.  0.
         14    1    1    2    0    0  0.53999425208E-02  0.14935607781E-01 -0.17110988347E-01  0.23345613747E-01  0.00000000000E+00 0. -1.
     999901    1    3    3    0    0  0.73606589813E-01 -0.11514813685E+00  0.26981904022E-01  0.89095737644E+00  0.88000000000E+00 0. -1.
        -11    1    4    4    0    0 -0.71729687295E-01  0.79424235917E-01 -0.10877786089E-01  0.10757297357E+00  0.51100000000E-03 0.  1.
         11    1    4    4    0    0 -0.72768450389E-02  0.20788293152E-01  0.10068704130E-02  0.22054036250E-01  0.51100000000E-03 0. -1.
</event>
<event>
 8    1  0.1060404E+005  0.1043930E+01  0.7957747E-01            NaN
         13   -1    0    0    0    0  0.00000000000E+00  0.00000000000E+00  0.74505805969E-08  0.10566000000E+00  0.10566000000E+00 0.  1.
     999900   -1    0    0    0    0 -0.00000000000E+00 -0.00000000000E+00 -0.74505805969E-08  0.93827000000E+00  0.93827000000E+00 0. -1.
     999902    2    1    2    0    0 -0.19792117326E-03  0.22152209467E-01 -0.86152417292E-02  0.10201606511E+01  0.10198837052E+01 0.  0.
     999903    2    3    3    0    0 -0.30085713325E-01 -0.46100774409E-01 -0.11658824519E+00  0.13043601988E+00  0.19756133672E-01 0.  0.
         14    1    1    2    0    0  0.19792117326E-03 -0.22152209467E-01  0.86152417292E-02  0.23769348900E-01  0.00000000000E+00 0. -1.
     999901    1    3    3    0    0  0.29887792152E-01  0.68252983876E-01  0.10797300346E+00  0.88972463122E+00  0.88000000000E+00 0.  1.
        -11    1    4    4    0    0 -0.21139784282E-01 -0.40123091400E-01 -0.76577367121E-01  0.89000602353E-01  0.51100000000E-03 0. -1.
         11    1    4    4    0    0 -0.89459290430E-02 -0.59776830084E-02 -0.40010878069E-01  0.41435417525E-01  0.51100000000E-03 0.  1.
</event>
<event>
 8    1  0.1060404E+005  0.1043930E+01  0.7957747E-01            NaN
         13   -1    0    0    0    0  0.00000000000E+00  0.00000000000E+00  0.74505805969E-08  0.10566000000E+00  0.10566000000E+00 0.  1.
     999900   -1    0    0    0    0 -0.00000000000E+00 -0.00000000000E+00 -0.74505805969E-08  0.93827000000E+00  0.93827000000E+00 0.  1.
     999902    2    1    2    0    0 -0.22447098300E-01 -0.54995824582E-02  0.42792133643E-02  0.10204261855E+01  0.10201554640E+01 0.  0.
     999903    2    3    3    0    0  0.74188200800E-01 -0.10137641867E+00  0.25638904110E-01  0.12970345358E+00  0.19610330628E-01 0.  0.
         14    1    1    2    0    0  0.22447098300E-01  0.54995824582E-02 -0.42792133643E-02  0.23503814506E-01  0.00000000000E+00 0.  1.
     999901    1    3    3    0    0 -0.96635299100E-01  0.95876836211E-01 -0.21359690746E-01  0.89072273191E+00  0.88000000000E+00 0. -1.
        -11    1    4    4    0    0  0.60319794871E-01 -0.70970483846E-01  0.13359177855E-01  0.94095780907E-01  0.51100000000E-03 0. -1.
         11    1    4    4    0    0  0.13868405929E-01 -0.30405934824E-01  0.12279726255E-01  0.35607672676E-01  0.51100000000E-03 0.  1.
</event>
<event>
 8    1  0.1060404E+005  0.1043930E+01  0.7957747E-01            NaN
         13   -1    0    0    0    0  0.00000000000E+00  0.00000000000E+00  0.74505805969E-08  0.10566000000E+00  0.10566000000E+00 0.  1.
     999900   -1    0    0    0    0 -0.00000000000E+00 -0.00000000000E+00 -0.74505805969E-08  0.93827000000E+00  0.93827000000E+00 0.  1.
     999902    2    1    2    0    0  0.96364819931E-02 -0.26392798040E-02 -0.18579453912E-01  0.10228344154E+01  0.10226168479E+01 0.  0.
     999903    2    3    3    0    0 -0.33489944287E-01 -0.10929786303E+00 -0.65997389977E-01  0.13408000459E+00  0.23541302356E-01 0.  0.
         14    1    1    2    0    0 -0.96364819931E-02  0.26392798040E-02  0.18579453912E-01  0.21095584627E-01  0.00000000000E+00 0.  1.
     999901    1    3    3    0    0  0.43126426280E-01  0.10665858323E+00  0.47417936066E-01  0.88875441078E+00  0.88000000000E+00 0. -1.
        -11    1    4    4    0    0 -0.87365895017E-02 -0.40285671554E-01 -0.11727028291E-01  0.42860793765E-01  0.51100000000E-03 0.  1.
         11    1    4    4    0    0 -0.24753354785E-01 -0.69012191477E-01 -0.54270361687E-01  0.91219210828E-01  0.51100000000E-03 0. -1.
</event>
<event>
 8    1  0.1060404E+005  0.1043930E+01  0.7957747E-01            NaN
         13   -1    0    0    0    0  0.00000000000E+00  0.00000000000E+00  0.74505805969E-08  0.10566000000E+00  0.10566000000E+00 0.  1.
     999900   -1    0    0    0    0 -0.00000000000E+00 -0.00000000000E+00 -0.74505805969E-08  0.93827000000E+00  0.93827000000E+00 0.  1.
     999902    2    1    2    0    0 -0.22265858100E-01  0.10592787649E-01 -0.68130794486E-03  0.10192634281E+01  0.10189649141E+01 0.  0.
     999903    2    3    3    0    0 -0.11846595713E-02  0.11207348793E+00  0.63568879740E-01  0.13085426785E+00  0.22802781117E-01 0.  0.
         14    1    1    2    0    0  0.22265858100E-01 -0.10592787649E-01  0.68130794486E-03  0.24666571866E-01  0.00000000000E+00 0.  1.
     999901    1    3    3    0    0 -0.21081198528E-01 -0.10148070029E+00 -0.64250187685E-01  0.88840916029E+00  0.88000000000E+00 0.  1.
        -11    1    4    4    0    0 -0.93621401543E-03  0.31956519367E-01  0.68747888116E-02  0.32705037363E-01  0.51100000000E-03 0.  1.
         11    1    4    4    0    0 -0.24844555589E-03  0.80116968568E-01  0.56694090928E-01  0.98149230486E-01  0.51100000000E-03 0. -1.
</event>
<event>
 8    1  0.1060404E+005  0.1043930E+01  0.7957747E-01            NaN
         13   -1    0    0    0    0  0.00000000000E+00  0.00000000000E+00  0.74505805969E-08  0.10566000000E+00  0.10566000000E+00 0.  1.
     999900   -1    0    0    0    0 -0.00000000000E+00 -0.00000000000E+00 -0.74505805969E-08  0.93827000000E+00  0.93827000000E+00 0. -1.
     999902    2    1    2    0    0  0.16159914819E-01 -0.64036187600E-02  0.12287860489E-01  0.10226428984E+01  0.10224213206E+01 0.  0.
     999903    2    3    3    0    0 -0.26397368463E-01  0.12647666569E+00  0.63732994596E-02  0.13163039881E+00  0.24346969371E-01 0.  0.
         14    1    1    2    0    0 -0.16159914819E-01  0.64036187600E-02 -0.12287860489E-01  0.21287101625E-01  0.00000000000E+00 0. -1.
     999901    1    3    3    0    0  0.42557283282E-01 -0.13288028445E+00  0.59145610297E-02  0.89101249957E+00  0.88000000000E+00 0.  1.
        -11    1    4    4    0    0 -0.12867237549E-01  0.86423256388E-01 -0.59824886672E-02  0.87581940710E-01  0.51100000000E-03 0. -1.
         11    1    4    4    0    0 -0.13530130914E-01  0.40053409303E-01  0.12355788127E-01  0.44048458096E-01  0.51100000000E-03 0.  1.
</event>
<event>
 8    1  0.1060404E+005  0.1043930E+01  0.7957747E-01            NaN
         13   -1    0    0    0    0  0.00000000000E+00  0.00000000000E+00  0.74505805969E-08  0.10566000000E+00  0.10566000000E+00 0. -1.
     999900   -1    0    0    0    0 -0.00000000000E+00 -0.00000000000E+00 -0.74505805969E-08  0.93827000000E+00  0.93827000000E+00 0. -1.
     999902    2    1    2    0    0  0.96387720690E-02 -0.20730946425E-01 -0.71009817960E-02  0.10199904509E+01  0.10197094773E+01 0.  0.
     999903    2    3    3    0    0  0.99374115873E-01  0.61852156949E-01  0.51343117726E-01  0.12966011131E+00  0.21788173474E-01 0.  0.
         14    1    1    2    0    0 -0.96387720690E-02  0.20730946425E-01  0.71009817960E-02  0.23939549059E-01  0.00000000000E+00 0. -1.
     999901    1    3    3    0    0 -0.89735343804E-01 -0.82583103374E-01 -0.58444099522E-01  0.89033033963E+00  0.88000000000E+00 0. -1.
        -11    1    4    4    0    0  0.78775961715E-02 -0.97453873353E-03  0.20427116277E-02  0.82121884402E-02  0.51100000000E-03 0. -1.
         11    1    4    4    0    0  0.91496519702E-01  0.62826695682E-01  0.49300406099E-01  0.12144792287E+00  0.51100000000E-03 0.  1.
</event>
<event>
 8    1  0.1060404E+005  0.1043930E+01  0.7957747E-01            NaN
         13   -1    0    0    0    0  0.00000000000E+00  0.00000000000E+00  0.74505805969E-08  0.10566000000E+00  0.10566000000E+00 0. -1.
     999900   -1    0    0    0    0 -0.00000000000E+00 -0.00000000000E+00 -0.74505805969E-08  0.93827000000E+00  0.93827000000E+00 0. -1.
     999902    2    1    2    0    0 -0.16715211121E-01 -0.33809335374E-02 -0.11101081173E-01  0.10235814620E+01  0.10233791802E+01 0.  0.
     999903    2    3    3    0    0 -0.74893811831E-02  0.92023316375E-01 -0.95613100428E-01  0.13435181326E+00  0.19600080787E-01 0.  0.
         14    1    1    2    0    0  0.16715211121E-01  0.33809335374E-02  0.11101081173E-01  0.20348537973E-01  0.00000000000E+00 0. -1.
     999901    1    3    3    0    0 -0.92258299383E-02 -0.95404249913E-01  0.84512019255E-01  0.88922964876E+00  0.88000000000E+00 0.  1.
        -11    1    4    4    0    0  0.12805321553E-03  0.20765725801E-01 -0.33993274897E-01  0.39837615703E-01  0.51100000000E-03 0.  1.
         11    1    4    4    0    0 -0.76174343987E-02  0.71257590574E-01 -0.61619825531E-01  0.94514197562E-01  0.51100000000E-03 0. -1.
</event>
<event>
 8    1  0.1179743E+005  0.1043930E+01  0.7957747E-01            NaN
         13   -1    0    0    0    0  0.00000000000E+00  0.00000000000E+00  0.74505805969E-08  0.10566000000E+00  0.10566000000E+00 0. -1.
     999900   -1    0    0    0    0 -0.00000000000E+00 -0.00000000000E+00 -0.74505805969E-08  0.93827000000E+00  0.93827000000E+00 0. -1.
     999902    2    1    2    0    0 -0.20961827274E-01 -0.75135275070E-02 -0.51280767869E-02  0.10210794317E+01  0.10208237152E+01 0.  0.
     999903    2    3    3    0    0 -0.97215033396E-01 -0.83670125659E-01  0.31967602783E-01  0.13372918053E+00  0.20251258001E-01 0.  0.
         14    1    1    2    0    0  0.20961827274E-01  0.75135275070E-02  0.51280767869E-02  0.22850568260E-01  0.00000000000E+00 0. -1.
     999901    1    3    3    0    0  0.76253206122E-01  0.76156598152E-01 -0.37095679570E-01  0.88735025121E+00  0.88000000000E+00 0. -1.
        -11    1    4    4    0    0 -0.33595567353E-01 -0.16859048543E-01  0.88531563734E-02  0.38620320588E-01  0.51100000000E-03 0.  1.
         11    1    4    4    0    0 -0.63619466043E-01 -0.66811077115E-01  0.23114446410E-01  0.95108859938E-01  0.51100000000E-03 0. -1.
</event>
<event>
 8    1  0.1060404E+005  0.1043930E+01  0.7957747E-01            NaN
         13   -1    0    0    0    0  0.00000000000E+00  0.00000000000E+00  0.74505805969E-08  0.10566000000E+00  0.10566000000E+00 0.  1.
     999900   -1    0    0    0    0 -0.00000000000E+00 -0.00000000000E+00 -0.74505805969E-08  0.93827000000E+00  0.93827000000E+00 0.  1.
     999902    2    1    2    0    0 -0.13313429728E-01  0.38830359740E-02 -0.22934929245E-01  0.10171282023E+01  0.10167750211E+01 0.  0.
     999903    2    3    3    0    0 -0.84071004105E-01  0.78248675535E-01 -0.58232727279E-01  0.13045869386E+00  0.20919639667E-01 0.  0.
         14    1    1    2    0    0  0.13313429728E-01 -0.38830359740E-02  0.22934929245E-01  0.26801797682E-01  0.00000000000E+00 0.  1.
     999901    1    3    3    0    0  0.70757574378E-01 -0.74365639561E-01  0.35297798034E-01  0.88666950846E+00  0.88000000000E+00 0.  1.
        -11    1    4    4    0    0 -0.69975962125E-01  0.70607263423E-01 -0.42910572185E-01  0.10827557088E+00  0.51100000000E-03 0. -1.
         11    1    4    4    0    0 -0.14095041980E-01  0.76414121112E-02 -0.15322155094E-01  0.22183122981E-01  0.51100000000E-03 0.  1.
</event>
<event>
 7    1  0.1060404E+005  0.1043930E+01  0.7957747E-01            NaN
         13   -1    0    0    0    0  0.00000000000E+00  0.00000000000E+00  0.74505805969E-08  0.10566000000E+00  0.10566000000E+00 0. -1.
     999900   -1    0    0    0    0 -0.00000000000E+00 -0.00000000000E+00 -0.74505805969E-08  0.93827000000E+00  0.93827000000E+00 0.  1.
     999902    2    1    2    0    0 -0.15687424172E-03  0.22726518422E-01 -0.61063990026E-02  0.10203968881E+01  0.10201254834E+01 0.  0.
         14    1    1    2    0    0  0.15687424172E-03 -0.22726518422E-01  0.61063990026E-02  0.23533111947E-01  0.00000000000E+00 0.  1.
     999901    1    3    3    0    0 -0.37008046865E-01  0.71914218841E-01  0.10368308919E+00  0.88977043859E+00  0.88000000000E+00 0. -1.
        -11    1    3    3    0    0  0.89882162214E-02 -0.25264537020E-01 -0.76469812686E-01  0.81036894282E-01  0.51100000000E-03 0. -1.
         11    1    3    3    0    0  0.27862956401E-01 -0.23923163399E-01 -0.33319675504E-01  0.49589555182E-01  0.51100000000E-03 0.  1.
</event>
<event>
 8    1  0.1060404E+005  0.1043930E+01  0.7957747E-01            NaN
         13   -1    0    0    0    0  0.00000000000E+00  0.00000000000E+00  0.74505805969E-08  0.10566000000E+00  0.10566000000E+00 0. -1.
     999900   -1    0    0    0    0 -0.00000000000E+00 -0.00000000000E+00 -0.74505805969E-08  0.93827000000E+00  0.93827000000E+00 0.  1.
     999902    2    1    2    0    0 -0.14200697698E-01  0.20933594159E-01  0.12243302449E-01  0.10158270885E+01  0.10154382798E+01 0.  0.
     999903    2    3    3    0    0 -0.12360010524E+00  0.28849535195E-01  0.11889763360E-01  0.12901762899E+00  0.19872101595E-01 0.  0.
         14    1    1    2    0    0  0.14200697698E-01 -0.20933594159E-01 -0.12243302449E-01  0.28102911493E-01  0.00000000000E+00 0.  1.
     999901    1    3    3    0    0  0.10939940754E+00 -0.79159410355E-02  0.35353908836E-03  0.88680945951E+00  0.88000000000E+00 0. -1.
        -11    1    4    4    0    0 -0.62140749343E-01  0.18517802532E-01 -0.30973366896E-02  0.64917149930E-01  0.51100000000E-03 0.  1.
         11    1    4    4    0    0 -0.61459355898E-01  0.10331732663E-01  0.14987100050E-01  0.64100479063E-01  0.51100000000E-03 0. -1.
</event>
<event>
 8    1  0.1060404E+005  0.1043930E+01  0.7957747E-01            NaN
         13   -1    0    0    0    0  0.00000000000E+00  0.00000000000E+00  0.74505805969E-08  0.10566000000E+00  0.10566000000E+00 0. -1.
     999900   -1    0    0    0    0 -0.00000000000E+00 -0.00000000000E+00 -0.74505805969E-08  0.93827000000E+00  0.93827000000E+00 0.  1.
     999902    2    1    2    0    0 -0.12723166857E-01 -0.12609152744E-01 -0.15173113203E-01  0.10204546284E+01  0.10201845693E+01 0.  0.
     999903    2    3    3    0    0 -0.43120341958E-01  0.10164097160E+00  0.63373898878E-01  0.12908113077E+00  0.21340952700E-01 0.  0.
         14    1    1    2    0    0  0.12723166857E-01  0.12609152744E-01  0.15173113203E-01  0.23475371606E-01  0.00000000000E+00 0.  1.
     999901    1    3    3    0    0  0.30397175101E-01 -0.11425012434E+00 -0.78547012081E-01  0.89137349763E+00  0.88000000000E+00 0.  1.
        -11    1    4    4    0    0 -0.26833916063E-01  0.54411677091E-01  0.46171318888E-01  0.76241336977E-01  0.51100000000E-03 0.  1.
         11    1    4    4    0    0 -0.16286425896E-01  0.47229294509E-01  0.17202579990E-01  0.52839793789E-01  0.51100000000E-03 0. -1.
</event>
<event>
 8    1  0.1060404E+005  0.1043930E+01  0.7957747E-01            NaN
         13   -1    0    0    0    0  0.00000000000E+00  0.00000000000E+00  0.74505805969E-08  0.10566000000E+00  0.10566000000E+00 0.  1.
     999900   -1    0    0    0    0 -0.00000000000E+00 -0.00000000000E+00 -0.74505805969E-08  0.93827000000E+00  0.93827000000E+00 0. -1.
     999902    2    1    2    0    0 -0.22291109154E-01 -0.83923494284E-02  0.10666752372E-02  0.10200875406E+01  0.10198088681E+01 0.  0.
     999903    2    3    3    0    0 -0.80199240242E-01  0.99277595513E-01 -0.23414330219E-01  0.13129876457E+00  0.20079233355E-01 0.  0.
         14    1    1    2    0    0  0.22291109154E-01  0.83923494284E-02 -0.10666752372E-02  0.23842459443E-01  0.00000000000E+00 0. -1.
     999901    1    3    3    0    0  0.57908131088E-01 -0.10766994494E+00  0.24481005456E-01  0.88878877599E+00  0.88000000000E+00 0.  1.
        -11    1    4    4    0    0 -0.12438098292E-01  0.66340517090E-02  0.23000784753E-03  0.14107833137E-01  0.51100000000E-03 0. -1.
         11    1    4    4    0    0 -0.67761141950E-01  0.92643543804E-01 -0.23644338066E-01  0.11719093143E+00  0.51100000000E-03 0.  1.
</event>
<event>
 8    1  0.1060404E+005  0.1043930E+01  0.7957747E-01            NaN
         13   -1    0    0    0    0  0.00000000000E+00  0.00000000000E+00  0.74505805969E-08  0.10566000000E+00  0.10566000000E+00 0. -1.
     999900   -1    0    0    0    0 -0.00000000000E+00 -0.00000000000E+00 -0.74505805969E-08  0.93827000000E+00  0.93827000000E+00 0. -1.
     999902    2    1    2    0    0 -0.19208998438E-01  0.14886890336E-01 -0.54479877818E-02  0.10190244646E+01  0.10187200664E+01 0.  0.
     999903    2    3    3    0    0 -0.93278534822E-02  0.12271047518E+00  0.41017069845E-01  0.13117168168E+00  0.19461256069E-01 0.  0.
         14    1    1    2    0    0  0.19208998438E-01 -0.14886890336E-01  0.54479877818E-02  0.24905535444E-01  0.00000000000E+00 0. -1.
     999901    1    3    3    0    0 -0.98811449562E-02 -0.10782358484E+00 -0.46465057627E-01  0.88785278287E+00  0.88000000000E+00 0.  1.
        -11    1    4    4    0    0  0.34309346204E-03  0.91306982363E-01  0.34858809272E-01  0.97736791671E-01  0.51100000000E-03 0. -1.
         11    1    4    4    0    0 -0.96709469442E-02  0.31403492816E-01  0.61582605734E-02  0.33434890012E-01  0.51100000000E-03 0.  1.
</event>
<event>
 8    1  0.1060404E+005  0.1043930E+01  0.7957747E-01            NaN
         13   -1    0    0    0    0  0.00000000000E+00  0.00000000000E+00  0.74505805969E-08  0.10566000000E+00  0.10566000000E+00 0.  1.
     999900   -1    0    0    0    0 -0.00000000000E+00 -0.00000000000E+00 -0.74505805969E-08  0.93827000000E+00  0.93827000000E+00 0. -1.
     999902    2    1    2    0    0  0.37694920749E-02  0.21666408518E-01 -0.10294915859E-01  0.10196477509E+01  0.10193585769E+01 0.  0.
     999903    2    3    3    0    0 -0.52889151762E-01  0.74710622290E-01 -0.93492702807E-01  0.13232269080E+00  0.19734983296E-01 0.  0.
         14    1    1    2    0    0 -0.37694920749E-02 -0.21666408518E-01  0.10294915859E-01  0.24282249095E-01  0.00000000000E+00 0.  1.
     999901    1    3    3    0    0  0.56658643837E-01 -0.53044213772E-01  0.83197786948E-01  0.88732506010E+00  0.88000000000E+00 0.  1.
        -11    1    4    4    0    0 -0.10628891811E-01  0.82857402052E-02 -0.22912682926E-01  0.26587196011E-01  0.51100000000E-03 0.  1.
         11    1    4    4    0    0 -0.42260259951E-01  0.66424882085E-01 -0.70580019881E-01  0.10573549479E+00  0.51100000000E-03 0. -1.
</event>
<event>
 8    1  0.1060404E+005  0.1043930E+01  0.7957747E-01            NaN
         13   -1    0    0    0    0  0.00000000000E+00  0.00000000000E+00  0.74505805969E-08  0.10566000000E+00  0.10566000000E+00 0. -1.
     999900   -1    0    0    0    0 -0.00000000000E+00 -0.00000000000E+00 -0.74505805969E-08  0.93827000000E+00  0.93827000000E+00 0. -1.
     999902    2    1    2    0    0  0.16427012824E-01 -0.22639042097E-02 -0.17883461684E-01  0.10195416787E+01  0.10192499421E+01 0.  0.
     999903    2    3    3    0    0 -0.12103015773E-01  0.12705530303E+00 -0.89117101033E-02  0.12958779665E+00  0.20592363772E-01 0.  0.
         14    1    1    2    0    0 -0.16427012824E-01  0.22639042097E-02  0.17883461684E-01  0.24388321270E-01  0.00000000000E+00 0. -1.
     999901    1    3    3    0    0  0.28530028597E-01 -0.12931920724E+00 -0.89717515805E-02  0.88995388207E+00  0.88000000000E+00 0. -1.
        -11    1    4    4    0    0 -0.11154190970E-01  0.41121651933E-01  0.35071127580E-02  0.42754733010E-01  0.51100000000E-03 0.  1.
         11    1    4    4    0    0 -0.94882480241E-03  0.85933651099E-01 -0.12418822861E-01  0.86833063645E-01  0.51100000000E-03 0. -1.
</event>
<event>
 8    1  0.1060404E+005  0.1043930E+01  0.7957747E-01            NaN
         13   -1    0    0    0    0  0.00000000000E+00  0.00000000000E+00  0.74505805969E-08  0.10566000000E+00  0.10566000000E+00 0.  1.
     999900   -1    0    0    0    0 -0.00000000000E+00 -0.00000000000E+00 -0.74505805969E-08  0.93827000000E+00  0.93827000000E+00 0. -1.
     999902    2    1    2    0    0  0.13324213508E-01 -0.17823369084E-01  0.94556464868E-02  0.10197511580E+01  0.10194644711E+01 0.  0.
     999903    2    3    3    0    0 -0.11417219607E+00  0.22413570343E-01 -0.49179922465E-01  0.12772398591E+00  0.18896912791E-01 0.  0.
         14    1    1    2    0    0 -0.13324213508E-01  0.17823369084E-01 -0.94556464868E-02  0.24178842024E-01  0.00000000000E+00 0.  1.
     999901    1    3    3    0    0  0.12749640958E+00 -0.40236939427E-01  0.58635568951E-01  0.89202717206E+00  0.88000000000E+00 0.  1.
        -11    1    4    4    0    0 -0.54155931299E-01  0.13815502399E-01 -0.33250043175E-01  0.65035063570E-01  0.51100000000E-03 0.  1.
         11    1    4    4    0    0 -0.60016264772E-01  0.85980679443E-02 -0.15929879290E-01  0.62688922345E-01  0.51100000000E-03 0. -1.
</event>
<event>
 8    1  0.1060404E+005  0.1043930E+01  0.7957747E-01            NaN
         13   -1    0    0    0    0  0.00000000000E+00  0.00000000000E+00  0.74505805969E-08  0.10566000000E+00  0.10566000000E+00 0. -1.
     999900   -1    0    0    0    0 -0.00000000000E+00 -0.00000000000E+00 -0.74505805969E-08  0.93827000000E+00  0.93827000000E+00 0.  1.
     999902    2    1    2    0    0 -0.77369875601E-03  0.15081919837E-01 -0.19790788059E-01  0.10190354583E+01  0.10187313321E+01 0.  0.
     999903    2    3    3    0    0  0.87355835584E-01  0.92460586787E-01 -0.25335790349E-01  0.13123760968E+00  0.20035114222E-01 0.  0.
         14    1    1    2    0    0  0.77369875601E-03 -0.15081919837E-01  0.19790788059E-01  0.24894541726E-01  0.00000000000E+00 0. -1.
     999901    1    3    3    0    0 -0.88129534340E-01 -0.77378666950E-01  0.55450022899E-02  0.88779784860E+00  0.88000000000E+00 0. -1.
        -11    1    4    4    0    0  0.31093929963E-01  0.21465189703E-01 -0.12173132873E-01  0.39699283802E-01  0.51100000000E-03 0. -1.
         11    1    4    4    0    0  0.56261905621E-01  0.70995397084E-01 -0.13162657476E-01  0.91538325875E-01  0.51100000000E-03 0.  1.
</event>
<event>
 8    1  0.1060404E+005  0.1043930E+01  0.7957747E-01            NaN
         13   -1    0    0    0    0  0.00000000000E+00  0.00000000000E+00  0.74505805969E-08  0.10566000000E+00  0.10566000000E+00 0. -1.
     999900   -1    0    0    0    0 -0.00000000000E+00 -0.00000000000E+00 -0.74505805969E-08  0.93827000000E+00  0.93827000000E+00 0.  1.
     999902    2    1    2    0    0  0.14326140938E-01  0.15846486221E-01 -0.90303978405E-02  0.10207373821E+01  0.10204738633E+01 0.  0.
     999903    2    3    3    0    0  0.10622400903E+00 -0.64585318884E-01  0.38815717801E-01  0.13101622117E+00  0.14275389748E-01 0.  0.
         14    1    1    2    0    0 -0.14326140938E-01 -0.15846486221E-01  0.90303978405E-02  0.23192617896E-01  0.00000000000E+00 0. -1.
     999901    1    3    3    0    0 -0.91897868088E-01  0.80431805105E-01 -0.47846115641E-01  0.88972116093E+00  0.88000000000E+00 0.  1.
        -11    1    4    4    0    0  0.31956963151E-01 -0.12527550335E-01  0.13115765730E-01  0.36748761107E-01  0.51100000000E-03 0.  1.
         11    1    4    4    0    0  0.74267045874E-01 -0.52057768549E-01  0.25699952071E-01  0.94267460062E-01  0.51100000000E-03 0. -1.
</event>
<event>
 8    1  0.1060404E+005  0.1043930E+01  0.7957747E-01            NaN
         13   -1    0    0    0    0  0.00000000000E+00  0.00000000000E+00  0.74505805969E-08  0.10566000000E+00  0.10566000000E+00 0. -1.
     999900   -1    0    0    0    0 -0.00000000000E+00 -0.00000000000E+00 -0.74505805969E-08  0.93827000000E+00  0.93827000000E+00 0.  1.
     999902    2    1    2    0    0  0.56188232853E-02  0.26166139382E-02  0.21316792834E-01  0.10217303716E+01  0.10214891721E+01 0.  0.
     999903    2    3    3    0    0  0.12787574126E+00 -0.27979203428E-02  0.31140077147E-01  0.13320768306E+00  0.20360472966E-01 0.  0.
         14    1    1    2    0    0 -0.56188232853E-02 -0.26166139382E-02 -0.21316792834E-01  0.22199628383E-01  0.00000000000E+00 0.  1.
     999901    1    3    3    0    0 -0.12225691797E+00  0.54145342810E-02 -0.98232843131E-02  0.88852268856E+00  0.88000000000E+00 0.  1.
        -11    1    4    4    0    0  0.67647380743E-01 -0.49463563434E-02  0.66571165083E-02  0.68155798607E-01  0.51100000000E-03 0.  1.
         11    1    4    4    0    0  0.60228360516E-01  0.21484360006E-02  0.24482960639E-01  0.65051884449E-01  0.51100000000E-03 0. -1.
</event>
<event>
 8    1  0.1060404E+005  0.1043930E+01  0.7957747E-01            NaN
         13   -1    0    0    0    0  0.00000000000E+00  0.00000000000E+00  0.74505805969E-08  0.10566000000E+00  0.10566000000E+00 0. -1.
     999900   -1    0    0    0    0 -0.00000000000E+00 -0.00000000000E+00 -0.74505805969E-08  0.93827000000E+00  0.93827000000E+00 0. -1.
     999902    2    1    2    0    0  0.21298466811E-01 -0.70787139793E-02 -0.68869732471E-02  0.10204531331E+01  0.10201830392E+01 0.  0.
     999903    2    3    3    0    0  0.20191878016E-01  0.11935449409E+00  0.42846978323E-01  0.13002624299E+00  0.20439009713E-01 0.  0.
         14    1    1    2    0    0 -0.21298466811E-01  0.70787139793E-02  0.68869732471E-02  0.23476866925E-01  0.00000000000E+00 0. -1.
     999901    1    3    3    0    0  0.11065887949E-02 -0.12643320807E+00 -0.49733951571E-01  0.89042689008E+00  0.88000000000E+00 0. -1.
        -11    1    4    4    0    0  0.18999805356E-02  0.57654790176E-01  0.27284223079E-01  0.63815160474E-01  0.51100000000E-03 0. -1.
         11    1    4    4    0    0  0.18291897480E-01  0.61699703915E-01  0.15562755244E-01  0.66211082519E-01  0.51100000000E-03 0.  1.
</event>
<event>
 8    1  0.1060404E+005  0.1043930E+01  0.7957747E-01            NaN
         13   -1    0    0    0    0  0.00000000000E+00  0.00000000000E+00  0.74505805969E-08  0.10566000000E+00  0.10566000000E+00 0. -1.
     999900   -1    0    0    0    0 -0.00000000000E+00 -0.00000000000E+00 -0.74505805969E-08  0.93827000000E+00  0.93827000000E+00 0.  1.
     999902    2    1    2    0    0 -0.69298257694E-02  0.23145450393E-01 -0.43693230090E-02  0.10193774982E+01  0.10190817723E+01 0.  0.
     999903    2    3    3    0    0  0.80531613424E-01  0.65694484682E-01 -0.77256300390E-01  0.13102372010E+00  0.19939237715E-01 0.  0.
         14    1    1    2    0    0  0.69298257694E-02 -0.23145450393E-01  0.43693230090E-02  0.24552501760E-01  0.00000000000E+00 0.  1.
     999901    1    3    3    0    0 -0.87461439193E-01 -0.42549034289E-01  0.72886977381E-01  0.88835377814E+00  0.88000000000E+00 0. -1.
        -11    1    4    4    0    0  0.54271724173E-01  0.52099558695E-01 -0.63303701289E-01  0.98322956520E-01  0.51100000000E-03 0.  1.
         11    1    4    4    0    0  0.26259889251E-01  0.13594925987E-01 -0.13952599101E-01  0.32700763580E-01  0.51100000000E-03 0. -1.
</event>
<event>
 8    1  0.1060404E+005  0.1043930E+01  0.7957747E-01            NaN
         13   -1    0    0    0    0  0.00000000000E+00  0.00000000000E+00  0.74505805969E-08  0.10566000000E+00  0.10566000000E+00 0.  1.
     999900   -1    0    0    0    0 -0.00000000000E+00 -0.00000000000E+00 -0.74505805969E-08  0.93827000000E+00  0.93827000000E+00 0.  1.
     999902    2    1    2    0    0  0.21162883139E-01  0.69623666091E-02  0.13708778515E-01  0.10177713919E+01  0.10174351740E+01 0.  0.
     999903    2    3    3    0    0  0.26827568152E-01  0.79954260803E-01 -0.94429208717E-01  0.12813453923E+00  0.19727707693E-01 0.  0.
         14    1    1    2    0    0 -0.21162883139E-01 -0.69623666091E-02 -0.13708778515E-01  0.26158608142E-01  0.00000000000E+00 0. -1.
     999901    1    3    3    0    0 -0.56646850130E-02 -0.72991894194E-01  0.10813798723E+00  0.88963685263E+00  0.88000000000E+00 0. -1.
        -11    1    4    4    0    0  0.24082965117E-01  0.51280581812E-01 -0.72030143492E-01  0.91642184458E-01  0.51100000000E-03 0. -1.
         11    1    4    4    0    0  0.27446030356E-02  0.28673678992E-01 -0.22399065225E-01  0.36492354770E-01  0.51100000000E-03 0.  1.
</event>
<event>
 8    1  0.1060404E+005  0.1043930E+01  0.7957747E-01            NaN
         13   -1    0    0    0    0  0.00000000000E+00  0.00000000000E+00  0.74505805969E-08  0.10566000000E+00  0.10566000000E+00 0.  1.
     999900   -1    0    0    0    0 -0.00000000000E+00 -0.00000000000E+00 -0.74505805969E-08  0.93827000000E+00  0.93827000000E+00 0.  1.
     999902    2    1    2    0    0 -0.13805459795E-01 -0.14775744301E-01  0.14186753165E-01  0.10192282328E+01  0.10189288558E+01 0.  0.
     999903    2    3    3    0    0 -0.67807556069E-01 -0.94904398066E-01  0.59991583182E-01  0.13275493366E+00  0.20498120045E-01 0.  0.
         14    1    1    2    0    0  0.13805459795E-01  0.14775744301E-01 -0.14186753165E-01  0.24701767247E-01  0.00000000000E+00 0. -1.
     999901    1    3    3    0    0  0.54002096274E-01  0.80128653765E-01 -0.45804830017E-01  0.88647329910E+00  0.88000000000E+00 0.  1.
        -11    1    4    4    0    0 -0.24158669544E-01 -0.51024677500E-01  0.26259127595E-01  0.62265254606E-01  0.51100000000E-03 0.  1.
         11    1    4    4    0    0 -0.43648886525E-01 -0.43879720566E-01  0.33732455587E-01  0.70489679051E-01  0.51100000000E-03 0. -1.
</event>
<event>
 8    1  0.1060404E+005  0.1043930E+01  0.7957747E-01            NaN
         13   -1    0    0    0    0  0.00000000000E+00  0.00000000000E+00  0.74505805969E-08  0.10566000000E+00  0.10566000000E+00 0.  1.
     999900   -1    0    0    0    0 -0.00000000000E+00 -0.00000000000E+00 -0.74505805969E-08  0.93827000000E+00  0.93827000000E+00 0. -1.
     999902    2    1    2    0    0 -0.24529029386E-01 -0.70553055556E-03 -0.27806917658E-02  0.10192337796E+01  0.10189345387E+01 0.  0.
     999903    2    3    3    0    0  0.27518572624E-01  0.48003618124E-01 -0.11568047741E+00  0.12916193100E+00  0.15466491970E-01 0.  0.
         14    1    1    2    0    0  0.24529029386E-01  0.70553055556E-03  0.27806917658E-02  0.24696220413E-01  0.00000000000E+00 0.  1.
     999901    1    3    3    0    0 -0.52047602010E-01 -0.48709148680E-01  0.11289978565E+00  0.89007184858E+00  0.88000000000E+00 0.  1.
        -11    1    4    4    0    0  0.25103768228E-01  0.30340831665E-01 -0.84858796897E-01  0.93552347791E-01  0.51100000000E-03 0.  1.
         11    1    4    4    0    0  0.24148043958E-02  0.17662786459E-01 -0.30821680516E-01  0.35609583213E-01  0.51100000000E-03 0. -1.
</event>
<event>
 8    1  0.1060404E+005  0.1043930E+01  0.7957747E-01            NaN
         13   -1    0    0    0    0  0.00000000000E+00  0.00000000000E+00  0.74505805969E-08  0.10566000000E+00  0.10566000000E+00 0. -1.
     999900   -1    0    0    0    0 -0.00000000000E+00 -0.00000000000E+00 -0.74505805969E-08  0.93827000000E+00  0.93827000000E+00 0.  1.
     999902    2    1    2    0    0  0.22372205492E-01  0.94264737142E-04 -0.79130702823E-02  0.10201994049E+01  0.10199233719E+01 0.  0.
     999903    2    3    3    0    0 -0.83939343993E-01  0.94516693236E-01  0.11635956776E-01  0.12857173312E+00  0.20397948338E-01 0.  0.
         14    1    1    2    0    0 -0.22372205492E-01 -0.94264737142E-04  0.79130702823E-02  0.23730595141E-01  0.00000000000E+00 0. -1.
     999901    1    3    3    0    0  0.10631154949E+00 -0.94422428499E-01 -0.19549027058E-01  0.89162767174E+00  0.88000000000E+00 0.  1.
        -11    1    4    4    0    0 -0.22752187884E-01  0.36280447079E-01 -0.26079106388E-02  0.42906820118E-01  0.51100000000E-03 0.  1.
         11    1    4    4    0    0 -0.61187156109E-01  0.58236246158E-01  0.14243867415E-01  0.85664913000E-01  0.51100000000E-03 0. -1.
</event>
<event>
 8    1  0.1060404E+005  0.1043930E+01  0.7957747E-01            NaN
         13   -1    0    0    0    0  0.00000000000E+00  0.00000000000E+00  0.74505805969E-08  0.10566000000E+00  0.10566000000E+00 0. -1.
     999900   -1    0    0    0    0 -0.00000000000E+00 -0.00000000000E+00 -0.74505805969E-08  0.93827000000E+00  0.93827000000E+00 0.  1.
     999902    2    1    2    0    0 -0.22389781149E-01  0.70641224905E-02  0.84170867899E-02  0.10189890402E+01  0.10186837647E+01 0.  0.
     999903    2    3    3    0    0 -0.12394270015E+00 -0.40325098017E-01  0.44223805091E-02  0.13187310004E+00  0.19571678887E-01 0.  0.
         14    1    1    2    0    0  0.22389781149E-01 -0.70641224905E-02 -0.84170867899E-02  0.24940959815E-01  0.00000000000E+00 0. -1.
     999901    1    3    3    0    0  0.10155291900E+00  0.47389220507E-01  0.39947062808E-02  0.88711594014E+00  0.88000000000E+00 0. -1.
        -11    1    4    4    0    0 -0.78433223353E-01 -0.30337088233E-01 -0.53371033640E-02  0.84266572503E-01  0.51100000000E-03 0. -1.
         11    1    4    4    0    0 -0.45509476798E-01 -0.99880097838E-02  0.97594838732E-02  0.47606527540E-01  0.51100000000E-03 0.  1.
</event>
<event>
 8    1  0.1060404E+005  0.1043930E+01  0.7957747E-01            NaN
         13   -1    0    0    0    0  0.00000000000E+00  0.00000000000E+00  0.74505805969E-08  0.10566000000E+00  0.10566000000E+00 0. -1.
     999900   -1    0    0    0    0 -0.00000000000E+00 -0.00000000000E+00 -0.74505805969E-08  0.93827000000E+00  0.93827000000E+00 0.  1.
     999902    2    1    2    0    0  0.29567707446E-02  0.23665690947E-01  0.26945671958E-02  0.10199285810E+01  0.10196461358E+01 0.  0.
     999903    2    3    3    0    0 -0.50158819301E-01 -0.10656277838E+00 -0.44579919349E-01  0.12750738157E+00  0.19980747140E-01 0.  0.
         14    1    1    2    0    0 -0.29567707446E-02 -0.23665690947E-01 -0.26945671958E-02  0.24001418991E-01  0.00000000000E+00 0.  1.
     999901    1    3    3    0    0  0.53115590045E-01  0.13022846933E+00  0.47274486545E-01  0.89242119944E+00  0.88000000000E+00 0.  1.
        -11    1    4    4    0    0 -0.37327764490E-02 -0.27606320826E-01 -0.10053954771E-01  0.29620697107E-01  0.51100000000E-03 0. -1.
         11    1    4    4    0    0 -0.46426042852E-01 -0.78956457553E-01 -0.34525964579E-01  0.97886684464E-01  0.51100000000E-03 0.  1.
</event>
<event>
 8    1  0.1060404E+005  0.1043930E+01  0.7957747E-01            NaN
         13   -1    0    0    0    0  0.00000000000E+00  0.00000000000E+00  0.74505805969E-08  0.10566000000E+00  0.10566000000E+00 0. -1.
     999900   -1    0    0    0    0 -0.00000000000E+00 -0.00000000000E+00 -0.74505805969E-08  0.93827000000E+00  0.93827000000E+00 0.  1.
     999902    2    1    2    0    0 -0.20921878718E-01 -0.22681779930E-02 -0.92553289368E-02  0.10209402033E+01  0.10206813253E+01 0.  0.
     999903    2    3    3    0    0 -0.27304386776E-01 -0.97882192135E-01  0.80413982462E-01  0.13120801798E+00  0.20559239599E-01 0.  0.
         14    1    1    2    0    0  0.20921878718E-01  0.22681779930E-02  0.92553289368E-02  0.22989796742E-01  0.00000000000E+00 0. -1.
     999901    1    3    3    0    0  0.63825080580E-02  0.95614014142E-01 -0.89669311399E-01  0.88973218528E+00  0.88000000000E+00 0. -1.
        -11    1    4    4    0    0 -0.13942252753E-01 -0.20531762458E-01  0.14810219957E-01  0.28905767896E-01  0.51100000000E-03 0. -1.
         11    1    4    4    0    0 -0.13362134024E-01 -0.77350429677E-01  0.65603762505E-01  0.10230225009E+00  0.51100000000E-03 0.  1.
</event>
<event>
 8    1  0.1060404E+005  0.1043930E+01  0.7957747E-01            NaN
         13   -1    0    0    0    0  0.00000000000E+00  0.00000000000E+00  0.74505805969E-08  0.10566000000E+00  0.10566000000E+00 0. -1.
     999900   -1    0    0    0    0 -0.00000000000E+00 -0.00000000000E+00 -0.74505805969E-08  0.93827000000E+00  0.93827000000E+00 0.  1.
     999902    2    1    2    0    0  0.40820807945E-02 -0.23322933729E-01 -0.33273736979E-02  0.10200198758E+01  0.10197396006E+01 0.  0.
     999903    2    3    3    0    0 -0.12735657433E+00  0.15973714425E-01  0.33469899273E-02  0.12936568159E+00  0.15793057164E-01 0.  0.
         14    1    1    2    0    0 -0.40820807945E-02  0.23322933729E-01  0.33273736979E-02  0.23910124154E-01  0.00000000000E+00 0. -1.
     999901    1    3    3    0    0  0.13143865512E+00 -0.39296648154E-01 -0.66743636252E-02  0.89065419426E+00  0.88000000000E+00 0. -1.
        -11    1    4    4    0    0 -0.75000645408E-01  0.14451505714E-01 -0.39251051865E-02  0.76482745772E-01  0.51100000000E-03 0. -1.
         11    1    4    4    0    0 -0.52355928919E-01  0.15222087105E-02  0.72720951137E-02  0.52882935818E-01  0.51100000000E-03 0.  1.
</event>
<event>
 8    1  0.1195107E+005  0.1043930E+01  0.7957747E-01            NaN
         13   -1    0    0    0    0  0.00000000000E+00  0.00000000000E+00  0.74505805969E-08  0.10566000000E+00  0.10566000000E+00 0.  1.
     999900   -1    0    0    0    0 -0.00000000000E+00 -0.00000000000E+00 -0.74505805969E-08  0.93827000000E+00  0.93827000000E+00 0.  1.
     999902    2    1    2    0    0  0.24909565490E-01  0.18182123594E-02 -0.82275236961E-03  0.10189406168E+01  0.10186341401E+01 0.  0.
     999903    2    3    3    0    0  0.26490206939E-01 -0.15905440509E-01  0.12440720926E+00  0.12989665303E+00  0.21006490739E-01 0.  0.
         14    1    1    2    0    0 -0.24909565490E-01 -0.18182123594E-02  0.82275236961E-03  0.24989383156E-01  0.00000000000E+00 0.  1.
     999901    1    3    3    0    0 -0.15806414500E-02  0.17723652868E-01 -0.12522996163E+00  0.88904396381E+00  0.88000000000E+00 0.  1.
        -11    1    4    4    0    0  0.58871781214E-02  0.37125940593E-02  0.45161041336E-01  0.45697078642E-01  0.51100000000E-03 0.  1.
         11    1    4    4    0    0  0.20603028818E-01 -0.19618034568E-01  0.79246167920E-01  0.84199574392E-01  0.51100000000E-03 0. -1.
</event>
<event>
 8    1  0.1060404E+005  0.1043930E+01  0.7957747E-01            NaN
         13   -1    0    0    0    0  0.00000000000E+00  0.00000000000E+00  0.74505805969E-08  0.10566000000E+00  0.10566000000E+00 0. -1.
     999900   -1    0    0    0    0 -0.00000000000E+00 -0.00000000000E+00 -0.74505805969E-08  0.93827000000E+00  0.93827000000E+00 0. -1.
     999902    2    1    2    0    0  0.89289162437E-03 -0.59356610771E-02 -0.23012545748E-01  0.10201475151E+01  0.10198702593E+01 0.  0.
     999903    2    3    3    0    0  0.11820820812E+00 -0.49037557751E-01  0.16880484442E-01  0.13042165232E+00  0.18627777659E-01 0.  0.
         14    1    1    2    0    0 -0.89289162437E-03  0.59356610771E-02  0.23012545748E-01  0.23782484935E-01  0.00000000000E+00 0. -1.
     999901    1    3    3    0    0 -0.11731531650E+00  0.43101896674E-01 -0.39893030190E-01  0.88972586275E+00  0.88000000000E+00 0. -1.
        -11    1    4    4    0    0  0.74029264872E-01 -0.38444817465E-01  0.16233442453E-01  0.84983067856E-01  0.51100000000E-03 0.  1.
         11    1    4    4    0    0  0.44178943252E-01 -0.10592740286E-01  0.64704198955E-03  0.45438584462E-01  0.51100000000E-03 0. -1.
</event>
<event>
 8    1  0.1060404E+005  0.1043930E+01  0.7957747E-01            NaN
         13   -1    0    0    0    0  0.00000000000E+00  0.00000000000E+00  0.74505805969E-08  0.10566000000E+00  0.10566000000E+00 0.  1.
     999900   -1    0    0    0    0 -0.00000000000E+00 -0.00000000000E+00 -0.74505805969E-08  0.93827000000E+00  0.93827000000E+00 0.  1.
     999902    2    1    2    0    0 -0.70454170521E-02 -0.18407897323E-01  0.14862884413E-01  0.10192440947E+01  0.10189451068E+01 0.  0.
     999903    2    3    3    0    0  0.86997463754E-01  0.80794913178E-01 -0.40477716791E-01  0.12697292341E+00  0.19679965159E-01 0.  0.
         14    1    1    2    0    0  0.70454170521E-02  0.18407897323E-01 -0.14862884413E-01  0.24685905258E-01  0.00000000000E+00 0. -1.
     999901    1    3    3    0    0 -0.94042880806E-01 -0.99202810502E-01  0.55340601204E-01  0.89227117133E+00  0.88000000000E+00 0. -1.
        -11    1    4    4    0    0  0.35321855841E-01  0.22186511610E-01 -0.86561487013E-02  0.42603577653E-01  0.51100000000E-03 0.  1.
         11    1    4    4    0    0  0.51675607913E-01  0.58608401568E-01 -0.31821568090E-01  0.84369345762E-01  0.51100000000E-03 0. -1.
</event>
<event>
 8    1  0.1060404E+005  0.1043930E+01  0.7957747E-01            NaN
         13   -1    0    0    0    0  0.00000000000E+00  0.00000000000E+00  0.74505805969E-08  0.10566000000E+00  0.10566000000E+00 0. -1.
     999900   -1    0    0    0    0 -0.00000000000E+00 -0.00000000000E+00 -0.74505805969E-08  0.93827000000E+00  0.93827000000E+00 0.  1.
     999902    2    1    2    0    0  0.61844141584E-03  0.13858180243E-01 -0.17103709429E-01  0.10219079995E+01  0.10216706862E+01 0.  0.
     999903    2    3    3    0    0 -0.72464588293E-01  0.28536758478E-01 -0.10729870180E+00  0.13416269451E+00  0.20522038152E-01 0.  0.
         14    1    1    2    0    0 -0.61844141584E-03 -0.13858180243E-01  0.17103709429E-01  0.22022000492E-01  0.00000000000E+00 0. -1.
     999901    1    3    3    0    0  0.73083029709E-01 -0.14678578235E-01  0.90194992373E-01  0.88774530499E+00  0.88000000000E+00 0. -1.
        -11    1    4    4    0    0 -0.59730594968E-01  0.28921232312E-01 -0.98102737151E-01  0.11844234805E+00  0.51100000000E-03 0.  1.
         11    1    4    4    0    0 -0.12733993325E-01 -0.38447383417E-03 -0.91959646506E-02  0.15720346465E-01  0.51100000000E-03 0. -1.
</event>
<event>
 8    1  0.1060404E+005  0.1043930E+01  0.7957747E-01            NaN
         13   -1    0    0    0    0  0.00000000000E+00  0.00000000000E+00  0.74505805969E-08  0.10566000000E+00  0.10566000000E+00 0. -1.
     999900   -1    0    0    0    0 -0.00000000000E+00 -0.00000000000E+00 -0.74505805969E-08  0.93827000000E+00  0.93827000000E+00 0. -1.
     999902    2    1    2    0    0 -0.82382273114E-02 -0.43778411734E-02 -0.21324610155E-01  0.10206539849E+01  0.10203885456E+01 0.  0.
     999903    2    3    3    0    0  0.41976812967E-01  0.11616033633E+00 -0.38500424166E-01  0.13085287726E+00  0.19619282912E-01 0.  0.
         14    1    1    2    0    0  0.82382273114E-02  0.43778411734E-02  0.21324610155E-01  0.23276015141E-01  0.00000000000E+00 0. -1.
     999901    1    3    3    0    0 -0.50215040278E-01 -0.12053817750E+00  0.17175814011E-01  0.88980110760E+00  0.88000000000E+00 0. -1.
        -11    1    4    4    0    0  0.29851591023E-01  0.98688731521E-01 -0.36936998185E-01  0.10952253728E+00  0.51100000000E-03 0. -1.
         11    1    4    4    0    0  0.12125221944E-01  0.17471604808E-01 -0.15634259817E-02  0.21330339977E-01  0.51100000000E-03 0.  1.
</event>
<event>
 8    1  0.1060404E+005  0.1043930E+01  0.7957747E-01            NaN
         13   -1    0    0    0    0  0.00000000000E+00  0.00000000000E+00  0.74505805969E-08  0.10566000000E+00  0.10566000000E+00 0.  1.
     999900   -1    0    0    0    0 -0.00000000000E+00 -0.00000000000E+00 -0.74505805969E-08  0.93827000000E+00  0.93827000000E+00 0.  1.
     999902    2    1    2    0    0  0.30908966758E-02 -0.22476491151E-01  0.92176456734E-02  0.10194409966E+01  0.10191468168E+01 0.  0.
     999903    2    3    3    0    0 -0.10898224056E+00 -0.59783056352E-01 -0.33321489080E-01  0.13053057034E+00  0.21834962205E-01 0.  0.
         14    1    1    2    0    0 -0.30908966758E-02  0.22476491151E-01 -0.92176456734E-02  0.24489003420E-01  0.00000000000E+00 0. -1.
     999901    1    3    3    0    0  0.11207313723E+00  0.37306565200E-01  0.42539134753E-01  0.88891042624E+00  0.88000000000E+00 0. -1.
        -11    1    4    4    0    0 -0.27497916022E-01 -0.59327556266E-02 -0.31848134308E-02  0.28314963049E-01  0.51100000000E-03 0. -1.
         11    1    4    4    0    0 -0.81484324535E-01 -0.53850300725E-01 -0.30136675649E-01  0.10221560729E+00  0.51100000000E-03 0.  1.
</event>
<event>
 8    1  0.1060404E+005  0.1043930E+01  0.7957747E-01            NaN
         13   -1    0    0    0    0  0.00000000000E+00  0.00000000000E+00  0.74505805969E-08  0.10566000000E+00  0.10566000000E+00 0. -1.
     999900   -1    0    0    0    0 -0.00000000000E+00 -0.00000000000E+00 -0.74505805969E-08  0.93827000000E+00  0.93827000000E+00 0.  1.
     999902    2    1    2    0    0 -0.19463023711E-01 -0.15710440791E-02  0.69523257358E-02  0.10232029089E+01  0.10229929523E+01 0.  0.
     999903    2    3    3    0    0 -0.64080067048E-01  0.46589032238E-01  0.10752951428E+00  0.13504422695E+00  0.19938753071E-01 0.  0.
         14    1    1    2    0    0  0.19463023711E-01  0.15710440791E-02 -0.69523257358E-02  0.20727091080E-01  0.00000000000E+00 0.  1.
     999901    1    3    3    0    0  0.44617043337E-01 -0.48160076317E-01 -0.10057718854E+00  0.88815868197E+00  0.88000000000E+00 0.  1.
        -11    1    4    4    0    0 -0.48378787338E-01  0.26178818022E-01  0.63308177474E-01  0.83869088664E-01  0.51100000000E-03 0.  1.
         11    1    4    4    0    0 -0.15701279710E-01  0.20410214216E-01  0.44221336803E-01  0.51175138285E-01  0.51100000000E-03 0. -1.
</event>
<event>
 8    1  0.1060404E+005  0.1043930E+01  0.7957747E-01            NaN
         13   -1    0    0    0    0  0.00000000000E+00  0.00000000000E+00  0.74505805969E-08  0.10566000000E+00  0.10566000000E+00 0.  1.
     999900   -1    0    0    0    0 -0.00000000000E+00 -0.00000000000E+00 -0.74505805969E-08  0.93827000000E+00  0.93827000000E+00 0.  1.
     999902    2    1    2    0    0  0.97129595718E-02 -0.16415019130E-01  0.19014951295E-01  0.10169974396E+01  0.10166407573E+01 0.  0.
     999903    2    3    3    0    0  0.64198722692E-01  0.49075215504E-01 -0.94181988958E-01  0.12566629099E+00  0.19796890519E-01 0.  0.
         14    1    1    2    0    0 -0.97129595718E-02  0.16415019130E-01 -0.19014951295E-01  0.26932560395E-01  0.00000000000E+00 0. -1.
     999901    1    3    3    0    0 -0.54485763120E-01 -0.65490234634E-01  0.11319694025E+00  0.89133114862E+00  0.88000000000E+00 0. -1.
        -11    1    4    4    0    0  0.24730526349E-01  0.31070287412E-01 -0.48075244508E-01  0.62357453034E-01  0.51100000000E-03 0.  1.
         11    1    4    4    0    0  0.39468196343E-01  0.18004928092E-01 -0.46106744450E-01  0.63308837953E-01  0.51100000000E-03 0. -1.
</event>
<event>
 8    1  0.1060404E+005  0.1043930E+01  0.7957747E-01            NaN
         13   -1    0    0    0    0  0.00000000000E+00  0.00000000000E+00  0.74505805969E-08  0.10566000000E+00  0.10566000000E+00 0. -1.
     999900   -1    0    0    0    0 -0.00000000000E+00 -0.00000000000E+00 -0.74505805969E-08  0.93827000000E+00  0.93827000000E+00 0.  1.
     999902    2    1    2    0    0  0.31068405511E-03 -0.39152902109E-02  0.23200586194E-01  0.10203993132E+01  0.10201279651E+01 0.  0.
     999903    2    3    3    0    0 -0.43415785153E-01  0.11281033113E+00 -0.39869732425E-01  0.12938037968E+00  0.23207452942E-01 0.  0.
         14    1    1    2    0    0 -0.31068405511E-03  0.39152902109E-02 -0.23200586194E-01  0.23530686810E-01  0.00000000000E+00 0.  1.
     999901    1    3    3    0    0  0.43726469208E-01 -0.11672562134E+00  0.63070318619E-01  0.89101893351E+00  0.88000000000E+00 0. -1.
        -11    1    4    4    0    0 -0.19059407534E-01  0.22241705759E-01 -0.92850951830E-02  0.30731557139E-01  0.51100000000E-03 0.  1.
         11    1    4    4    0    0 -0.24356377619E-01  0.90568625369E-01 -0.30584637242E-01  0.98648822538E-01  0.51100000000E-03 0. -1.
</event>
<event>
 8    1  0.1060404E+005  0.1043930E+01  0.7957747E-01            NaN
         13   -1    0    0    0    0  0.00000000000E+00  0.00000000000E+00  0.74505805969E-08  0.10566000000E+00  0.10566000000E+00 0.  1.
     999900   -1    0    0    0    0 -0.00000000000E+00 -0.00000000000E+00 -0.74505805969E-08  0.93827000000E+00  0.93827000000E+00 0.  1.
     999902    2    1    2    0    0  0.55231131528E-02 -0.22946028918E-01 -0.21776385598E-02  0.10202283728E+01  0.10199530212E+01 0.  0.
     999903    2    3    3    0    0  0.31829739783E-01  0.11995755511E+00  0.24252736967E-01  0.12792122967E+00  0.19305397932E-01 0.  0.
         14    1    1    2    0    0 -0.55231131528E-02  0.22946028918E-01  0.21776385598E-02  0.23701627195E-01  0.00000000000E+00 0. -1.
     999901    1    3    3    0    0 -0.26306626631E-01 -0.14290358402E+00 -0.26430375527E-01  0.89230714313E+00  0.88000000000E+00 0.  1.
        -11    1    4    4    0    0  0.13667535928E-01  0.60045849083E-01  0.24684701184E-02  0.61633270205E-01  0.51100000000E-03 0.  1.
         11    1    4    4    0    0  0.18162203855E-01  0.59911706023E-01  0.21784266848E-01  0.66287959470E-01  0.51100000000E-03 0. -1.
</event>
<event>
 8    1  0.1060404E+005  0.1043930E+01  0.7957747E-01            NaN
         13   -1    0    0    0    0  0.00000000000E+00  0.00000000000E+00  0.74505805969E-08  0.10566000000E+00  0.10566000000E+00 0.  1.
     999900   -1    0    0    0    0 -0.00000000000E+00 -0.00000000000E+00 -0.74505805969E-08  0.93827000000E+00  0.93827000000E+00 0. -1.
     999902    2    1    2    0    0  0.13395931371E-02 -0.17102785119E-01  0.15691232820E-01  0.10206810311E+01  0.10204162154E+01 0.  0.
     999903    2    3    3    0    0 -0.43798056983E-01 -0.10798581363E-01 -0.11939329946E+00  0.12920754224E+00  0.20123366035E-01 0.  0.
         14    1    1    2    0    0 -0.13395931371E-02  0.17102785119E-01 -0.15691232820E-01  0.23248968924E-01  0.00000000000E+00 0. -1.
     999901    1    3    3    0    0  0.45137650120E-01 -0.63042037562E-02  0.13508453228E+00  0.89147348884E+00  0.88000000000E+00 0.  1.
        -11    1    4    4    0    0 -0.62596224361E-02  0.35886261744E-02 -0.34833882926E-01  0.35576981766E-01  0.51100000000E-03 0. -1.
         11    1    4    4    0    0 -0.37538434547E-01 -0.14387207537E-01 -0.84559416531E-01  0.93630560470E-01  0.51100000000E-03 0.  1.
</event>
<event>
 7    1  0.1060404E+005  0.1043930E+01  0.7957747E-01            NaN
         13   -1    0    0    0    0  0.00000000000E+00  0.00000000000E+00  0.74505805969E-08  0.10566000000E+00  0.10566000000E+00 0.  1.
     999900   -1    0    0    0    0 -0.00000000000E+00 -0.00000000000E+00 -0.74505805969E-08  0.93827000000E+00  0.93827000000E+00 0.  1.
     999903    2    1    2    0    0  0.11205726415E+00 -0.15976028603E-01  0.10478527179E-01  0.11415421901E+00  0.10455728038E-01 0.  0.
         14    1    1    2    0    0 -0.31519750755E-01 -0.30921746680E-01 -0.78696333452E-02  0.44850643634E-01  0.00000000000E+00 0. -1.
     999901    1    1    2    0    0 -0.80537513393E-01  0.46897775283E-01 -0.26088938335E-02  0.88492513735E+00  0.88000000000E+00 0. -1.
        -11    1    3    3    0    0  0.69626258113E-01 -0.12788007574E-01  0.23536569489E-02  0.70831841559E-01  0.51100000000E-03 0. -1.
         11    1    3    3    0    0  0.42431006034E-01 -0.31880210290E-02  0.81248702297E-02  0.43322377456E-01  0.51100000000E-03 0.  1.
</event>
<event>
 8    1  0.1060404E+005  0.1043930E+01  0.7957747E-01            NaN
         13   -1    0    0    0    0  0.00000000000E+00  0.00000000000E+00  0.74505805969E-08  0.10566000000E+00  0.10566000000E+00 0. -1.
     999900   -1    0    0    0    0 -0.00000000000E+00 -0.00000000000E+00 -0.74505805969E-08  0.93827000000E+00  0.93827000000E+00 0.  1.
     999902    2    1    2    0    0 -0.13852079990E-01  0.18642083249E-01  0.29570385458E-02  0.10205173653E+01  0.10202487644E+01 0.  0.
     999903    2    3    3    0    0 -0.47484079910E-01  0.41096323454E-01  0.11502215590E+00  0.13248927177E+00  0.19484997811E-01 0.  0.
         14    1    1    2    0    0  0.13852079990E-01 -0.18642083249E-01 -0.29570385458E-02  0.23412634727E-01  0.00000000000E+00 0.  1.
     999901    1    3    3    0    0  0.33631999920E-01 -0.22454240205E-01 -0.11206511736E+00  0.88802809350E+00  0.88000000000E+00 0.  1.
        -11    1    4    4    0    0 -0.24736220724E-01  0.16065534949E-01  0.71652050597E-01  0.77487157031E-01  0.51100000000E-03 0.  1.
         11    1    4    4    0    0 -0.22747859186E-01  0.25030788505E-01  0.43370105304E-01  0.55002114740E-01  0.51100000000E-03 0. -1.
</event>
<event>
 8    1  0.1060404E+005  0.1043930E+01  0.7957747E-01            NaN
         13   -1    0    0    0    0  0.00000000000E+00  0.00000000000E+00  0.74505805969E-08  0.10566000000E+00  0.10566000000E+00 0. -1.
     999900   -1    0    0    0    0 -0.00000000000E+00 -0.00000000000E+00 -0.74505805969E-08  0.93827000000E+00  0.93827000000E+00 0. -1.
     999902    2    1    2    0    0  0.24165336794E-01  0.70890882160E-02 -0.54541543708E-02  0.10181624531E+01  0.10178363397E+01 0.  0.
     999903    2    3    3    0    0 -0.76673797192E-01 -0.75602803922E-01  0.62224162555E-01  0.12598151037E+00  0.20120621559E-01 0.  0.
         14    1    1    2    0    0 -0.24165336794E-01 -0.70890882160E-02  0.54541543708E-02  0.25767546915E-01  0.00000000000E+00 0. -1.
     999901    1    3    3    0    0  0.10083913399E+00  0.82691892138E-01 -0.67678316926E-01  0.89218094272E+00  0.88000000000E+00 0. -1.
        -11    1    4    4    0    0 -0.67705072220E-01 -0.66882099522E-01  0.61758409817E-01  0.11345287279E+00  0.51100000000E-03 0.  1.
         11    1    4    4    0    0 -0.89687249719E-02 -0.87207043991E-02  0.46575273830E-03  0.12528637574E-01  0.51100000000E-03 0. -1.
</event>
<event>
 8    1  0.1060404E+005  0.1043930E+01  0.7957747E-01            NaN
         13   -1    0    0    0    0  0.00000000000E+00  0.00000000000E+00  0.74505805969E-08  0.10566000000E+00  0.10566000000E+00 0.  1.
     999900   -1    0    0    0    0 -0.00000000000E+00 -0.00000000000E+00 -0.74505805969E-08  0.93827000000E+00  0.93827000000E+00 0.  1.
     999902    2    1    2    0    0  0.78087721705E-02  0.16064322233E-01 -0.13626482176E-01  0.10214640171E+01  0.10212169299E+01 0.  0.
     999903    2    3    3    0    0  0.40068511522E-01 -0.41122565822E-01 -0.11810259766E+00  0.13285482872E+00  0.20140280666E-01 0.  0.
         14    1    1    2    0    0 -0.78087721705E-02 -0.16064322233E-01  0.13626482176E-01  0.22465982910E-01  0.00000000000E+00 0.  1.
     999901    1    3    3    0    0 -0.32259739351E-01  0.57186888055E-01  0.10447611548E+00  0.88860918837E+00  0.88000000000E+00 0. -1.
        -11    1    4    4    0    0  0.55723218871E-02 -0.13253316828E-01 -0.46068927180E-01  0.48262908643E-01  0.51100000000E-03 0. -1.
         11    1    4    4    0    0  0.34496189635E-01 -0.27869248994E-01 -0.72033670479E-01  0.84591920078E-01  0.51100000000E-03 0.  1.
</event>
<event>
 8    1  0.1060404E+005  0.1043930E+01  0.7957747E-01            NaN
         13   -1    0    0    0    0  0.00000000000E+00  0.00000000000E+00  0.74505805969E-08  0.10566000000E+00  0.10566000000E+00 0.  1.
     999900   -1    0    0    0    0 -0.00000000000E+00 -0.00000000000E+00 -0.74505805969E-08  0.93827000000E+00  0.93827000000E+00 0. -1.
     999902    2    1    2    0    0 -0.18573594172E-01  0.13932647265E-01  0.14707343250E-02  0.10206650023E+01  0.10203998171E+01 0.  0.
     999903    2    3    3    0    0  0.37481548315E-01  0.78277815338E-01  0.96693181792E-01  0.13142386840E+00  0.19758009555E-01 0.  0.
         14    1    1    2    0    0  0.18573594172E-01 -0.13932647265E-01 -0.14707343250E-02  0.23264997738E-01  0.00000000000E+00 0. -1.
     999901    1    3    3    0    0 -0.56055142487E-01 -0.64345168073E-01 -0.95222447467E-01  0.88924113386E+00  0.88000000000E+00 0. -1.
        -11    1    4    4    0    0  0.11462146274E-01  0.30990138026E-01  0.23810149021E-01  0.40730256192E-01  0.51100000000E-03 0. -1.
         11    1    4    4    0    0  0.26019402042E-01  0.47287677312E-01  0.72883032771E-01  0.90693612206E-01  0.51100000000E-03 0.  1.
</event>
<event>
 8    1  0.1060404E+005  0.1043930E+01  0.7957747E-01            NaN
         13   -1    0    0    0    0  0.00000000000E+00  0.00000000000E+00  0.74505805969E-08  0.10566000000E+00  0.10566000000E+00 0.  1.
     999900   -1    0    0    0    0 -0.00000000000E+00 -0.00000000000E+00 -0.74505805969E-08  0.93827000000E+00  0.93827000000E+00 0. -1.
     999902    2    1    2    0    0 -0.15028464192E-01 -0.10926044758E-01  0.17100631897E-01  0.10186779743E+01  0.10183649398E+01 0.  0.
     999903    2    3    3    0    0 -0.10856434798E+00 -0.39271188638E-01  0.60912384998E-01  0.13218382405E+00  0.20827884795E-01 0.  0.
         14    1    1    2    0    0  0.15028464192E-01  0.10926044758E-01 -0.17100631897E-01  0.25252025687E-01  0.00000000000E+00 0. -1.
     999901    1    3    3    0    0  0.93535883791E-01  0.28345143880E-01 -0.43811753101E-01  0.88649415026E+00  0.88000000000E+00 0.  1.
        -11    1    4    4    0    0 -0.62447460377E-01 -0.13705505320E-01  0.26459082348E-01  0.69194438673E-01  0.51100000000E-03 0.  1.
         11    1    4    4    0    0 -0.46116887606E-01 -0.25565683317E-01  0.34453302650E-01  0.62989385379E-01  0.51100000000E-03 0. -1.
</event>
<event>
 8    1  0.1060404E+005  0.1043930E+01  0.7957747E-01            NaN
         13   -1    0    0    0    0  0.00000000000E+00  0.00000000000E+00  0.74505805969E-08  0.10566000000E+00  0.10566000000E+00 0.  1.
     999900   -1    0    0    0    0 -0.00000000000E+00 -0.00000000000E+00 -0.74505805969E-08  0.93827000000E+00  0.93827000000E+00 0. -1.
     999902    2    1    2    0    0  0.16706300351E-02 -0.20964574477E-01  0.10153006073E-01  0.10205764581E+01  0.10203092271E+01 0.  0.
     999903    2    3    3    0    0  0.37683533739E-01 -0.10010524959E+00  0.77938506283E-01  0.13369706959E+00  0.18957477315E-01 0.  0.
         14    1    1    2    0    0 -0.16706300351E-02  0.20964574477E-01 -0.10153006073E-01  0.23353541916E-01  0.00000000000E+00 0. -1.
     999901    1    3    3    0    0 -0.36012903704E-01  0.79140675112E-01 -0.67785500210E-01  0.88687938849E+00  0.88000000000E+00 0.  1.
        -11    1    4    4    0    0  0.19912584355E-01 -0.30026834861E-01  0.30664796830E-01  0.47315036860E-01  0.51100000000E-03 0. -1.
         11    1    4    4    0    0  0.17770949384E-01 -0.70078414728E-01  0.47273709452E-01  0.86382032733E-01  0.51100000000E-03 0.  1.
</event>
<event>
 8    1  0.1060404E+005  0.1043930E+01  0.7957747E-01            NaN
         13   -1    0    0    0    0  0.00000000000E+00  0.00000000000E+00  0.74505805969E-08  0.10566000000E+00  0.10566000000E+00 0. -1.
     999900   -1    0    0    0    0 -0.00000000000E+00 -0.00000000000E+00 -0.74505805969E-08  0.93827000000E+00  0.93827000000E+00 0. -1.
     999902    2    1    2    0    0 -0.79880792705E-03  0.22434554313E-01  0.65608475195E-02  0.10205421390E+01  0.10202741129E+01 0.  0.
     999903    2    3    3    0    0 -0.12014820085E+00  0.47074274639E-01 -0.18135732298E-01  0.13180071742E+00  0.19772375336E-01 0.  0.
         14    1    1    2    0    0  0.79880792705E-03 -0.22434554313E-01 -0.65608475195E-02  0.23387860986E-01  0.00000000000E+00 0.  1.
     999901    1    3    3    0    0  0.11934939292E+00 -0.24639720326E-01  0.24696579818E-01  0.88874142160E+00  0.88000000000E+00 0.  1.
        -11    1    4    4    0    0 -0.10449817405E+00  0.47710093930E-01 -0.16040756136E-01  0.11599003587E+00  0.51100000000E-03 0. -1.
         11    1    4    4    0    0 -0.15650026794E-01 -0.63581929142E-03 -0.20949761619E-02  0.15810681546E-01  0.51100000000E-03 0.  1.
</event>
<event>
 8    1  0.1060404E+005  0.1043930E+01  0.7957747E-01            NaN
         13   -1    0    0    0    0  0.00000000000E+00  0.00000000000E+00  0.74505805969E-08  0.10566000000E+00  0.10566000000E+00 0.  1.
     999900   -1    0    0    0    0 -0.00000000000E+00 -0.00000000000E+00 -0.74505805969E-08  0.93827000000E+00  0.93827000000E+00 0. -1.
     999902    2    1    2    0    0  0.96543231691E-02  0.19062380531E-01 -0.76528244825E-02  0.10212331714E+01  0.10209809226E+01 0.  0.
     999903    2    3    3    0    0  0.37400275402E-01  0.72464240093E-01 -0.10443401441E+00  0.13388420101E+00  0.19200760959E-01 0.  0.
         14    1    1    2    0    0 -0.96543231691E-02 -0.19062380531E-01  0.76528244825E-02  0.22696828631E-01  0.00000000000E+00 0.  1.
     999901    1    3    3    0    0 -0.27745952233E-01 -0.53401859562E-01  0.96781189932E-01  0.88734897036E+00  0.88000000000E+00 0.  1.
        -11    1    4    4    0    0  0.16094081357E-01  0.21572390873E-01 -0.22391169347E-01  0.35014469701E-01  0.51100000000E-03 0.  1.
         11    1    4    4    0    0  0.21306194045E-01  0.50891849220E-01 -0.82042845067E-01  0.98869731310E-01  0.51100000000E-03 0. -1.
</event>
<event>
 8    1  0.1060404E+005  0.1043930E+01  0.7957747E-01            NaN
         13   -1    0    0    0    0  0.00000000000E+00  0.00000000000E+00  0.74505805969E-08  0.10566000000E+00  0.10566000000E+00 0.  1.
     999900   -1    0    0    0    0 -0.00000000000E+00 -0.00000000000E+00 -0.74505805969E-08  0.93827000000E+00  0.93827000000E+00 0. -1.
     999902    2    1    2    0    0 -0.14028976188E-01 -0.17117029702E-01 -0.91626283684E-02  0.10199767406E+01  0.10196954411E+01 0.  0.
     999903    2    3    3    0    0  0.88096065046E-01  0.71862201001E-01 -0.56087615401E-01  0.12837773768E+00  0.20246736074E-01 0.  0.
         14    1    1    2    0    0  0.14028976188E-01  0.17117029702E-01  0.91626283684E-02  0.23953259430E-01  0.00000000000E+00 0.  1.
     999901    1    3    3    0    0 -0.10212504123E+00 -0.88979230702E-01  0.46924987033E-01  0.89159900289E+00  0.88000000000E+00 0.  1.
        -11    1    4    4    0    0  0.27795854352E-01  0.13964954402E-01 -0.87933937835E-02  0.32329775221E-01  0.51100000000E-03 0. -1.
         11    1    4    4    0    0  0.60300210694E-01  0.57897246599E-01 -0.47294221618E-01  0.96047962461E-01  0.51100000000E-03 0.  1.
</event>
<event>
 8    1  0.1060404E+005  0.1043930E+01  0.7957747E-01            NaN
         13   -1    0    0    0    0  0.00000000000E+00  0.00000000000E+00  0.74505805969E-08  0.10566000000E+00  0.10566000000E+00 0. -1.
     999900   -1    0    0    0    0 -0.00000000000E+00 -0.00000000000E+00 -0.74505805969E-08  0.93827000000E+00  0.93827000000E+00 0. -1.
     999902    2    1    2    0    0 -0.10819239763E-01  0.20149661993E-01  0.48706518453E-02  0.10205464999E+01  0.10202785749E+01 0.  0.
     999903    2    3    3    0    0 -0.61944379855E-01  0.10831184713E+00  0.43521539667E-01  0.13382205456E+00  0.21110552991E-01 0.  0.
         14    1    1    2    0    0  0.10819239763E-01 -0.20149661993E-01 -0.48706518453E-02  0.23383500099E-01  0.00000000000E+00 0. -1.
     999901    1    3    3    0    0  0.51125140092E-01 -0.88162185135E-01 -0.38650887822E-01  0.88672444534E+00  0.88000000000E+00 0. -1.
        -11    1    4    4    0    0 -0.45415449569E-01  0.94950914960E-01  0.37343219254E-01  0.11168265961E+00  0.51100000000E-03 0.  1.
         11    1    4    4    0    0 -0.16528930286E-01  0.13360932168E-01  0.61783204127E-02  0.22139394953E-01  0.51100000000E-03 0. -1.
</event>
<event>
 8    1  0.1060404E+005  0.1043930E+01  0.7957747E-01            NaN
         13   -1    0    0    0    0  0.00000000000E+00  0.00000000000E+00  0.74505805969E-08  0.10566000000E+00  0.10566000000E+00 0. -1.
     999900   -1    0    0    0    0 -0.00000000000E+00 -0.00000000000E+00 -0.74505805969E-08  0.93827000000E+00  0.93827000000E+00 0. -1.
     999902    2    1    2    0    0  0.12972015794E-01  0.14345433116E-01  0.13558772298E-01  0.10203099883E+01  0.10200365520E+01 0.  0.
     999903    2    3    3    0    0 -0.14599374044E-01 -0.11598118694E+00  0.51890148708E-01  0.12945954979E+00  0.20060160818E-01 0.  0.
         14    1    1    2    0    0 -0.12972015794E-01 -0.14345433116E-01 -0.13558772298E-01  0.23620011669E-01  0.00000000000E+00 0.  1.
     999901    1    3    3    0    0  0.27571389838E-01  0.13032662006E+00 -0.38331376410E-01  0.89085043854E+00  0.88000000000E+00 0. -1.
        -11    1    4    4    0    0 -0.56200469960E-02 -0.10048800430E+00  0.45304619299E-01  0.11037297490E+00  0.51100000000E-03 0. -1.
         11    1    4    4    0    0 -0.89793270484E-02 -0.15493182640E-01  0.65855294095E-02  0.19086574894E-01  0.51100000000E-03 0.  1.
</event>
<event>
 8    1  0.1060404E+005  0.1043930E+01  0.7957747E-01            NaN
         13   -1    0    0    0    0  0.00000000000E+00  0.00000000000E+00  0.74505805969E-08  0.10566000000E+00  0.10566000000E+00 0. -1.
     999900   -1    0    0    0    0 -0.00000000000E+00 -0.00000000000E+00 -0.74505805969E-08  0.93827000000E+00  0.93827000000E+00 0.  1.
     999902    2    1    2    0    0  0.82517245836E-02 -0.15540382811E-01  0.16542686518E-01  0.10197793285E+01  0.10194933172E+01 0.  0.
     999903    2    3    3    0    0 -0.10119893045E+00  0.57959944048E-01 -0.47854669575E-01  0.12763093087E+00  0.19975146438E-01 0.  0.
         14    1    1    2    0    0 -0.82517245836E-02  0.15540382811E-01 -0.16542686518E-01  0.24150671497E-01  0.00000000000E+00 0.  1.
     999901    1    3    3    0    0  0.10945065503E+00 -0.73500326859E-01  0.64397356093E-01  0.89214839764E+00  0.88000000000E+00 0. -1.
        -11    1    4    4    0    0 -0.91340637161E-01  0.44699440487E-01 -0.39353944677E-01  0.10904194633E+00  0.51100000000E-03 0.  1.
         11    1    4    4    0    0 -0.98582932886E-02  0.13260503561E-01 -0.85007248983E-02  0.18588984535E-01  0.51100000000E-03 0. -1.
</event>
<event>
 8    1  0.1060404E+005  0.1043930E+01  0.7957747E-01            NaN
         13   -1    0    0    0    0  0.00000000000E+00  0.00000000000E+00  0.74505805969E-08  0.10566000000E+00  0.10566000000E+00 0. -1.
     999900   -1    0    0    0    0 -0.00000000000E+00 -0.00000000000E+00 -0.74505805969E-08  0.93827000000E+00  0.93827000000E+00 0.  1.
     999902    2    1    2    0    0  0.14447193050E-01 -0.23993338735E-02 -0.14363704680E-01  0.10234167311E+01  0.10232111274E+01 0.  0.
     999903    2    3    3    0    0 -0.33067530102E-01  0.12293407467E+00 -0.33012495283E-01  0.13307191607E+00  0.20299303910E-01 0.  0.
         14    1    1    2    0    0 -0.14447193050E-01  0.23993338735E-02  0.14363704680E-01  0.20513268930E-01  0.00000000000E+00 0. -1.
     999901    1    3    3    0    0  0.47514723152E-01 -0.12533340854E+00  0.18648790603E-01  0.89034481500E+00  0.88000000000E+00 0. -1.
        -11    1    4    4    0    0 -0.21597491837E-01  0.42756515491E-01 -0.13152798126E-01  0.49677243182E-01  0.51100000000E-03 0. -1.
         11    1    4    4    0    0 -0.11470038265E-01  0.80177559177E-01 -0.19859697157E-01  0.83394672885E-01  0.51100000000E-03 0.  1.
</event>
<event>
 8    1  0.1060404E+005  0.1043930E+01  0.7957747E-01            NaN
         13   -1    0    0    0    0  0.00000000000E+00  0.00000000000E+00  0.74505805969E-08  0.10566000000E+00  0.10566000000E+00 0.  1.
     999900   -1    0    0    0    0 -0.00000000000E+00 -0.00000000000E+00 -0.74505805969E-08  0.93827000000E+00  0.93827000000E+00 0. -1.
     999902    2    1    2    0    0 -0.99200282225E-04  0.16811403203E-01 -0.18977547171E-01  0.10185768855E+01  0.10182613079E+01 0.  0.
     999903    2    3    3    0    0 -0.16448581002E-01  0.22299386484E-01 -0.12737765813E+00  0.13175784856E+00  0.19163622138E-01 0.  0.
         14    1    1    2    0    0  0.99200282225E-04 -0.16811403203E-01  0.18977547171E-01  0.25353114503E-01  0.00000000000E+00 0.  1.
     999901    1    3    3    0    0  0.16349380719E-01 -0.54879832813E-02  0.10840011096E+00  0.88681903693E+00  0.88000000000E+00 0.  1.
        -11    1    4    4    0    0 -0.74460335434E-02 -0.76567844039E-03 -0.16166138047E-01  0.17822312402E-01  0.51100000000E-03 0. -1.
         11    1    4    4    0    0 -0.90025474582E-02  0.23065064925E-01 -0.11121152008E+00  0.11393553616E+00  0.51100000000E-03 0.  1.
</event>
<event>
 8    1  0.1060404E+005  0.1043930E+01  0.7957747E-01            NaN
         13   -1    0    0    0    0  0.00000000000E+00  0.00000000000E+00  0.74505805969E-08  0.10566000000E+00  0.10566000000E+00 0. -1.
     999900   -1    0    0    0    0 -0.00000000000E+00 -0.00000000000E+00 -0.74505805969E-08  0.93827000000E+00  0.93827000000E+00 0. -1.
     999902    2    1    2    0    0  0.18605993556E-01 -0.70633428584E-02 -0.12265114371E-01  0.10205525143E+01  0.10202847287E+01 0.  0.
     999903    2    3    3    0    0  0.10543108259E+00 -0.76898818495E-01 -0.20014812776E-01  0.13349239930E+00  0.19760730746E-01 0.  0.
         14    1    1    2    0    0 -0.18605993556E-01  0.70633428584E-02  0.12265114371E-01  0.23377485730E-01  0.00000000000E+00 0. -1.
     999901    1    3    3    0    0 -0.86825089030E-01  0.69835475636E-01  0.77496984050E-02  0.88706011497E+00  0.88000000000E+00 0.  1.
        -11    1    4    4    0    0  0.70146860848E-01 -0.60315789935E-01 -0.19245726704E-01  0.94494633285E-01  0.51100000000E-03 0. -1.
         11    1    4    4    0    0  0.35284221738E-01 -0.16583028560E-01 -0.76908607194E-03  0.38997766016E-01  0.51100000000E-03 0.  1.
</event>
<event>
 8    1  0.1060404E+005  0.1043930E+01  0.7957747E-01            NaN
         13   -1    0    0    0    0  0.00000000000E+00  0.00000000000E+00  0.74505805969E-08  0.10566000000E+00  0.10566000000E+00 0. -1.
     999900   -1    0    0    0    0 -0.00000000000E+00 -0.00000000000E+00 -0.74505805969E-08  0.93827000000E+00  0.93827000000E+00 0.  1.
     999902    2    1    2    0    0  0.21742456685E-01 -0.25419046101E-02 -0.81830227105E-02  0.10205599858E+01  0.10202923733E+01 0.  0.
     999903    2    3    3    0    0 -0.64596771233E-02  0.11296092417E+00 -0.62520397596E-01  0.13090341494E+00  0.20615676333E-01 0.  0.
         14    1    1    2    0    0 -0.21742456685E-01  0.25419046101E-02  0.81830227105E-02  0.23370014173E-01  0.00000000000E+00 0.  1.
     999901    1    3    3    0    0  0.28202133809E-01 -0.11550282878E+00  0.54337374885E-01  0.88965657088E+00  0.88000000000E+00 0.  1.
        -11    1    4    4    0    0 -0.78453754117E-02  0.36766405610E-01 -0.29764789670E-01  0.47953334836E-01  0.51100000000E-03 0.  1.
         11    1    4    4    0    0  0.13856982883E-02  0.76194518559E-01 -0.32755607926E-01  0.82950080107E-01  0.51100000000E-03 0. -1.
</event>
<event>
 8    1  0.1060404E+005  0.1043930E+01  0.7957747E-01            NaN
         13   -1    0    0    0    0  0.00000000000E+00  0.00000000000E+00  0.74505805969E-08  0.10566000000E+00  0.10566000000E+00 0.  1.
     999900   -1    0    0    0    0 -0.00000000000E+00 -0.00000000000E+00 -0.74505805969E-08  0.93827000000E+00  0.93827000000E+00 0.  1.
     999902    2    1    2    0    0  0.88842674122E-02 -0.18815821463E-01  0.11083006596E-01  0.10203546234E+01  0.10200822316E+01 0.  0.
     999903    2    3    3    0    0 -0.38096734919E-01  0.65291771264E-01  0.10412364946E+00  0.13022100259E+00  0.20034932831E-01 0.  0.
         14    1    1    2    0    0 -0.88842674122E-02  0.18815821463E-01 -0.11083006596E-01  0.23575376561E-01  0.00000000000E+00 0. -1.
     999901    1    3    3    0    0  0.46981002331E-01 -0.84107592727E-01 -0.93040642864E-01  0.89013362085E+00  0.88000000000E+00 0.  1.
        -11    1    4    4    0    0 -0.22988385778E-01  0.26943255840E-01  0.61189382344E-01  0.70702238639E-01  0.51100000000E-03 0.  1.
         11    1    4    4    0    0 -0.15108349141E-01  0.38348515424E-01  0.42934267116E-01  0.59518763956E-01  0.51100000000E-03 0. -1.
</event>
<event>
 8    1  0.1060404E+005  0.1043930E+01  0.7957747E-01            NaN
         13   -1    0    0    0    0  0.00000000000E+00  0.00000000000E+00  0.74505805969E-08  0.10566000000E+00  0.10566000000E+00 0.  1.
     999900   -1    0    0    0    0 -0.00000000000E+00 -0.00000000000E+00 -0.74505805969E-08  0.93827000000E+00  0.93827000000E+00 0.  1.
     999902    2    1    2    0    0 -0.12178840314E-01  0.17284012489E-01  0.12213698574E-01  0.10195120625E+01  0.10192196083E+01 0.  0.
     999903    2    3    3    0    0  0.18701529319E-01 -0.88225251257E-01  0.90410097156E-01  0.12923093908E+00  0.19829467684E-01 0.  0.
         14    1    1    2    0    0  0.12178840314E-01 -0.17284012489E-01 -0.12213698574E-01  0.24417937505E-01  0.00000000000E+00 0. -1.
     999901    1    3    3    0    0 -0.30880369633E-01  0.10550926375E+00 -0.78196398582E-01  0.89028112342E+00  0.88000000000E+00 0.  1.
        -11    1    4    4    0    0  0.29891559202E-02 -0.57128987568E-01  0.61052555687E-01  0.83667986414E-01  0.51100000000E-03 0. -1.
         11    1    4    4    0    0  0.15712373399E-01 -0.31096263689E-01  0.29357541469E-01  0.45562952663E-01  0.51100000000E-03 0.  1.
</event>
<event>
 8    1  0.1060404E+005  0.1043930E+01  0.7957747E-01            NaN
         13   -1    0    0    0    0  0.00000000000E+00  0.00000000000E+00  0.74505805969E-08  0.10566000000E+00  0.10566000000E+00 0.  1.
     999900   -1    0    0    0    0 -0.00000000000E+00 -0.00000000000E+00 -0.74505805969E-08  0.93827000000E+00  0.93827000000E+00 0.  1.
     999902    2    1    2    0    0  0.26287865666E-03 -0.24340942248E-01  0.35062917474E-02  0.10193364103E+01  0.10190396816E+01 0.  0.
     999903    2    3    3    0    0  0.11142291392E+00 -0.67637819692E-01  0.28041160189E-02  0.13128705009E+00  0.15442993755E-01 0.  0.
         14    1    1    2    0    0 -0.26287865666E-03  0.24340942248E-01 -0.35062917474E-02  0.24593589745E-01  0.00000000000E+00 0. -1.
     999901    1    3    3    0    0 -0.11116003526E+00  0.43296877444E-01  0.70217572847E-03  0.88804936016E+00  0.88000000000E+00 0. -1.
        -11    1    4    4    0    0  0.61308322323E-01 -0.28211253749E-01  0.12078799861E-02  0.67500409771E-01  0.51100000000E-03 0. -1.
         11    1    4    4    0    0  0.50114591596E-01 -0.39426565944E-01  0.15962360328E-02  0.63786640321E-01  0.51100000000E-03 0.  1.
</event>
<event>
 8    1  0.1060404E+005  0.1043930E+01  0.7957747E-01            NaN
         13   -1    0    0    0    0  0.00000000000E+00  0.00000000000E+00  0.74505805969E-08  0.10566000000E+00  0.10566000000E+00 0. -1.
     999900   -1    0    0    0    0 -0.00000000000E+00 -0.00000000000E+00 -0.74505805969E-08  0.93827000000E+00  0.93827000000E+00 0.  1.
     999902    2    1    2    0    0  0.21522661714E-01  0.84153005382E-02  0.29789587134E-02  0.10206294325E+01  0.10203634265E+01 0.  0.
     999903    2    3    3    0    0  0.33534582956E-01  0.12674561986E+00 -0.64018750631E-02  0.13257856079E+00  0.18629824675E-01 0.  0.
         14    1    1    2    0    0 -0.21522661714E-01 -0.84153005382E-02 -0.29789587134E-02  0.23300567491E-01  0.00000000000E+00 0.  1.
     999901    1    3    3    0    0 -0.12011921242E-01 -0.11833031933E+00  0.93808337764E-02  0.88805087172E+00  0.88000000000E+00 0.  1.
        -11    1    4    4    0    0  0.80935468366E-02  0.25829345175E-01 -0.88273507287E-02  0.28475319392E-01  0.51100000000E-03 0. -1.
         11    1    4    4    0    0  0.25441036119E-01  0.10091627469E+00  0.24254756657E-02  0.10410324140E+00  0.51100000000E-03 0.  1.
</event>
<event>
 8    1  0.1060404E+005  0.1043930E+01  0.7957747E-01            NaN
         13   -1    0    0    0    0  0.00000000000E+00  0.00000000000E+00  0.74505805969E-08  0.10566000000E+00  0.10566000000E+00 0.  1.
     999900   -1    0    0    0    0 -0.00000000000E+00 -0.00000000000E+00 -0.74505805969E-08  0.93827000000E+00  0.93827000000E+00 0. -1.
     999902    2    1    2    0    0  0.35380378804E-02  0.15525439243E-01  0.20166547916E-01  0.10182347353E+01  0.10179104722E+01 0.  0.
     999903    2    3    3    0    0  0.12512354103E+00 -0.42281792204E-02  0.27036225174E-01  0.12962884258E+00  0.19972514538E-01 0.  0.
         14    1    1    2    0    0 -0.35380378804E-02 -0.15525439243E-01 -0.20166547916E-01  0.25695264750E-01  0.00000000000E+00 0. -1.
     999901    1    3    3    0    0 -0.12158550315E+00  0.19753618463E-01 -0.68696772585E-02  0.88860589267E+00  0.88000000000E+00 0. -1.
        -11    1    4    4    0    0  0.65592213385E-01 -0.65419469054E-02  0.23362804674E-01  0.69937238216E-01  0.51100000000E-03 0. -1.
         11    1    4    4    0    0  0.59531327650E-01  0.23137676850E-02  0.36734205000E-02  0.59691604366E-01  0.51100000000E-03 0.  1.
</event>
<event>
 8    1  0.1060404E+005  0.1043930E+01  0.7957747E-01            NaN
         13   -1    0    0    0    0  0.00000000000E+00  0.00000000000E+00  0.74505805969E-08  0.10566000000E+00  0.10566000000E+00 0. -1.
     999900   -1    0    0    0    0 -0.00000000000E+00 -0.00000000000E+00 -0.74505805969E-08  0.93827000000E+00  0.93827000000E+00 0.  1.
     999902    2    1    2    0    0  0.23847681120E-01 -0.28708846801E-02  0.31322678218E-02  0.10197067679E+01  0.10194190147E+01 0.  0.
     999903    2    3    3    0    0 -0.60661175242E-01  0.99326725788E-01 -0.50091123429E-01  0.12818064499E+00  0.19379898486E-01 0.  0.
         14    1    1    2    0    0 -0.23847681120E-01  0.28708846801E-02 -0.31322678218E-02  0.24223232141E-01  0.00000000000E+00 0.  1.
     999901    1    3    3    0    0  0.84508856362E-01 -0.10219761047E+00  0.53223391251E-01  0.89152612287E+00  0.88000000000E+00 0. -1.
        -11    1    4    4    0    0 -0.25693942525E-01  0.27326384849E-01 -0.10940351904E-01  0.39075086847E-01  0.51100000000E-03 0. -1.
         11    1    4    4    0    0 -0.34967232717E-01  0.72000340939E-01 -0.39150771525E-01  0.89105558139E-01  0.51100000000E-03 0.  1.
</event>
<event>
 8    1  0.1060404E+005  0.1043930E+01  0.7957747E-01            NaN
         13   -1    0    0    0    0  0.00000000000E+00  0.00000000000E+00  0.74505805969E-08  0.10566000000E+00  0.10566000000E+00 0.  1.
     999900   -1    0    0    0    0 -0.00000000000E+00 -0.00000000000E+00 -0.74505805969E-08  0.93827000000E+00  0.93827000000E+00 0. -1.
     999902    2    1    2    0    0  0.14329023822E-01  0.18480882578E-01  0.68234608867E-02  0.10195697134E+01  0.10192786552E+01 0.  0.
     999903    2    3    3    0    0 -0.10587972463E-02  0.10974412863E+00 -0.69277366608E-01  0.13144973217E+00  0.20851468622E-01 0.  0.
         14    1    1    2    0    0 -0.14329023822E-01 -0.18480882578E-01 -0.68234608867E-02  0.24360286596E-01  0.00000000000E+00 0. -1.
     999901    1    3    3    0    0  0.15387821068E-01 -0.91263246052E-01  0.76100827495E-01  0.88811998123E+00  0.88000000000E+00 0.  1.
        -11    1    4    4    0    0  0.69569587270E-02  0.58676547316E-01 -0.45345062473E-01  0.74483369227E-01  0.51100000000E-03 0. -1.
         11    1    4    4    0    0 -0.80157559733E-02  0.51067581314E-01 -0.23932304135E-01  0.56966362946E-01  0.51100000000E-03 0.  1.
</event>
<event>
 8    1  0.1060404E+005  0.1043930E+01  0.7957747E-01            NaN
         13   -1    0    0    0    0  0.00000000000E+00  0.00000000000E+00  0.74505805969E-08  0.10566000000E+00  0.10566000000E+00 0. -1.
     999900   -1    0    0    0    0 -0.00000000000E+00 -0.00000000000E+00 -0.74505805969E-08  0.93827000000E+00  0.93827000000E+00 0.  1.
     999902    2    1    2    0    0 -0.16937145786E-01 -0.46666661404E-02 -0.14242958892E-01  0.10213134893E+01  0.10210630425E+01 0.  0.
     999903    2    3    3    0    0 -0.13388243481E-01  0.95851464493E-01 -0.88212162319E-01  0.13250083613E+00  0.20207367128E-01 0.  0.
         14    1    1    2    0    0  0.16937145786E-01  0.46666661404E-02  0.14242958892E-01  0.22616510745E-01  0.00000000000E+00 0. -1.
     999901    1    3    3    0    0 -0.35489023057E-02 -0.10051813063E+00  0.73969203427E-01  0.88881265312E+00  0.88000000000E+00 0. -1.
        -11    1    4    4    0    0 -0.73912887174E-02  0.69334228421E-01 -0.50893878770E-01  0.86326788408E-01  0.51100000000E-03 0. -1.
         11    1    4    4    0    0 -0.59969547632E-02  0.26517236072E-01 -0.37318283549E-01  0.46174047725E-01  0.51100000000E-03 0.  1.
</event>
<event>
 8    1  0.1060404E+005  0.1043930E+01  0.7957747E-01            NaN
         13   -1    0    0    0    0  0.00000000000E+00  0.00000000000E+00  0.74505805969E-08  0.10566000000E+00  0.10566000000E+00 0.  1.
     999900   -1    0    0    0    0 -0.00000000000E+00 -0.00000000000E+00 -0.74505805969E-08  0.93827000000E+00  0.93827000000E+00 0.  1.
     999902    2    1    2    0    0 -0.17296093410E-01 -0.13563247141E-01  0.44668353937E-02  0.10215007972E+01  0.10212545273E+01 0.  0.
     999903    2    3    3    0    0 -0.69143142883E-01 -0.47338037820E-01 -0.10146255676E+00  0.13299087088E+00  0.19242070634E-01 0.  0.
         14    1    1    2    0    0  0.17296093410E-01  0.13563247141E-01 -0.44668353937E-02  0.22429202810E-01  0.00000000000E+00 0. -1.
     999901    1    3    3    0    0  0.51847049474E-01  0.33774790679E-01  0.10592939215E+00  0.88850992631E+00  0.88000000000E+00 0. -1.
        -11    1    4    4    0    0 -0.61613916665E-01 -0.40533729267E-01 -0.97096724905E-01  0.12193150964E+00  0.51100000000E-03 0.  1.
         11    1    4    4    0    0 -0.75292262177E-02 -0.68043085533E-02 -0.43658318519E-02  0.11059361242E-01  0.51100000000E-03 0. -1.
</event>
<event>
 8    1  0.1060404E+005  0.1043930E+01  0.7957747E-01            NaN
         13   -1    0    0    0    0  0.00000000000E+00  0.00000000000E+00  0.74505805969E-08  0.10566000000E+00  0.10566000000E+00 0.  1.
     999900   -1    0    0    0    0 -0.00000000000E+00 -0.00000000000E+00 -0.74505805969E-08  0.93827000000E+00  0.93827000000E+00 0. -1.
     999902    2    1    2    0    0  0.38365501550E-02 -0.17044338163E-02 -0.20151645971E-01  0.10233457087E+01  0.10231386644E+01 0.  0.
     999903    2    3    3    0    0  0.10279190774E+00 -0.54780025649E-01 -0.65395730304E-01  0.13505734991E+00  0.19921313132E-01 0.  0.
         14    1    1    2    0    0 -0.38365501550E-02  0.17044338163E-02  0.20151645971E-01  0.20584291269E-01  0.00000000000E+00 0.  1.
     999901    1    3    3    0    0 -0.98955357585E-01  0.53075591832E-01  0.45244084333E-01  0.88828835882E+00  0.88000000000E+00 0.  1.
        -11    1    4    4    0    0  0.21569903400E-01 -0.20271723413E-01 -0.20781445972E-01  0.36170887748E-01  0.51100000000E-03 0. -1.
         11    1    4    4    0    0  0.81222004340E-01 -0.34508302236E-01 -0.44614284332E-01  0.98886462166E-01  0.51100000000E-03 0.  1.
</event>
<event>
 8    1  0.1060404E+005  0.1043930E+01  0.7957747E-01            NaN
         13   -1    0    0    0    0  0.00000000000E+00  0.00000000000E+00  0.74505805969E-08  0.10566000000E+00  0.10566000000E+00 0. -1.
     999900   -1    0    0    0    0 -0.00000000000E+00 -0.00000000000E+00 -0.74505805969E-08  0.93827000000E+00  0.93827000000E+00 0. -1.
     999902    2    1    2    0    0  0.39632962333E-02 -0.54159793112E-02 -0.23849035448E-01  0.10191546687E+01  0.10188534839E+01 0.  0.
     999903    2    3    3    0    0  0.11140210592E+00  0.24060628066E-01  0.56107836500E-01  0.12853405948E+00  0.19584996884E-01 0.  0.
         14    1    1    2    0    0 -0.39632962333E-02  0.54159793112E-02  0.23849035448E-01  0.24775331294E-01  0.00000000000E+00 0. -1.
     999901    1    3    3    0    0 -0.10743880969E+00 -0.29476607377E-01 -0.79956871948E-01  0.89062060923E+00  0.88000000000E+00 0. -1.
        -11    1    4    4    0    0  0.74402834899E-01  0.81239373574E-02  0.30671138878E-01  0.80887329541E-01  0.51100000000E-03 0.  1.
         11    1    4    4    0    0  0.36999271021E-01  0.15936690708E-01  0.25436697621E-01  0.47646729937E-01  0.51100000000E-03 0. -1.
</event>
<event>
 8    1  0.1060404E+005  0.1043930E+01  0.7957747E-01            NaN
         13   -1    0    0    0    0  0.00000000000E+00  0.00000000000E+00  0.74505805969E-08  0.10566000000E+00  0.10566000000E+00 0. -1.
     999900   -1    0    0    0    0 -0.00000000000E+00 -0.00000000000E+00 -0.74505805969E-08  0.93827000000E+00  0.93827000000E+00 0. -1.
     999902    2    1    2    0    0  0.16702166822E-01  0.72812780472E-02 -0.15462917067E-01  0.10200326949E+01  0.10197527237E+01 0.  0.
     999903    2    3    3    0    0  0.16429086335E-01 -0.11383608682E+00 -0.58638186226E-01  0.13068822030E+00  0.20307744847E-01 0.  0.
         14    1    1    2    0    0 -0.16702166822E-01 -0.72812780472E-02  0.15462917067E-01  0.23897305094E-01  0.00000000000E+00 0. -1.
     999901    1    3    3    0    0  0.27308048641E-03  0.12111736487E+00  0.43175269160E-01  0.88934447461E+00  0.88000000000E+00 0.  1.
        -11    1    4    4    0    0  0.88262783177E-02 -0.88803764832E-01 -0.53410885679E-01  0.10400478675E+00  0.51100000000E-03 0.  1.
         11    1    4    4    0    0  0.76028080174E-02 -0.25032321989E-01 -0.52273005473E-02  0.26683433548E-01  0.51100000000E-03 0. -1.
</event>
<event>
 8    1  0.1060404E+005  0.1043930E+01  0.7957747E-01            NaN
         13   -1    0    0    0    0  0.00000000000E+00  0.00000000000E+00  0.74505805969E-08  0.10566000000E+00  0.10566000000E+00 0.  1.
     999900   -1    0    0    0    0 -0.00000000000E+00 -0.00000000000E+00 -0.74505805969E-08  0.93827000000E+00  0.93827000000E+00 0.  1.
     999902    2    1    2    0    0  0.44978828828E-02  0.17551091132E-01 -0.16081795747E-01  0.10197040655E+01  0.10194162473E+01 0.  0.
     999903    2    3    3    0    0  0.22094069921E-01 -0.68604472211E-01 -0.10696688235E+00  0.13066384934E+00  0.20890334394E-01 0.  0.
         14    1    1    2    0    0 -0.44978828828E-02 -0.17551091132E-01  0.16081795747E-01  0.24225934550E-01  0.00000000000E+00 0.  1.
     999901    1    3    3    0    0 -0.17596187039E-01  0.86155563344E-01  0.90885086606E-01  0.88904021611E+00  0.88000000000E+00 0. -1.
        -11    1    4    4    0    0  0.18489392251E-01 -0.60006639723E-01 -0.77456978590E-01  0.99712080963E-01  0.51100000000E-03 0.  1.
         11    1    4    4    0    0  0.36046776702E-02 -0.85978324886E-02 -0.29509903763E-01  0.30951768378E-01  0.51100000000E-03 0. -1.
</event>
<event>
 8    1  0.1060404E+005  0.1043930E+01  0.7957747E-01            NaN
         13   -1    0    0    0    0  0.00000000000E+00  0.00000000000E+00  0.74505805969E-08  0.10566000000E+00  0.10566000000E+00 0.  1.
     999900   -1    0    0    0    0 -0.00000000000E+00 -0.00000000000E+00 -0.74505805969E-08  0.93827000000E+00  0.93827000000E+00 0.  1.
     999902    2    1    2    0    0  0.15829738226E-01 -0.18130012335E-01 -0.35525536120E-02  0.10196010338E+01  0.10193107326E+01 0.  0.
     999903    2    3    3    0    0  0.11424224621E+00 -0.61054023108E-01 -0.21481304711E-01  0.13289424316E+00  0.20507287882E-01 0.  0.
         14    1    1    2    0    0 -0.15829738226E-01  0.18130012335E-01  0.35525536120E-02  0.24328966208E-01  0.00000000000E+00 0. -1.
     999901    1    3    3    0    0 -0.98412507989E-01  0.42924010773E-01  0.17928751099E-01  0.88670679063E+00  0.88000000000E+00 0.  1.
        -11    1    4    4    0    0  0.93753085398E-01 -0.44687715356E-01 -0.23837280625E-01  0.10656035845E+00  0.51100000000E-03 0.  1.
         11    1    4    4    0    0  0.20489160817E-01 -0.16366307752E-01  0.23559759138E-02  0.26333884710E-01  0.51100000000E-03 0. -1.
</event>
<event>
 8    1  0.1060404E+005  0.1043930E+01  0.7957747E-01            NaN
         13   -1    0    0    0    0  0.00000000000E+00  0.00000000000E+00  0.74505805969E-08  0.10566000000E+00  0.10566000000E+00 0.  1.
     999900   -1    0    0    0    0 -0.00000000000E+00 -0.00000000000E+00 -0.74505805969E-08  0.93827000000E+00  0.93827000000E+00 0. -1.
     999902    2    1    2    0    0 -0.24111430161E-01  0.39136409449E-02  0.48491032318E-02  0.10190263567E+01  0.10187220053E+01 0.  0.
     999903    2    3    3    0    0 -0.76714335844E-01  0.67446597523E-01 -0.79618545890E-01  0.13114219416E+00  0.20616241117E-01 0.  0.
         14    1    1    2    0    0  0.24111430161E-01 -0.39136409449E-02 -0.48491032318E-02  0.24903643348E-01  0.00000000000E+00 0.  1.
     999901    1    3    3    0    0  0.52602905682E-01 -0.63532956578E-01  0.84467649121E-01  0.88788416249E+00  0.88000000000E+00 0.  1.
        -11    1    4    4    0    0 -0.17528147153E-01  0.92669413282E-02 -0.75435950193E-02  0.21219780654E-01  0.51100000000E-03 0. -1.
         11    1    4    4    0    0 -0.59186188691E-01  0.58179656195E-01 -0.72074950870E-01  0.10992241350E+00  0.51100000000E-03 0.  1.
</event>
<event>
 8    1  0.1060404E+005  0.1043930E+01  0.7957747E-01            NaN
         13   -1    0    0    0    0  0.00000000000E+00  0.00000000000E+00  0.74505805969E-08  0.10566000000E+00  0.10566000000E+00 0. -1.
     999900   -1    0    0    0    0 -0.00000000000E+00 -0.00000000000E+00 -0.74505805969E-08  0.93827000000E+00  0.93827000000E+00 0. -1.
     999902    2    1    2    0    0  0.57773774033E-02  0.45350986465E-02 -0.22210032469E-01  0.10205370363E+01  0.10202688918E+01 0.  0.
     999903    2    3    3    0    0  0.12484939649E+00 -0.33608501572E-01 -0.13521122153E-01  0.13165651724E+00  0.20825815815E-01 0.  0.
         14    1    1    2    0    0 -0.57773774033E-02 -0.45350986465E-02  0.22210032469E-01  0.23392963721E-01  0.00000000000E+00 0. -1.
     999901    1    3    3    0    0 -0.11907201909E+00  0.38143600218E-01 -0.86889103160E-02  0.88888051904E+00  0.88000000000E+00 0. -1.
        -11    1    4    4    0    0  0.10972652667E+00 -0.36274119023E-01 -0.11059347433E-01  0.11609604926E+00  0.51100000000E-03 0. -1.
         11    1    4    4    0    0  0.15122869820E-01  0.26656174513E-02 -0.24617747197E-02  0.15560467980E-01  0.51100000000E-03 0.  1.
</event>
<event>
 8    1  0.1060404E+005  0.1043930E+01  0.7957747E-01            NaN
         13   -1    0    0    0    0  0.00000000000E+00  0.00000000000E+00  0.74505805969E-08  0.10566000000E+00  0.10566000000E+00 0.  1.
     999900   -1    0    0    0    0 -0.00000000000E+00 -0.00000000000E+00 -0.74505805969E-08  0.93827000000E+00  0.93827000000E+00 0. -1.
     999902    2    1    2    0    0 -0.87262474363E-02  0.19150958533E-01  0.11427318243E-01  0.10199823444E+01  0.10197011781E+01 0.  0.
     999903    2    3    3    0    0  0.63121715643E-01 -0.72276972228E-01  0.85799108059E-01  0.12922291590E+00  0.11347393961E-01 0.  0.
         14    1    1    2    0    0  0.87262474363E-02 -0.19150958533E-01 -0.11427318243E-01  0.23947655611E-01  0.00000000000E+00 0. -1.
     999901    1    3    3    0    0 -0.71847963079E-01  0.91427930761E-01 -0.74371789816E-01  0.89075942849E+00  0.88000000000E+00 0. -1.
        -11    1    4    4    0    0  0.21710818832E-01 -0.18261672982E-01  0.29001633695E-01  0.40573442452E-01  0.51100000000E-03 0.  1.
         11    1    4    4    0    0  0.41410896811E-01 -0.54015299247E-01  0.56797474364E-01  0.88649473447E-01  0.51100000000E-03 0. -1.
</event>
<event>
 8    1  0.1060404E+005  0.1043930E+01  0.7957747E-01            NaN
         13   -1    0    0    0    0  0.00000000000E+00  0.00000000000E+00  0.74505805969E-08  0.10566000000E+00  0.10566000000E+00 0.  1.
     999900   -1    0    0    0    0 -0.00000000000E+00 -0.00000000000E+00 -0.74505805969E-08  0.93827000000E+00  0.93827000000E+00 0. -1.
     999902    2    1    2    0    0  0.86584394919E-02  0.22971686298E-01 -0.82110268690E-03  0.10193669962E+01  0.10190710141E+01 0.  0.
     999903    2    3    3    0    0 -0.61385060833E-01  0.87503151223E-01 -0.72312945544E-01  0.13134588976E+00  0.24446952680E-01 0.  0.
         14    1    1    2    0    0 -0.86584394919E-02 -0.22971686298E-01  0.82110268690E-03  0.24563003795E-01  0.00000000000E+00 0. -1.
     999901    1    3    3    0    0  0.70043500325E-01 -0.64531464925E-01  0.71491842857E-01  0.88802110645E+00  0.88000000000E+00 0.  1.
        -11    1    4    4    0    0 -0.60421462242E-01  0.80249550183E-01 -0.72698984335E-01  0.12400059213E+00  0.51100000000E-03 0. -1.
         11    1    4    4    0    0 -0.96359859059E-03  0.72536010394E-02  0.38603879116E-03  0.73452976271E-02  0.51100000000E-03 0.  1.
</event>
<event>
 8    1  0.1060404E+005  0.1043930E+01  0.7957747E-01            NaN
         13   -1    0    0    0    0  0.00000000000E+00  0.00000000000E+00  0.74505805969E-08  0.10566000000E+00  0.10566000000E+00 0. -1.
     999900   -1    0    0    0    0 -0.00000000000E+00 -0.00000000000E+00 -0.74505805969E-08  0.93827000000E+00  0.93827000000E+00 0. -1.
     999902    2    1    2    0    0  0.14786173395E-01  0.98735600087E-02  0.15223975810E-01  0.10205230021E+01  0.10202545321E+01 0.  0.
     999903    2    3    3    0    0  0.81828175407E-01 -0.85286713263E-01 -0.51285510775E-01  0.13036929659E+00  0.19906685506E-01 0.  0.
         14    1    1    2    0    0 -0.14786173395E-01 -0.98735600087E-02 -0.15223975810E-01  0.23406997893E-01  0.00000000000E+00 0.  1.
     999901    1    3    3    0    0 -0.67042002012E-01  0.95160273271E-01  0.66509486585E-01  0.89015370552E+00  0.88000000000E+00 0. -1.
        -11    1    4    4    0    0  0.32524040137E-01 -0.26071652441E-01 -0.26623138726E-01  0.49463086079E-01  0.51100000000E-03 0.  1.
         11    1    4    4    0    0  0.49304135270E-01 -0.59215060822E-01 -0.24662372049E-01  0.80906210509E-01  0.51100000000E-03 0. -1.
</event>
<event>
 8    1  0.1060404E+005  0.1043930E+01  0.7957747E-01            NaN
         13   -1    0    0    0    0  0.00000000000E+00  0.00000000000E+00  0.74505805969E-08  0.10566000000E+00  0.10566000000E+00 0. -1.
     999900   -1    0    0    0    0 -0.00000000000E+00 -0.00000000000E+00 -0.74505805969E-08  0.93827000000E+00  0.93827000000E+00 0. -1.
     999902    2    1    2    0    0  0.14499583239E-01  0.11239595312E-01 -0.14219231599E-01  0.10207189474E+01  0.10204550047E+01 0.  0.
     999903    2    3    3    0    0  0.16325637059E-01 -0.12708853204E+00  0.10634156590E-02  0.12978036105E+00  0.20586156970E-01 0.  0.
         14    1    1    2    0    0 -0.14499583239E-01 -0.11239595312E-01  0.14219231599E-01  0.23211052629E-01  0.00000000000E+00 0. -1.
     999901    1    3    3    0    0 -0.18260538194E-02  0.13832812736E+00 -0.15282647258E-01  0.89093858632E+00  0.88000000000E+00 0. -1.
        -11    1    4    4    0    0  0.21007038055E-01 -0.11213429909E+00  0.15010887410E-02  0.11409606070E+00  0.51100000000E-03 0.  1.
         11    1    4    4    0    0 -0.46814009967E-02 -0.14954232958E-01 -0.43767308203E-03  0.15684300347E-01  0.51100000000E-03 0. -1.
</event>
<event>
 8    1  0.1060404E+005  0.1043930E+01  0.7957747E-01            NaN
         13   -1    0    0    0    0  0.00000000000E+00  0.00000000000E+00  0.74505805969E-08  0.10566000000E+00  0.10566000000E+00 0.  1.
     999900   -1    0    0    0    0 -0.00000000000E+00 -0.00000000000E+00 -0.74505805969E-08  0.93827000000E+00  0.93827000000E+00 0. -1.
     999902    2    1    2    0    0  0.16588490184E-01  0.11174805323E-01 -0.13238248797E-01  0.10199444729E+01  0.10196624060E+01 0.  0.
     999903    2    3    3    0    0 -0.68179413212E-01  0.92539330073E-01  0.56164346198E-01  0.12942636327E+00  0.19616057925E-01 0.  0.
         14    1    1    2    0    0 -0.16588490184E-01 -0.11174805323E-01  0.13238248797E-01  0.23985527132E-01  0.00000000000E+00 0.  1.
     999901    1    3    3    0    0  0.84767903397E-01 -0.81364524750E-01 -0.69402594994E-01  0.89051810960E+00  0.88000000000E+00 0. -1.
        -11    1    4    4    0    0 -0.56681603526E-01  0.72143080303E-01  0.36125649561E-01  0.98604015593E-01  0.51100000000E-03 0.  1.
         11    1    4    4    0    0 -0.11497809686E-01  0.20396249770E-01  0.20038696637E-01  0.30822347675E-01  0.51100000000E-03 0. -1.
</event>
<event>
 8    1  0.1060404E+005  0.1043930E+01  0.7957747E-01            NaN
         13   -1    0    0    0    0  0.00000000000E+00  0.00000000000E+00  0.74505805969E-08  0.10566000000E+00  0.10566000000E+00 0. -1.
     999900   -1    0    0    0    0 -0.00000000000E+00 -0.00000000000E+00 -0.74505805969E-08  0.93827000000E+00  0.93827000000E+00 0.  1.
     999902    2    1    2    0    0  0.77622693114E-02 -0.33207482981E-02 -0.24102483649E-01  0.10183915993E+01  0.10180713332E+01 0.  0.
     999903    2    3    3    0    0 -0.37248291818E-01  0.11275005650E+00 -0.46872357360E-01  0.12933769230E+00  0.20765603277E-01 0.  0.
         14    1    1    2    0    0 -0.77622693114E-02  0.33207482981E-02  0.24102483649E-01  0.25538400736E-01  0.00000000000E+00 0. -1.
     999901    1    3    3    0    0  0.45010561130E-01 -0.11607080480E+00  0.22769873711E-01  0.88905390696E+00  0.88000000000E+00 0. -1.
        -11    1    4    4    0    0 -0.33182698224E-01  0.69248250417E-01 -0.27883493745E-01  0.81695544504E-01  0.51100000000E-03 0.  1.
         11    1    4    4    0    0 -0.40655935938E-02  0.43501806088E-01 -0.18988863615E-01  0.47642147795E-01  0.51100000000E-03 0. -1.
</event>
<event>
 8    1  0.1060404E+005  0.1043930E+01  0.7957747E-01            NaN
         13   -1    0    0    0    0  0.00000000000E+00  0.00000000000E+00  0.74505805969E-08  0.10566000000E+00  0.10566000000E+00 0. -1.
     999900   -1    0    0    0    0 -0.00000000000E+00 -0.00000000000E+00 -0.74505805969E-08  0.93827000000E+00  0.93827000000E+00 0.  1.
     999902    2    1    2    0    0 -0.10929058752E-01  0.12628939376E-01  0.16202229302E-01  0.10206609934E+01  0.10203957158E+01 0.  0.
     999903    2    3    3    0    0 -0.10173269849E+00  0.50037604836E-01  0.67436146157E-01  0.13371701348E+00  0.21892967954E-01 0.  0.
         14    1    1    2    0    0  0.10929058752E-01 -0.12628939376E-01 -0.16202229302E-01  0.23269006624E-01  0.00000000000E+00 0.  1.
     999901    1    3    3    0    0  0.90803639735E-01 -0.37408665461E-01 -0.51233916856E-01  0.88694397990E+00  0.88000000000E+00 0.  1.
        -11    1    4    4    0    0 -0.45916154945E-01  0.26796300764E-01  0.19765723574E-01  0.56721071649E-01  0.51100000000E-03 0. -1.
         11    1    4    4    0    0 -0.55816543541E-01  0.23241304072E-01  0.47670422584E-01  0.76995941829E-01  0.51100000000E-03 0.  1.
</event>
<event>
 8    1  0.1060404E+005  0.1043930E+01  0.7957747E-01            NaN
         13   -1    0    0    0    0  0.00000000000E+00  0.00000000000E+00  0.74505805969E-08  0.10566000000E+00  0.10566000000E+00 0. -1.
     999900   -1    0    0    0    0 -0.00000000000E+00 -0.00000000000E+00 -0.74505805969E-08  0.93827000000E+00  0.93827000000E+00 0.  1.
     999902    2    1    2    0    0  0.69848738786E-02  0.36359943293E-02 -0.21013031907E-01  0.10214899370E+01  0.10212434259E+01 0.  0.
     999903    2    3    3    0    0  0.12831327853E-03 -0.19300668699E-01  0.12612070592E+00  0.12895341688E+00  0.18708794351E-01 0.  0.
         14    1    1    2    0    0 -0.69848738786E-02 -0.36359943293E-02  0.21013031907E-01  0.22440063008E-01  0.00000000000E+00 0. -1.
     999901    1    3    3    0    0  0.68565606001E-02  0.22936663028E-01 -0.14713373783E+00  0.89253652012E+00  0.88000000000E+00 0.  1.
        -11    1    4    4    0    0 -0.38585085035E-02  0.24420895242E-02  0.27794104741E-01  0.28171355460E-01  0.51100000000E-03 0. -1.
         11    1    4    4    0    0  0.39868217820E-02 -0.21742758223E-01  0.98326601178E-01  0.10078206142E+00  0.51100000000E-03 0.  1.
</event>
<event>
 8    1  0.1060404E+005  0.1043930E+01  0.7957747E-01            NaN
         13   -1    0    0    0    0  0.00000000000E+00  0.00000000000E+00  0.74505805969E-08  0.10566000000E+00  0.10566000000E+00 0.  1.
     999900   -1    0    0    0    0 -0.00000000000E+00 -0.00000000000E+00 -0.74505805969E-08  0.93827000000E+00  0.93827000000E+00 0. -1.
     999902    2    1    2    0    0 -0.23435057667E-01 -0.40442895580E-03  0.19429077756E-01  0.10134857140E+01  0.10130283500E+01 0.  0.
     999903    2    3    3    0    0  0.49747339677E-01 -0.10002311947E+00 -0.46191166853E-01  0.12242703839E+00  0.19373528355E-01 0.  0.
         14    1    1    2    0    0  0.23435057667E-01  0.40442895580E-03 -0.19429077756E-01  0.30444286050E-01  0.00000000000E+00 0. -1.
     999901    1    3    3    0    0 -0.73182397343E-01  0.99618690516E-01  0.65620244609E-01  0.89105867556E+00  0.88000000000E+00 0. -1.
        -11    1    4    4    0    0  0.10418937632E-01 -0.41977570107E-01 -0.16899047096E-01  0.46438233894E-01  0.51100000000E-03 0.  1.
         11    1    4    4    0    0  0.39328402045E-01 -0.58045549365E-01 -0.29292119757E-01  0.75988804500E-01  0.51100000000E-03 0. -1.
</event>
<event>
 8    1  0.1099859E+005  0.1043930E+01  0.7957747E-01            NaN
         13   -1    0    0    0    0  0.00000000000E+00  0.00000000000E+00  0.74505805969E-08  0.10566000000E+00  0.10566000000E+00 0.  1.
     999900   -1    0    0    0    0 -0.00000000000E+00 -0.00000000000E+00 -0.74505805969E-08  0.93827000000E+00  0.93827000000E+00 0.  1.
     999902    2    1    2    0    0 -0.14151446501E-01 -0.12168134579E-01 -0.14334016923E-01  0.10203972361E+01  0.10201258395E+01 0.  0.
     999903    2    3    3    0    0 -0.25441949132E-01  0.74882811823E-01 -0.10317189336E+00  0.13157919450E+00  0.20344939501E-01 0.  0.
         14    1    1    2    0    0  0.14151446501E-01  0.12168134579E-01  0.14334016923E-01  0.23532763934E-01  0.00000000000E+00 0.  1.
     999901    1    3    3    0    0  0.11290502631E-01 -0.87050946402E-01  0.88837876441E-01  0.88881804156E+00  0.88000000000E+00 0. -1.
        -11    1    4    4    0    0 -0.16908406820E-01  0.20852113708E-01 -0.30833386613E-01  0.40885984375E-01  0.51100000000E-03 0. -1.
         11    1    4    4    0    0 -0.85335423126E-02  0.54030698115E-01 -0.72338506752E-01  0.90693210128E-01  0.51100000000E-03 0.  1.
</event>
<event>
 8    1  0.1060404E+005  0.1043930E+01  0.7957747E-01            NaN
         13   -1    0    0    0    0  0.00000000000E+00  0.00000000000E+00  0.74505805969E-08  0.10566000000E+00  0.10566000000E+00 0. -1.
     999900   -1    0    0    0    0 -0.00000000000E+00 -0.00000000000E+00 -0.74505805969E-08  0.93827000000E+00  0.93827000000E+00 0. -1.
     999902    2    1    2    0    0 -0.19864455936E-01 -0.12371163792E-01 -0.17039012216E-02  0.10204662922E+01  0.10201965046E+01 0.  0.
     999903    2    3    3    0    0 -0.43433459693E-01  0.10234219808E+00  0.64606888882E-01  0.13023498845E+00  0.20656989051E-01 0.  0.
         14    1    1    2    0    0  0.19864455936E-01  0.12371163792E-01  0.17039012216E-02  0.23463707776E-01  0.00000000000E+00 0.  1.
     999901    1    3    3    0    0  0.23569003757E-01 -0.11471336188E+00 -0.66310790103E-01  0.89023130377E+00  0.88000000000E+00 0. -1.
        -11    1    4    4    0    0 -0.28387040285E-01  0.84150694138E-01  0.56541384846E-01  0.10528225255E+00  0.51100000000E-03 0. -1.
         11    1    4    4    0    0 -0.15046419408E-01  0.18191503947E-01  0.80655040357E-02  0.24952735906E-01  0.51100000000E-03 0.  1.
</event>
<event>
 8    1  0.1060404E+005  0.1043930E+01  0.7957747E-01            NaN
         13   -1    0    0    0    0  0.00000000000E+00  0.00000000000E+00  0.74505805969E-08  0.10566000000E+00  0.10566000000E+00 0.  1.
     999900   -1    0    0    0    0 -0.00000000000E+00 -0.00000000000E+00 -0.74505805969E-08  0.93827000000E+00  0.93827000000E+00 0. -1.
     999902    2    1    2    0    0 -0.36625525194E-02  0.15995724023E-01 -0.18358042319E-01  0.10193069377E+01  0.10190094887E+01 0.  0.
     999903    2    3    3    0    0  0.79351843676E-01 -0.84831563328E-02 -0.10180019237E+00  0.13113285684E+00  0.21537593615E-01 0.  0.
         14    1    1    2    0    0  0.36625525194E-02 -0.15995724023E-01  0.18358042319E-01  0.24623062275E-01  0.00000000000E+00 0. -1.
     999901    1    3    3    0    0 -0.83014396196E-01  0.24478880356E-01  0.83442150052E-01  0.88817408089E+00  0.88000000000E+00 0. -1.
        -11    1    4    4    0    0  0.41665239699E-01 -0.14987059143E-01 -0.50937924680E-01  0.67494721517E-01  0.51100000000E-03 0.  1.
         11    1    4    4    0    0  0.37686603977E-01  0.65039028101E-02 -0.50862267691E-01  0.63638135318E-01  0.51100000000E-03 0. -1.
</event>
<event>
 8    1  0.1060404E+005  0.1043930E+01  0.7957747E-01            NaN
         13   -1    0    0    0    0  0.00000000000E+00  0.00000000000E+00  0.74505805969E-08  0.10566000000E+00  0.10566000000E+00 0.  1.
     999900   -1    0    0    0    0 -0.00000000000E+00 -0.00000000000E+00 -0.74505805969E-08  0.93827000000E+00  0.93827000000E+00 0. -1.
     999902    2    1    2    0    0 -0.14539455564E-01  0.72014501759E-02 -0.20827247370E-01  0.10175286575E+01  0.10171860882E+01 0.  0.
     999903    2    3    3    0    0 -0.33636980525E-01 -0.80166721799E-01 -0.94496794115E-01  0.12993352736E+00  0.19872787706E-01 0.  0.
         14    1    1    2    0    0  0.14539455564E-01 -0.72014501759E-02  0.20827247370E-01  0.26401342499E-01  0.00000000000E+00 0.  1.
     999901    1    3    3    0    0  0.19097524961E-01  0.87368171975E-01  0.73669546744E-01  0.88759513014E+00  0.88000000000E+00 0.  1.
        -11    1    4    4    0    0 -0.27851512310E-01 -0.43345240531E-01 -0.48860462985E-01  0.71007905044E-01  0.51100000000E-03 0.  1.
         11    1    4    4    0    0 -0.57854682149E-02 -0.36821481268E-01 -0.45636331130E-01  0.58925622315E-01  0.51100000000E-03 0. -1.
</event>
<event>
 8    1  0.1060404E+005  0.1043930E+01  0.7957747E-01            NaN
         13   -1    0    0    0    0  0.00000000000E+00  0.00000000000E+00  0.74505805969E-08  0.10566000000E+00  0.10566000000E+00 0.  1.
     999900   -1    0    0    0    0 -0.00000000000E+00 -0.00000000000E+00 -0.74505805969E-08  0.93827000000E+00  0.93827000000E+00 0.  1.
     999902    2    1    2    0    0 -0.10320792269E-01  0.12863551474E-01  0.18342895051E-01  0.10192631901E+01  0.10189646703E+01 0.  0.
     999903    2    3    3    0    0  0.71026958927E-01  0.10606418773E+00  0.19925850694E-01  0.13060897113E+00  0.19163063454E-01 0.  0.
         14    1    1    2    0    0  0.10320792269E-01 -0.12863551474E-01 -0.18342895051E-01  0.24666809856E-01  0.00000000000E+00 0. -1.
     999901    1    3    3    0    0 -0.81347751196E-01 -0.93200636254E-01 -0.15829556422E-02  0.88865421901E+00  0.88000000000E+00 0.  1.
        -11    1    4    4    0    0  0.45828962805E-01  0.80847863001E-01  0.92575060763E-02  0.93395039073E-01  0.51100000000E-03 0.  1.
         11    1    4    4    0    0  0.25197996122E-01  0.25216324727E-01  0.10668344617E-01  0.37213932058E-01  0.51100000000E-03 0. -1.
</event>
<event>
 8    1  0.1060404E+005  0.1043930E+01  0.7957747E-01            NaN
         13   -1    0    0    0    0  0.00000000000E+00  0.00000000000E+00  0.74505805969E-08  0.10566000000E+00  0.10566000000E+00 0.  1.
     999900   -1    0    0    0    0 -0.00000000000E+00 -0.00000000000E+00 -0.74505805969E-08  0.93827000000E+00  0.93827000000E+00 0. -1.
     999902    2    1    2    0    0 -0.21017267864E-01  0.77186844119E-02  0.72228153242E-02  0.10204039995E+01  0.10201327607E+01 0.  0.
     999903    2    3    3    0    0 -0.88838493941E-01  0.57379394121E-01 -0.77406170718E-01  0.13235672033E+00  0.18490897100E-01 0.  0.
         14    1    1    2    0    0  0.21017267864E-01 -0.77186844119E-02 -0.72228153242E-02  0.23526000483E-01  0.00000000000E+00 0. -1.
     999901    1    3    3    0    0  0.67821226077E-01 -0.49660709709E-01  0.84628986042E-01  0.88804727919E+00  0.88000000000E+00 0.  1.
        -11    1    4    4    0    0 -0.28349888304E-01  0.24557738937E-01 -0.18778056560E-01  0.41948483140E-01  0.51100000000E-03 0. -1.
         11    1    4    4    0    0 -0.60488605637E-01  0.32821655184E-01 -0.58628114158E-01  0.90408237189E-01  0.51100000000E-03 0.  1.
</event>
<event>
 8    1  0.1060404E+005  0.1043930E+01  0.7957747E-01            NaN
         13   -1    0    0    0    0  0.00000000000E+00  0.00000000000E+00  0.74505805969E-08  0.10566000000E+00  0.10566000000E+00 0. -1.
     999900   -1    0    0    0    0 -0.00000000000E+00 -0.00000000000E+00 -0.74505805969E-08  0.93827000000E+00  0.93827000000E+00 0. -1.
     999902    2    1    2    0    0 -0.21564133935E-01 -0.88847836244E-02  0.17053814364E-02  0.10205449711E+01  0.10202770106E+01 0.  0.
     999903    2    3    3    0    0 -0.22951085537E-02 -0.11561710270E+00 -0.59829624529E-01  0.13175385937E+00  0.20172097754E-01 0.  0.
         14    1    1    2    0    0  0.21564133935E-01  0.88847836244E-02 -0.17053814364E-02  0.23385028935E-01  0.00000000000E+00 0. -1.
     999901    1    3    3    0    0 -0.19269025382E-01  0.10673231907E+00  0.61535005966E-01  0.88879111170E+00  0.88000000000E+00 0. -1.
        -11    1    4    4    0    0 -0.11177716423E-01 -0.58262246263E-01 -0.29081137954E-01  0.66071206965E-01  0.51100000000E-03 0.  1.
         11    1    4    4    0    0  0.88826078695E-02 -0.57354856433E-01 -0.30748486575E-01  0.65682652403E-01  0.51100000000E-03 0. -1.
</event>
<event>
 8    1  0.1060404E+005  0.1043930E+01  0.7957747E-01            NaN
         13   -1    0    0    0    0  0.00000000000E+00  0.00000000000E+00  0.74505805969E-08  0.10566000000E+00  0.10566000000E+00 0.  1.
     999900   -1    0    0    0    0 -0.00000000000E+00 -0.00000000000E+00 -0.74505805969E-08  0.93827000000E+00  0.93827000000E+00 0.  1.
     999902    2    1    2    0    0 -0.14271394156E-02 -0.25377869418E-01  0.34427298933E-02  0.10182799440E+01  0.10179568355E+01 0.  0.
     999903    2    3    3    0    0  0.64930495613E-01  0.47985430787E-01  0.96991202982E-01  0.12780994094E+00  0.20236519461E-01 0.  0.
         14    1    1    2    0    0  0.14271394156E-02  0.25377869418E-01 -0.34427298933E-02  0.25650055989E-01  0.00000000000E+00 0. -1.
     999901    1    3    3    0    0 -0.66357635029E-01 -0.73363300206E-01 -0.93548473089E-01  0.89047000307E+00  0.88000000000E+00 0.  1.
        -11    1    4    4    0    0  0.42996258287E-01  0.22955381844E-01  0.46715408671E-01  0.67514578504E-01  0.51100000000E-03 0. -1.
         11    1    4    4    0    0  0.21934237326E-01  0.25030048944E-01  0.50275794311E-01  0.60295362441E-01  0.51100000000E-03 0.  1.
</event>
<event>
 8    1  0.1060404E+005  0.1043930E+01  0.7957747E-01            NaN
         13   -1    0    0    0    0  0.00000000000E+00  0.00000000000E+00  0.74505805969E-08  0.10566000000E+00  0.10566000000E+00 0. -1.
     999900   -1    0    0    0    0 -0.00000000000E+00 -0.00000000000E+00 -0.74505805969E-08  0.93827000000E+00  0.93827000000E+00 0. -1.
     999902    2    1    2    0    0 -0.13866049421E-01 -0.16171779617E-01  0.12431846716E-01  0.10192653574E+01  0.10189668906E+01 0.  0.
     999903    2    3    3    0    0 -0.57473010236E-01  0.40952538746E-01  0.10860079866E+00  0.13111378130E+00  0.20406686204E-01 0.  0.
         14    1    1    2    0    0  0.13866049421E-01  0.16171779617E-01 -0.12431846716E-01  0.24664642614E-01  0.00000000000E+00 0.  1.
     999901    1    3    3    0    0  0.43606960815E-01 -0.57124318363E-01 -0.96168951948E-01  0.88815157608E+00  0.88000000000E+00 0.  1.
        -11    1    4    4    0    0 -0.50029670735E-01  0.28312807930E-01  0.75419009127E-01  0.94830749788E-01  0.51100000000E-03 0.  1.
         11    1    4    4    0    0 -0.74433395011E-02  0.12639730816E-01  0.33181789537E-01  0.36283031514E-01  0.51100000000E-03 0. -1.
</event>
<event>
 8    1  0.1060404E+005  0.1043930E+01  0.7957747E-01            NaN
         13   -1    0    0    0    0  0.00000000000E+00  0.00000000000E+00  0.74505805969E-08  0.10566000000E+00  0.10566000000E+00 0.  1.
     999900   -1    0    0    0    0 -0.00000000000E+00 -0.00000000000E+00 -0.74505805969E-08  0.93827000000E+00  0.93827000000E+00 0. -1.
     999902    2    1    2    0    0 -0.12015191309E-01  0.59356845303E-02  0.14319852906E-01  0.10243173673E+01  0.10241295883E+01 0.  0.
     999903    2    3    3    0    0 -0.86709749395E-01  0.99613610732E-01 -0.17480914863E-01  0.13562950329E+00  0.25462279831E-01 0.  0.
         14    1    1    2    0    0  0.12015191309E-01 -0.59356845303E-02 -0.14319852906E-01  0.19612632671E-01  0.00000000000E+00 0. -1.
     999901    1    3    3    0    0  0.74694558086E-01 -0.93677926201E-01  0.31800767769E-01  0.88868786404E+00  0.88000000000E+00 0.  1.
        -11    1    4    4    0    0 -0.45757439359E-01  0.63255174287E-01 -0.20699108509E-01  0.80769267329E-01  0.51100000000E-03 0.  1.
         11    1    4    4    0    0 -0.40952310036E-01  0.36358436445E-01  0.32181936466E-02  0.54860235958E-01  0.51100000000E-03 0. -1.
</event>
<event>
 8    1  0.1060404E+005  0.1043930E+01  0.7957747E-01            NaN
         13   -1    0    0    0    0  0.00000000000E+00  0.00000000000E+00  0.74505805969E-08  0.10566000000E+00  0.10566000000E+00 0. -1.
     999900   -1    0    0    0    0 -0.00000000000E+00 -0.00000000000E+00 -0.74505805969E-08  0.93827000000E+00  0.93827000000E+00 0.  1.
     999902    2    1    2    0    0 -0.14735999052E-01 -0.18579742095E-02  0.18505878380E-01  0.10202009193E+01  0.10199249220E+01 0.  0.
     999903    2    3    3    0    0 -0.20819972893E-01  0.86463326323E-01 -0.91244604251E-01  0.12897545102E+00  0.19992775997E-01 0.  0.
         14    1    1    2    0    0  0.14735999052E-01  0.18579742095E-02 -0.18505878380E-01  0.23729080699E-01  0.00000000000E+00 0.  1.
     999901    1    3    3    0    0  0.60839738419E-02 -0.88321300532E-01  0.10975048263E+00  0.89122546828E+00  0.88000000000E+00 0. -1.
        -11    1    4    4    0    0 -0.15940520616E-01  0.84165904441E-01 -0.84527758591E-01  0.12034617884E+00  0.51100000000E-03 0.  1.
         11    1    4    4    0    0 -0.48794522772E-02  0.22974218821E-02 -0.67168456600E-02  0.86292721854E-02  0.51100000000E-03 0. -1.
</event>
<event>
 8    1  0.1060404E+005  0.1043930E+01  0.7957747E-01            NaN
         13   -1    0    0    0    0  0.00000000000E+00  0.00000000000E+00  0.74505805969E-08  0.10566000000E+00  0.10566000000E+00 0. -1.
     999900   -1    0    0    0    0 -0.00000000000E+00 -0.00000000000E+00 -0.74505805969E-08  0.93827000000E+00  0.93827000000E+00 0.  1.
     999902    2    1    2    0    0  0.12187126952E-01  0.12389347491E-01 -0.16519027295E-01  0.10199529223E+01  0.10196710564E+01 0.  0.
     999903    2    3    3    0    0 -0.32374614738E-01 -0.33624642810E-01  0.11706989492E+00  0.12756901593E+00  0.19742371811E-01 0.  0.
         14    1    1    2    0    0 -0.12187126952E-01 -0.12389347491E-01  0.16519027295E-01  0.23977077749E-01  0.00000000000E+00 0.  1.
     999901    1    3    3    0    0  0.44561741690E-01  0.46013990301E-01 -0.13358892222E+00  0.89238390632E+00  0.88000000000E+00 0.  1.
        -11    1    4    4    0    0 -0.25004343124E-02 -0.75961399455E-02  0.41223639852E-01  0.41995274942E-01  0.51100000000E-03 0.  1.
         11    1    4    4    0    0 -0.29874180426E-01 -0.26028502864E-01  0.75846255069E-01  0.85573740986E-01  0.51100000000E-03 0. -1.
</event>
<event>
 8    1  0.1060404E+005  0.1043930E+01  0.7957747E-01            NaN
         13   -1    0    0    0    0  0.00000000000E+00  0.00000000000E+00  0.74505805969E-08  0.10566000000E+00  0.10566000000E+00 0.  1.
     999900   -1    0    0    0    0 -0.00000000000E+00 -0.00000000000E+00 -0.74505805969E-08  0.93827000000E+00  0.93827000000E+00 0.  1.
     999902    2    1    2    0    0 -0.20086594047E-02  0.10470502322E-01  0.19814285325E-01  0.10214295104E+01  0.10211816550E+01 0.  0.
     999903    2    3    3    0    0  0.11210010216E+00  0.66739051041E-01 -0.94256138290E-03  0.13203769246E+00  0.20310833843E-01 0.  0.
         14    1    1    2    0    0  0.20086594047E-02 -0.10470502322E-01 -0.19814285325E-01  0.22500489649E-01  0.00000000000E+00 0.  1.
     999901    1    3    3    0    0 -0.11410876156E+00 -0.56268548719E-01  0.20756846708E-01  0.88939181789E+00  0.88000000000E+00 0.  1.
        -11    1    4    4    0    0  0.73879680119E-01  0.50219228091E-01 -0.84255535394E-02  0.89729755812E-01  0.51100000000E-03 0.  1.
         11    1    4    4    0    0  0.38220422038E-01  0.16519822951E-01  0.74829921565E-02  0.42307936652E-01  0.51100000000E-03 0. -1.
</event>
<event>
 8    1  0.1060404E+005  0.1043930E+01  0.7957747E-01            NaN
         13   -1    0    0    0    0  0.00000000000E+00  0.00000000000E+00  0.74505805969E-08  0.10566000000E+00  0.10566000000E+00 0. -1.
     999900   -1    0    0    0    0 -0.00000000000E+00 -0.00000000000E+00 -0.74505805969E-08  0.93827000000E+00  0.93827000000E+00 0.  1.
     999902    2    1    2    0    0 -0.16342206037E-01  0.91847968617E-02  0.13555279875E-01  0.10207961762E+01  0.10205340070E+01 0.  0.
     999903    2    3    3    0    0  0.81505375120E-01  0.99991848162E-01  0.76039378322E-02  0.13070882757E+00  0.19633692006E-01 0.  0.
         14    1    1    2    0    0  0.16342206037E-01 -0.91847968617E-02 -0.13555279875E-01  0.23133823809E-01  0.00000000000E+00 0. -1.
     999901    1    3    3    0    0 -0.97847581157E-01 -0.90807051300E-01  0.59513420427E-02  0.89008734862E+00  0.88000000000E+00 0.  1.
        -11    1    4    4    0    0  0.67176329590E-01  0.92270493700E-01  0.52600844136E-02  0.11425599710E+00  0.51100000000E-03 0.  1.
         11    1    4    4    0    0  0.14329045531E-01  0.77213544617E-02  0.23438534186E-02  0.16452830467E-01  0.51100000000E-03 0. -1.
</event>
<event>
 8    1  0.1060404E+005  0.1043930E+01  0.7957747E-01            NaN
         13   -1    0    0    0    0  0.00000000000E+00  0.00000000000E+00  0.74505805969E-08  0.10566000000E+00  0.10566000000E+00 0. -1.
     999900   -1    0    0    0    0 -0.00000000000E+00 -0.00000000000E+00 -0.74505805969E-08  0.93827000000E+00  0.93827000000E+00 0.  1.
     999902    2    1    2    0    0  0.17986962759E-01 -0.56822859540E-02 -0.12692698218E-01  0.10211940419E+01  0.10209409128E+01 0.  0.
     999903    2    3    3    0    0 -0.84593629566E-01  0.30114416679E-02 -0.98046512161E-01  0.13109088362E+00  0.20163091930E-01 0.  0.
         14    1    1    2    0    0 -0.17986962759E-01  0.56822859540E-02  0.12692698218E-01  0.22735958106E-01  0.00000000000E+00 0. -1.
     999901    1    3    3    0    0  0.10258059233E+00 -0.86937276219E-02  0.85353813942E-01  0.89010315828E+00  0.88000000000E+00 0. -1.
        -11    1    4    4    0    0 -0.38309886068E-01 -0.73635500699E-02 -0.36881588105E-01  0.53687818938E-01  0.51100000000E-03 0. -1.
         11    1    4    4    0    0 -0.46283743498E-01  0.10374991738E-01 -0.61164924055E-01  0.77403064678E-01  0.51100000000E-03 0.  1.
</event>
<event>
 8    1  0.1060404E+005  0.1043930E+01  0.7957747E-01            NaN
         13   -1    0    0    0    0  0.00000000000E+00  0.00000000000E+00  0.74505805969E-08  0.10566000000E+00  0.10566000000E+00 0.  1.
     999900   -1    0    0    0    0 -0.00000000000E+00 -0.00000000000E+00 -0.74505805969E-08  0.93827000000E+00  0.93827000000E+00 0.  1.
     999902    2    1    2    0    0  0.99338486026E-02  0.19347557785E-01  0.93279808944E-02  0.10202652463E+01  0.10199907609E+01 0.  0.
     999903    2    3    3    0    0  0.49967745096E-01  0.12101015086E+00  0.21405373055E-01  0.13342599418E+00  0.14285438887E-01 0.  0.
         14    1    1    2    0    0 -0.99338486026E-02 -0.19347557785E-01 -0.93279808944E-02  0.23664753704E-01  0.00000000000E+00 0. -1.
     999901    1    3    3    0    0 -0.40033896494E-01 -0.10166259308E+00 -0.12077392161E-01  0.88683925212E+00  0.88000000000E+00 0. -1.
        -11    1    4    4    0    0  0.13061436456E-01  0.40044800792E-01  0.12816731950E-01  0.44030863399E-01  0.51100000000E-03 0.  1.
         11    1    4    4    0    0  0.36906308640E-01  0.80965350071E-01  0.85886411055E-02  0.89395130777E-01  0.51100000000E-03 0. -1.
</event>
<event>
 8    1  0.1060404E+005  0.1043930E+01  0.7957747E-01            NaN
         13   -1    0    0    0    0  0.00000000000E+00  0.00000000000E+00  0.74505805969E-08  0.10566000000E+00  0.10566000000E+00 0. -1.
     999900   -1    0    0    0    0 -0.00000000000E+00 -0.00000000000E+00 -0.74505805969E-08  0.93827000000E+00  0.93827000000E+00 0. -1.
     999902    2    1    2    0    0  0.16402105024E-01 -0.16975271049E-01  0.25652488075E-02  0.10201861718E+01  0.10199098273E+01 0.  0.
     999903    2    3    3    0    0  0.10225216479E-02 -0.13118365465E+00 -0.32997463393E-02  0.13265336415E+00  0.19386332765E-01 0.  0.
         14    1    1    2    0    0 -0.16402105024E-01  0.16975271049E-01 -0.25652488075E-02  0.23743828206E-01  0.00000000000E+00 0.  1.
     999901    1    3    3    0    0  0.15379583376E-01  0.11420838360E+00  0.58649951468E-02  0.88753280764E+00  0.88000000000E+00 0. -1.
        -11    1    4    4    0    0 -0.43144376892E-02 -0.96132083858E-01 -0.93435680780E-02  0.96682755985E-01  0.51100000000E-03 0.  1.
         11    1    4    4    0    0  0.53369593371E-02 -0.35051570790E-01  0.60438217386E-02  0.35970608169E-01  0.51100000000E-03 0. -1.
</event>
<event>
 8    1  0.1060404E+005  0.1043930E+01  0.7957747E-01            NaN
         13   -1    0    0    0    0  0.00000000000E+00  0.00000000000E+00  0.74505805969E-08  0.10566000000E+00  0.10566000000E+00 0.  1.
     999900   -1    0    0    0    0 -0.00000000000E+00 -0.00000000000E+00 -0.74505805969E-08  0.93827000000E+00  0.93827000000E+00 0. -1.
     999902    2    1    2    0    0  0.16495449125E-01  0.69440477011E-02  0.15543756936E-01  0.10202249790E+01  0.10199495477E+01 0.  0.
     999903    2    3    3    0    0  0.17242944547E-01  0.99560457756E-01 -0.79749761646E-01  0.13024789344E+00  0.19871723070E-01 0.  0.
         14    1    1    2    0    0 -0.16495449125E-01 -0.69440477011E-02 -0.15543756936E-01  0.23705020987E-01  0.00000000000E+00 0.  1.
     999901    1    3    3    0    0 -0.74749542185E-03 -0.92616410055E-01  0.95293518583E-01  0.88997708557E+00  0.88000000000E+00 0.  1.
        -11    1    4    4    0    0  0.14940117030E-01  0.61996406244E-01 -0.38894244670E-01  0.74697957626E-01  0.51100000000E-03 0.  1.
         11    1    4    4    0    0  0.23028275163E-02  0.37564051512E-01 -0.40855516976E-01  0.55549935814E-01  0.51100000000E-03 0. -1.
</event>
<event>
 8    1  0.1060404E+005  0.1043930E+01  0.7957747E-01            NaN
         13   -1    0    0    0    0  0.00000000000E+00  0.00000000000E+00  0.74505805969E-08  0.10566000000E+00  0.10566000000E+00 0.  1.
     999900   -1    0    0    0    0 -0.00000000000E+00 -0.00000000000E+00 -0.74505805969E-08  0.93827000000E+00  0.93827000000E+00 0.  1.
     999902    2    1    2    0    0  0.13529712968E-02  0.29355541796E-02  0.23146603411E-01  0.10205587942E+01  0.10202911541E+01 0.  0.
     999903    2    3    3    0    0 -0.11794308501E+00  0.94186757914E-02  0.56804121947E-01  0.13184826292E+00  0.12568747285E-01 0.  0.
         14    1    1    2    0    0 -0.13529712968E-02 -0.29355541796E-02 -0.23146603411E-01  0.23371205770E-01  0.00000000000E+00 0. -1.
     999901    1    3    3    0    0  0.11929605631E+00 -0.64831216117E-02 -0.33657518536E-01  0.88871053131E+00  0.88000000000E+00 0.  1.
        -11    1    4    4    0    0 -0.92459845187E-01  0.26701217706E-02  0.46611019271E-01  0.10357992451E+00  0.51100000000E-03 0.  1.
         11    1    4    4    0    0 -0.25483239822E-01  0.67485540208E-02  0.10193102677E-01  0.28268338409E-01  0.51100000000E-03 0. -1.
</event>
<event>
 8    1  0.1060404E+005  0.1043930E+01  0.7957747E-01            NaN
         13   -1    0    0    0    0  0.00000000000E+00  0.00000000000E+00  0.74505805969E-08  0.10566000000E+00  0.10566000000E+00 0.  1.
     999900   -1    0    0    0    0 -0.00000000000E+00 -0.00000000000E+00 -0.74505805969E-08  0.93827000000E+00  0.93827000000E+00 0.  1.
     999902    2    1    2    0    0  0.66519322847E-02  0.14443220523E-01  0.17291747361E-01  0.10204383132E+01  0.10201678743E+01 0.  0.
     999903    2    3    3    0    0  0.80181903329E-02 -0.12591382884E+00  0.18784029956E-01  0.12931307235E+00  0.21223742074E-01 0.  0.
         14    1    1    2    0    0 -0.66519322847E-02 -0.14443220523E-01 -0.17291747361E-01  0.23491686806E-01  0.00000000000E+00 0. -1.
     999901    1    3    3    0    0 -0.13662580482E-02  0.14035704937E+00 -0.14922825949E-02  0.89112524085E+00  0.88000000000E+00 0.  1.
        -11    1    4    4    0    0  0.38910623274E-02 -0.60985202637E-01  0.19814102712E-01  0.64243249404E-01  0.51100000000E-03 0.  1.
         11    1    4    4    0    0  0.41271280055E-02 -0.64928626208E-01 -0.10300727567E-02  0.65069822942E-01  0.51100000000E-03 0. -1.
</event>
<event>
 8    1  0.1060404E+005  0.1043930E+01  0.7957747E-01            NaN
         13   -1    0    0    0    0  0.00000000000E+00  0.00000000000E+00  0.74505805969E-08  0.10566000000E+00  0.10566000000E+00 0. -1.
     999900   -1    0    0    0    0 -0.00000000000E+00 -0.00000000000E+00 -0.74505805969E-08  0.93827000000E+00  0.93827000000E+00 0.  1.
     999902    2    1    2    0    0  0.73370841633E-02 -0.16727578744E-01  0.14738702103E-01  0.10204592941E+01  0.10201893437E+01 0.  0.
     999903    2    3    3    0    0 -0.20651222744E-01 -0.41266285874E-01 -0.11922115844E+00  0.12954362039E+00  0.20940048067E-01 0.  0.
         14    1    1    2    0    0 -0.73370841633E-02  0.16727578744E-01 -0.14738702103E-01  0.23470705876E-01  0.00000000000E+00 0. -1.
     999901    1    3    3    0    0  0.27988306907E-01  0.24538707130E-01  0.13395986054E+00  0.89091567374E+00  0.88000000000E+00 0. -1.
        -11    1    4    4    0    0 -0.14808596023E-01 -0.10231875038E-01 -0.31145287707E-01  0.35976045507E-01  0.51100000000E-03 0. -1.
         11    1    4    4    0    0 -0.58426267210E-02 -0.31034410836E-01 -0.88075870733E-01  0.93567574882E-01  0.51100000000E-03 0.  1.
</event>
<event>
 8    1  0.1060404E+005  0.1043930E+01  0.7957747E-01            NaN
         13   -1    0    0    0    0  0.00000000000E+00  0.00000000000E+00  0.74505805969E-08  0.10566000000E+00  0.10566000000E+00 0.  1.
     999900   -1    0    0    0    0 -0.00000000000E+00 -0.00000000000E+00 -0.74505805969E-08  0.93827000000E+00  0.93827000000E+00 0.  1.
     999902    2    1    2    0    0 -0.27141606986E-02  0.18226483025E-02  0.23525937700E-01  0.10201779799E+01  0.10199014424E+01 0.  0.
     999903    2    3    3    0    0 -0.98159470341E-01  0.44550195492E-02 -0.81144006131E-01  0.12884609239E+00  0.19022012955E-01 0.  0.
         14    1    1    2    0    0  0.27141606986E-02 -0.18226483025E-02 -0.23525937700E-01  0.23752020120E-01  0.00000000000E+00 0. -1.
     999901    1    3    3    0    0  0.95445309642E-01 -0.26323712467E-02  0.10466994383E+00  0.89133188749E+00  0.88000000000E+00 0. -1.
        -11    1    4    4    0    0 -0.53700043066E-01 -0.35266182245E-02 -0.53500074050E-01  0.75885774067E-01  0.51100000000E-03 0.  1.
         11    1    4    4    0    0 -0.44459427275E-01  0.79816377737E-02 -0.27643932081E-01  0.52960318325E-01  0.51100000000E-03 0. -1.
</event>
<event>
 8    1  0.1060404E+005  0.1043930E+01  0.7957747E-01            NaN
         13   -1    0    0    0    0  0.00000000000E+00  0.00000000000E+00  0.74505805969E-08  0.10566000000E+00  0.10566000000E+00 0.  1.
     999900   -1    0    0    0    0 -0.00000000000E+00 -0.00000000000E+00 -0.74505805969E-08  0.93827000000E+00  0.93827000000E+00 0. -1.
     999902    2    1    2    0    0 -0.70176839637E-02  0.86204737955E-02  0.21909860737E-01  0.10193616778E+01  0.10190655660E+01 0.  0.
     999903    2    3    3    0    0 -0.11363343624E+00  0.36082539314E-01  0.52838398987E-01  0.13196229866E+00  0.20190205191E-01 0.  0.
         14    1    1    2    0    0  0.70176839637E-02 -0.86204737955E-02 -0.21909860737E-01  0.24568322169E-01  0.00000000000E+00 0.  1.
     999901    1    3    3    0    0  0.10661575227E+00 -0.27462065518E-01 -0.30928538250E-01  0.88739937917E+00  0.88000000000E+00 0. -1.
        -11    1    4    4    0    0 -0.80877324613E-01  0.34860396524E-01  0.40450417361E-01  0.96916903934E-01  0.51100000000E-03 0.  1.
         11    1    4    4    0    0 -0.32756111625E-01  0.12221427891E-02  0.12387981626E-01  0.35045394726E-01  0.51100000000E-03 0. -1.
</event>
<event>
 8    1  0.1060404E+005  0.1043930E+01  0.7957747E-01            NaN
         13   -1    0    0    0    0  0.00000000000E+00  0.00000000000E+00  0.74505805969E-08  0.10566000000E+00  0.10566000000E+00 0. -1.
     999900   -1    0    0    0    0 -0.00000000000E+00 -0.00000000000E+00 -0.74505805969E-08  0.93827000000E+00  0.93827000000E+00 0.  1.
     999902    2    1    2    0    0 -0.99606986279E-02  0.12827334315E-01 -0.21378582732E-01  0.10170822846E+01  0.10167278760E+01 0.  0.
     999903    2    3    3    0    0  0.10340541212E+00  0.42834506753E-01 -0.59831419126E-01  0.12847048741E+00  0.19934723398E-01 0.  0.
         14    1    1    2    0    0  0.99606986279E-02 -0.12827334315E-01  0.21378582732E-01  0.26847715404E-01  0.00000000000E+00 0. -1.
     999901    1    3    3    0    0 -0.11336611075E+00 -0.30007172437E-01  0.38452836394E-01  0.88861179718E+00  0.88000000000E+00 0. -1.
        -11    1    4    4    0    0  0.21783469006E-01  0.63041649618E-03 -0.11451537533E-01  0.24623480253E-01  0.51100000000E-03 0. -1.
         11    1    4    4    0    0  0.81621943116E-01  0.42204090257E-01 -0.48379881593E-01  0.10384700716E+00  0.51100000000E-03 0.  1.
</event>
<event>
 8    1  0.1060404E+005  0.1043930E+01  0.7957747E-01            NaN
         13   -1    0    0    0    0  0.00000000000E+00  0.00000000000E+00  0.74505805969E-08  0.10566000000E+00  0.10566000000E+00 0. -1.
     999900   -1    0    0    0    0 -0.00000000000E+00 -0.00000000000E+00 -0.74505805969E-08  0.93827000000E+00  0.93827000000E+00 0.  1.
     999902    2    1    2    0    0 -0.76952066555E-02 -0.38754287615E-02  0.21541825710E-01  0.10207290214E+01  0.10204653104E+01 0.  0.
     999903    2    3    3    0    0 -0.97175316275E-01 -0.61723873514E-01 -0.58756994477E-01  0.13067226303E+00  0.19234793240E-01 0.  0.
         14    1    1    2    0    0  0.76952066555E-02  0.38754287615E-02 -0.21541825710E-01  0.23200978610E-01  0.00000000000E+00 0.  1.
     999901    1    3    3    0    0  0.89480109619E-01  0.57848444752E-01  0.80298820187E-01  0.89005675836E+00  0.88000000000E+00 0. -1.
        -11    1    4    4    0    0 -0.52942996977E-01 -0.42191484050E-01 -0.41067197260E-01  0.79182435345E-01  0.51100000000E-03 0.  1.
         11    1    4    4    0    0 -0.44232319297E-01 -0.19532389463E-01 -0.17689797217E-01  0.51489827686E-01  0.51100000000E-03 0. -1.
</event>
<event>
 8    1  0.1060404E+005  0.1043930E+01  0.7957747E-01            NaN
         13   -1    0    0    0    0  0.00000000000E+00  0.00000000000E+00  0.74505805969E-08  0.10566000000E+00  0.10566000000E+00 0. -1.
     999900   -1    0    0    0    0 -0.00000000000E+00 -0.00000000000E+00 -0.74505805969E-08  0.93827000000E+00  0.93827000000E+00 0.  1.
     999902    2    1    2    0    0  0.23175624712E-01 -0.58318859823E-02  0.71750559731E-03  0.10200211044E+01  0.10197408583E+01 0.  0.
     999903    2    3    3    0    0  0.12537455329E+00  0.16152732691E-02 -0.38921473853E-01  0.13318891628E+00  0.22428075554E-01 0.  0.
         14    1    1    2    0    0 -0.23175624712E-01  0.58318859823E-02 -0.71750559731E-03  0.23908895608E-01  0.00000000000E+00 0. -1.
     999901    1    3    3    0    0 -0.10219892857E+00 -0.74471592515E-02  0.39638979450E-01  0.88683218811E+00  0.88000000000E+00 0.  1.
        -11    1    4    4    0    0  0.56054446513E-01 -0.66110834729E-02 -0.26205654309E-01  0.62231863521E-01  0.51100000000E-03 0.  1.
         11    1    4    4    0    0  0.69320106773E-01  0.82263567420E-02 -0.12715819544E-01  0.70957052757E-01  0.51100000000E-03 0. -1.
</event>
<event>
 8    1  0.1060404E+005  0.1043930E+01  0.7957747E-01            NaN
         13   -1    0    0    0    0  0.00000000000E+00  0.00000000000E+00  0.74505805969E-08  0.10566000000E+00  0.10566000000E+00 0. -1.
     999900   -1    0    0    0    0 -0.00000000000E+00 -0.00000000000E+00 -0.74505805969E-08  0.93827000000E+00  0.93827000000E+00 0. -1.
     999902    2    1    2    0    0  0.24830564791E-03 -0.14966153253E-01 -0.18016467366E-01  0.10205069239E+01  0.10202380806E+01 0.  0.
     999903    2    3    3    0    0  0.11871641748E+00  0.66538435815E-02  0.48053279639E-01  0.12985136236E+00  0.20356748513E-01 0.  0.
         14    1    1    2    0    0 -0.24830564791E-03  0.14966153253E-01  0.18016467366E-01  0.23423076127E-01  0.00000000000E+00 0. -1.
     999901    1    3    3    0    0 -0.11846811183E+00 -0.21619996835E-01 -0.66069747005E-01  0.89065556151E+00  0.88000000000E+00 0.  1.
        -11    1    4    4    0    0  0.50684732590E-01 -0.72163970360E-02  0.20107062127E-01  0.55005214046E-01  0.51100000000E-03 0.  1.
         11    1    4    4    0    0  0.68031684887E-01  0.13870240618E-01  0.27946217511E-01  0.74846148315E-01  0.51100000000E-03 0. -1.
</event>
<event>
 8    1  0.1060404E+005  0.1043930E+01  0.7957747E-01            NaN
         13   -1    0    0    0    0  0.00000000000E+00  0.00000000000E+00  0.74505805969E-08  0.10566000000E+00  0.10566000000E+00 0. -1.
     999900   -1    0    0    0    0 -0.00000000000E+00 -0.00000000000E+00 -0.74505805969E-08  0.93827000000E+00  0.93827000000E+00 0. -1.
     999902    2    1    2    0    0  0.24894537003E-02 -0.25896851105E-01  0.35056266642E-02  0.10176786439E+01  0.10173400064E+01 0.  0.
     999903    2    3    3    0    0  0.11852331993E-01 -0.85115031094E-01 -0.95914192347E-01  0.13005329688E+00  0.18146113713E-01 0.  0.
         14    1    1    2    0    0 -0.24894537003E-02  0.25896851105E-01 -0.35056266642E-02  0.26251356064E-01  0.00000000000E+00 0. -1.
     999901    1    3    3    0    0 -0.93628782925E-02  0.59218179988E-01  0.99419819012E-01  0.88762534706E+00  0.88000000000E+00 0.  1.
        -11    1    4    4    0    0 -0.46939684102E-02 -0.13582637606E-01 -0.14505141432E-01  0.20425024669E-01  0.51100000000E-03 0. -1.
         11    1    4    4    0    0  0.16546300403E-01 -0.71532393488E-01 -0.81409050916E-01  0.10962827221E+00  0.51100000000E-03 0.  1.
</event>
<event>
 8    1  0.1060404E+005  0.1043930E+01  0.7957747E-01            NaN
         13   -1    0    0    0    0  0.00000000000E+00  0.00000000000E+00  0.74505805969E-08  0.10566000000E+00  0.10566000000E+00 0. -1.
     999900   -1    0    0    0    0 -0.00000000000E+00 -0.00000000000E+00 -0.74505805969E-08  0.93827000000E+00  0.93827000000E+00 0.  1.
     999902    2    1    2    0    0  0.90560261565E-03 -0.12987118435E-01 -0.18811280616E-01  0.10210531637E+01  0.10207968522E+01 0.  0.
     999903    2    3    3    0    0 -0.51958569826E-01 -0.73870193316E-01  0.92013831411E-01  0.13044462174E+00  0.19818065765E-01 0.  0.
         14    1    1    2    0    0 -0.90560261565E-03  0.12987118435E-01  0.18811280616E-01  0.22876836314E-01  0.00000000000E+00 0. -1.
     999901    1    3    3    0    0  0.52864172441E-01  0.60883074881E-01 -0.11082511203E+00  0.89060854195E+00  0.88000000000E+00 0.  1.
        -11    1    4    4    0    0 -0.29078890918E-01 -0.52740768497E-01  0.50844964658E-01  0.78820315343E-01  0.51100000000E-03 0.  1.
         11    1    4    4    0    0 -0.22879678907E-01 -0.21129424819E-01  0.41168866753E-01  0.51624306395E-01  0.51100000000E-03 0. -1.
</event>
<event>
 7    1  0.1060404E+005  0.1043930E+01  0.7957747E-01            NaN
         13   -1    0    0    0    0  0.00000000000E+00  0.00000000000E+00  0.74505805969E-08  0.10566000000E+00  0.10566000000E+00 0. -1.
     999900   -1    0    0    0    0 -0.00000000000E+00 -0.00000000000E+00 -0.74505805969E-08  0.93827000000E+00  0.93827000000E+00 0.  1.
     999903    2    1    2    0    0 -0.78052506583E-01  0.47557142980E-02 -0.44757970393E-01  0.92291292290E-01  0.19989900365E-01 0.  0.
         14    1    1    2    0    0 -0.64501912752E-04 -0.17805334595E-01  0.65461080078E-01  0.67839421471E-01  0.00000000000E+00 0. -1.
     999901    1    1    2    0    0  0.78117008495E-01  0.13049620297E-01 -0.20703109685E-01  0.88379928624E+00  0.88000000000E+00 0.  1.
        -11    1    3    3    0    0 -0.58311448654E-01  0.10690177687E-01 -0.38703876434E-01  0.70800820018E-01  0.51100000000E-03 0. -1.
         11    1    3    3    0    0 -0.19741057928E-01 -0.59344633887E-02 -0.60540939587E-02  0.21490472273E-01  0.51100000000E-03 0.  1.
</event>
<event>
 8    1  0.1060404E+005  0.1043930E+01  0.7957747E-01            NaN
         13   -1    0    0    0    0  0.00000000000E+00  0.00000000000E+00  0.74505805969E-08  0.10566000000E+00  0.10566000000E+00 0. -1.
     999900   -1    0    0    0    0 -0.00000000000E+00 -0.00000000000E+00 -0.74505805969E-08  0.93827000000E+00  0.93827000000E+00 0.  1.
     999902    2    1    2    0    0 -0.23095285398E-02 -0.68873545258E-02 -0.22509651239E-01  0.10202772206E+01  0.10200030161E+01 0.  0.
     999903    2    3    3    0    0  0.16342912072E-01 -0.20129205153E-01  0.12351160513E+00  0.12795134545E+00  0.21074973947E-01 0.  0.
         14    1    1    2    0    0  0.23095285398E-02  0.68873545258E-02  0.22509651239E-01  0.23652779400E-01  0.00000000000E+00 0. -1.
     999901    1    3    3    0    0 -0.18652440611E-01  0.13241850627E-01 -0.14602125637E+00  0.89232587515E+00  0.88000000000E+00 0.  1.
        -11    1    4    4    0    0  0.13161535034E-01 -0.31175936984E-03  0.55181542728E-01  0.56732591842E-01  0.51100000000E-03 0.  1.
         11    1    4    4    0    0  0.31813770382E-02 -0.19817445783E-01  0.68330062399E-01  0.71218753609E-01  0.51100000000E-03 0. -1.
</event>
<event>
 8    1  0.1060404E+005  0.1043930E+01  0.7957747E-01            NaN
         13   -1    0    0    0    0  0.00000000000E+00  0.00000000000E+00  0.74505805969E-08  0.10566000000E+00  0.10566000000E+00 0.  1.
     999900   -1    0    0    0    0 -0.00000000000E+00 -0.00000000000E+00 -0.74505805969E-08  0.93827000000E+00  0.93827000000E+00 0.  1.
     999902    2    1    2    0    0  0.76239330864E-02 -0.16406536404E-01  0.74215884454E-02  0.10243754924E+01  0.10241888354E+01 0.  0.
     999903    2    3    3    0    0  0.11382000280E+00 -0.51392935303E-01  0.50543083581E-01  0.13625325043E+00  0.20349892386E-01 0.  0.
         14    1    1    2    0    0 -0.76239330864E-02  0.16406536404E-01 -0.74215884454E-02  0.19554507601E-01  0.00000000000E+00 0. -1.
     999901    1    3    3    0    0 -0.10619606971E+00  0.34986398899E-01 -0.43121495136E-01  0.88812224196E+00  0.88000000000E+00 0. -1.
        -11    1    4    4    0    0  0.66919577503E-01 -0.28226181752E-01  0.18656276382E-01  0.74988432168E-01  0.51100000000E-03 0. -1.
         11    1    4    4    0    0  0.46900425294E-01 -0.23166753550E-01  0.31886807200E-01  0.61264818266E-01  0.51100000000E-03 0.  1.
</event>
<event>
 8    1  0.1060404E+005  0.1043930E+01  0.7957747E-01            NaN
         13   -1    0    0    0    0  0.00000000000E+00  0.00000000000E+00  0.74505805969E-08  0.10566000000E+00  0.10566000000E+00 0. -1.
     999900   -1    0    0    0    0 -0.00000000000E+00 -0.00000000000E+00 -0.74505805969E-08  0.93827000000E+00  0.93827000000E+00 0.  1.
     999902    2    1    2    0    0 -0.21649096234E-01 -0.73017384998E-02  0.69302083530E-02  0.10200547714E+01  0.10197753234E+01 0.  0.
     999903    2    3    3    0    0 -0.11505629806E+00 -0.12003582693E-01 -0.61499495310E-01  0.13245709394E+00  0.19510409812E-01 0.  0.
         14    1    1    2    0    0  0.21649096234E-01  0.73017384998E-02 -0.69302083530E-02  0.23875228600E-01  0.00000000000E+00 0. -1.
     999901    1    3    3    0    0  0.93407201824E-01  0.47018441934E-02  0.68429703663E-01  0.88759767746E+00  0.88000000000E+00 0. -1.
        -11    1    4    4    0    0 -0.47954041491E-01  0.42242469714E-02 -0.28387489885E-01  0.55888684551E-01  0.51100000000E-03 0.  1.
         11    1    4    4    0    0 -0.67102256567E-01 -0.16227829665E-01 -0.33112005425E-01  0.76568409388E-01  0.51100000000E-03 0. -1.
</event>
<event>
 8    1  0.1060404E+005  0.1043930E+01  0.7957747E-01            NaN
         13   -1    0    0    0    0  0.00000000000E+00  0.00000000000E+00  0.74505805969E-08  0.10566000000E+00  0.10566000000E+00 0. -1.
     999900   -1    0    0    0    0 -0.00000000000E+00 -0.00000000000E+00 -0.74505805969E-08  0.93827000000E+00  0.93827000000E+00 0.  1.
     999902    2    1    2    0    0 -0.36265005028E-02 -0.15374630946E-01 -0.17379308245E-01  0.10204444483E+01  0.10201741523E+01 0.  0.
     999903    2    3    3    0    0  0.37683746768E-01 -0.49097504422E-01  0.11183401644E+00  0.12941142312E+00  0.20244492813E-01 0.  0.
         14    1    1    2    0    0  0.36265005028E-02  0.15374630946E-01  0.17379308245E-01  0.23485551680E-01  0.00000000000E+00 0. -1.
     999901    1    3    3    0    0 -0.41310247271E-01  0.33722873475E-01 -0.12921332469E+00  0.89103302520E+00  0.88000000000E+00 0.  1.
        -11    1    4    4    0    0  0.60561574970E-02 -0.68142635665E-02  0.54263378219E-02  0.10621558018E-01  0.51100000000E-03 0. -1.
         11    1    4    4    0    0  0.31627589271E-01 -0.42283240855E-01  0.10640767862E+00  0.11878986510E+00  0.51100000000E-03 0.  1.
</event>
<event>
 8    1  0.1060404E+005  0.1043930E+01  0.7957747E-01            NaN
         13   -1    0    0    0    0  0.00000000000E+00  0.00000000000E+00  0.74505805969E-08  0.10566000000E+00  0.10566000000E+00 0.  1.
     999900   -1    0    0    0    0 -0.00000000000E+00 -0.00000000000E+00 -0.74505805969E-08  0.93827000000E+00  0.93827000000E+00 0.  1.
     999902    2    1    2    0    0 -0.19808800911E-01 -0.12135073185E-01 -0.12342041331E-01  0.10176245903E+01  0.10172845385E+01 0.  0.
     999903    2    3    3    0    0 -0.24967198048E-01  0.32355711857E-02 -0.12610599164E+00  0.13015340646E+00  0.20083779203E-01 0.  0.
         14    1    1    2    0    0  0.19808800911E-01  0.12135073185E-01  0.12342041331E-01  0.26305409690E-01  0.00000000000E+00 0.  1.
     999901    1    3    3    0    0  0.51583971374E-02 -0.15370644370E-01  0.11376395031E+00  0.88747118385E+00  0.88000000000E+00 0. -1.
        -11    1    4    4    0    0 -0.57404292209E-02  0.44231056191E-02 -0.77907158448E-01  0.78245145852E-01  0.51100000000E-03 0.  1.
         11    1    4    4    0    0 -0.19226768827E-01 -0.11875344334E-02 -0.48198833192E-01  0.51908260611E-01  0.51100000000E-03 0. -1.
</event>
<event>
 8    1  0.1060404E+005  0.1043930E+01  0.7957747E-01            NaN
         13   -1    0    0    0    0  0.00000000000E+00  0.00000000000E+00  0.74505805969E-08  0.10566000000E+00  0.10566000000E+00 0. -1.
     999900   -1    0    0    0    0 -0.00000000000E+00 -0.00000000000E+00 -0.74505805969E-08  0.93827000000E+00  0.93827000000E+00 0.  1.
     999902    2    1    2    0    0  0.15702973047E-01  0.54013931838E-02 -0.16171784466E-01  0.10207505905E+01  0.10204873752E+01 0.  0.
     999903    2    3    3    0    0 -0.55302083154E-01  0.11236375373E+00  0.29684040979E-01  0.13025330175E+00  0.20021158211E-01 0.  0.
         14    1    1    2    0    0 -0.15702973047E-01 -0.54013931838E-02  0.16171784466E-01  0.23179409476E-01  0.00000000000E+00 0. -1.
     999901    1    3    3    0    0  0.71005056201E-01 -0.10696236054E+00 -0.45855825446E-01  0.89049728877E+00  0.88000000000E+00 0.  1.
        -11    1    4    4    0    0 -0.15608943412E-01  0.21503989635E-01  0.13428845286E-01  0.29776764286E-01  0.51100000000E-03 0. -1.
         11    1    4    4    0    0 -0.39693139743E-01  0.90859764092E-01  0.16255195694E-01  0.10047653747E+00  0.51100000000E-03 0.  1.
</event>
<event>
 8    1  0.1060404E+005  0.1043930E+01  0.7957747E-01            NaN
         13   -1    0    0    0    0  0.00000000000E+00  0.00000000000E+00  0.74505805969E-08  0.10566000000E+00  0.10566000000E+00 0. -1.
     999900   -1    0    0    0    0 -0.00000000000E+00 -0.00000000000E+00 -0.74505805969E-08  0.93827000000E+00  0.93827000000E+00 0.  1.
     999902    2    1    2    0    0  0.23550847718E-01  0.15913684230E-02  0.35499047933E-02  0.10200600041E+01  0.10197806799E+01 0.  0.
     999903    2    3    3    0    0  0.21749361357E-01  0.40027720624E-01  0.12162023149E+00  0.13134115057E+00  0.19589895035E-01 0.  0.
         14    1    1    2    0    0 -0.23550847718E-01 -0.15913684230E-02 -0.35499047933E-02  0.23869995931E-01  0.00000000000E+00 0. -1.
     999901    1    3    3    0    0  0.18014863612E-02 -0.38436352201E-01 -0.11807032669E+00  0.88871885350E+00  0.88000000000E+00 0.  1.
        -11    1    4    4    0    0  0.10669124321E-01  0.26796936629E-01  0.97503479095E-01  0.10168134334E+00  0.51100000000E-03 0.  1.
         11    1    4    4    0    0  0.11080237036E-01  0.13230783995E-01  0.24116752392E-01  0.29659807229E-01  0.51100000000E-03 0. -1.
</event>
<event>
 8    1  0.1060404E+005  0.1043930E+01  0.7957747E-01            NaN
         13   -1    0    0    0    0  0.00000000000E+00  0.00000000000E+00  0.74505805969E-08  0.10566000000E+00  0.10566000000E+00 0. -1.
     999900   -1    0    0    0    0 -0.00000000000E+00 -0.00000000000E+00 -0.74505805969E-08  0.93827000000E+00  0.93827000000E+00 0.  1.
     999902    2    1    2    0    0  0.11737139179E-01  0.70948715838E-02  0.18999695786E-01  0.10204974142E+01  0.10202283500E+01 0.  0.
     999903    2    3    3    0    0 -0.71387326725E-01 -0.10761956171E-02 -0.10429501944E+00  0.12798521258E+00  0.20135911837E-01 0.  0.
         14    1    1    2    0    0 -0.11737139179E-01 -0.70948715838E-02 -0.18999695786E-01  0.23432585834E-01  0.00000000000E+00 0.  1.
     999901    1    3    3    0    0  0.83124465904E-01  0.81710672009E-02  0.12329471523E+00  0.89251220158E+00  0.88000000000E+00 0. -1.
        -11    1    4    4    0    0 -0.51575848934E-01  0.81128131176E-02 -0.70094610970E-01  0.87403670049E-01  0.51100000000E-03 0.  1.
         11    1    4    4    0    0 -0.19811477791E-01 -0.91890087347E-02 -0.34200408473E-01  0.40581542535E-01  0.51100000000E-03 0. -1.
</event>
<event>
 8    1  0.1060404E+005  0.1043930E+01  0.7957747E-01            NaN
         13   -1    0    0    0    0  0.00000000000E+00  0.00000000000E+00  0.74505805969E-08  0.10566000000E+00  0.10566000000E+00 0.  1.
     999900   -1    0    0    0    0 -0.00000000000E+00 -0.00000000000E+00 -0.74505805969E-08  0.93827000000E+00  0.93827000000E+00 0.  1.
     999902    2    1    2    0    0 -0.18186801755E-01  0.83354666460E-02 -0.13517786977E-01  0.10197852215E+01  0.10194993515E+01 0.  0.
     999903    2    3    3    0    0 -0.49674612641E-01 -0.11766455308E+00 -0.16064419732E-01  0.13024940295E+00  0.19857673465E-01 0.  0.
         14    1    1    2    0    0  0.18186801755E-01 -0.83354666460E-02  0.13517786977E-01  0.24144778464E-01  0.00000000000E+00 0.  1.
     999901    1    3    3    0    0  0.31487810885E-01  0.12600001973E+00  0.25466327548E-02  0.88953581858E+00  0.88000000000E+00 0. -1.
        -11    1    4    4    0    0 -0.72983060003E-02 -0.40691999202E-01 -0.66995433098E-02  0.41883756649E-01  0.51100000000E-03 0.  1.
         11    1    4    4    0    0 -0.42376306640E-01 -0.76972553879E-01 -0.93648764222E-02  0.88365646303E-01  0.51100000000E-03 0. -1.
</event>
<event>
 8    1  0.1060404E+005  0.1043930E+01  0.7957747E-01            NaN
         13   -1    0    0    0    0  0.00000000000E+00  0.00000000000E+00  0.74505805969E-08  0.10566000000E+00  0.10566000000E+00 0. -1.
     999900   -1    0    0    0    0 -0.00000000000E+00 -0.00000000000E+00 -0.74505805969E-08  0.93827000000E+00  0.93827000000E+00 0. -1.
     999902    2    1    2    0    0 -0.14380545324E-01  0.21456365613E-02 -0.18194228411E-01  0.10206397920E+01  0.10203740252E+01 0.  0.
     999903    2    3    3    0    0 -0.22666797394E-01  0.23293293927E-01  0.12336133270E+00  0.12903794015E+00  0.19401297543E-01 0.  0.
         14    1    1    2    0    0  0.14380545324E-01 -0.21456365613E-02  0.18194228411E-01  0.23290207975E-01  0.00000000000E+00 0. -1.
     999901    1    3    3    0    0  0.82862520708E-02 -0.21147657366E-01 -0.14155556111E+00  0.89160185188E+00  0.88000000000E+00 0. -1.
        -11    1    4    4    0    0 -0.67738495233E-02  0.12474363490E-02  0.55608899246E-01  0.56036166278E-01  0.51100000000E-03 0.  1.
         11    1    4    4    0    0 -0.15892947871E-01  0.22045857578E-01  0.67752433455E-01  0.73001773872E-01  0.51100000000E-03 0. -1.
</event>
<event>
 8    1  0.1060404E+005  0.1043930E+01  0.7957747E-01            NaN
         13   -1    0    0    0    0  0.00000000000E+00  0.00000000000E+00  0.74505805969E-08  0.10566000000E+00  0.10566000000E+00 0.  1.
     999900   -1    0    0    0    0 -0.00000000000E+00 -0.00000000000E+00 -0.74505805969E-08  0.93827000000E+00  0.93827000000E+00 0.  1.
     999902    2    1    2    0    0 -0.90467571148E-02 -0.58284296658E-02 -0.20220380090E-01  0.10210241453E+01  0.10207671758E+01 0.  0.
     999903    2    3    3    0    0  0.59470313562E-01  0.49634232487E-01  0.10055468696E+00  0.12841151229E+00  0.19442124053E-01 0.  0.
         14    1    1    2    0    0  0.90467571148E-02  0.58284296658E-02  0.20220380090E-01  0.22905854659E-01  0.00000000000E+00 0.  1.
     999901    1    3    3    0    0 -0.68517070677E-01 -0.55462662153E-01 -0.12077506705E+00  0.89261263305E+00  0.88000000000E+00 0.  1.
        -11    1    4    4    0    0  0.35853258978E-01  0.40954239374E-01  0.73495107859E-01  0.91457629000E-01  0.51100000000E-03 0.  1.
         11    1    4    4    0    0  0.23617054585E-01  0.86799931132E-02  0.27059579103E-01  0.36953883286E-01  0.51100000000E-03 0. -1.
</event>
<event>
 8    1  0.1060404E+005  0.1043930E+01  0.7957747E-01            NaN
         13   -1    0    0    0    0  0.00000000000E+00  0.00000000000E+00  0.74505805969E-08  0.10566000000E+00  0.10566000000E+00 0. -1.
     999900   -1    0    0    0    0 -0.00000000000E+00 -0.00000000000E+00 -0.74505805969E-08  0.93827000000E+00  0.93827000000E+00 0.  1.
     999902    2    1    2    0    0  0.13652549544E-01 -0.12063135772E-01 -0.14448895586E-01  0.10206774316E+01  0.10204125330E+01 0.  0.
     999903    2    3    3    0    0  0.30127894460E-01  0.10432463661E+00 -0.70716547942E-01  0.13107999497E+00  0.19743735728E-01 0.  0.
         14    1    1    2    0    0 -0.13652549544E-01  0.12063135772E-01  0.14448895586E-01  0.23252568404E-01  0.00000000000E+00 0. -1.
     999901    1    3    3    0    0 -0.16475344915E-01 -0.11638777238E+00  0.56267652355E-01  0.88959743663E+00  0.88000000000E+00 0. -1.
        -11    1    4    4    0    0  0.87432503621E-02  0.20191276070E-01 -0.23747492510E-01  0.32378026155E-01  0.51100000000E-03 0. -1.
         11    1    4    4    0    0  0.21384644098E-01  0.84133360539E-01 -0.46969055432E-01  0.98701968815E-01  0.51100000000E-03 0.  1.
</event>
<event>
 8    1  0.1060404E+005  0.1043930E+01  0.7957747E-01            NaN
         13   -1    0    0    0    0  0.00000000000E+00  0.00000000000E+00  0.74505805969E-08  0.10566000000E+00  0.10566000000E+00 0. -1.
     999900   -1    0    0    0    0 -0.00000000000E+00 -0.00000000000E+00 -0.74505805969E-08  0.93827000000E+00  0.93827000000E+00 0. -1.
     999902    2    1    2    0    0  0.11182153976E-02 -0.19994887155E-01  0.15178014925E-01  0.10188019667E+01  0.10184920370E+01 0.  0.
     999903    2    3    3    0    0 -0.94828391006E-01  0.44391898813E-01  0.73182317748E-01  0.12935499889E+00  0.20346982228E-01 0.  0.
         14    1    1    2    0    0 -0.11182153976E-02  0.19994887155E-01 -0.15178014925E-01  0.25128033251E-01  0.00000000000E+00 0.  1.
     999901    1    3    3    0    0  0.95946606404E-01 -0.64386785967E-01 -0.58004302823E-01  0.88944696786E+00  0.88000000000E+00 0. -1.
        -11    1    4    4    0    0 -0.37412582048E-01  0.86465841788E-02  0.19894272976E-01  0.43249369148E-01  0.51100000000E-03 0.  1.
         11    1    4    4    0    0 -0.57415808958E-01  0.35745314634E-01  0.53288044772E-01  0.86105629742E-01  0.51100000000E-03 0. -1.
</event>
<event>
 8    1  0.1060404E+005  0.1043930E+01  0.7957747E-01            NaN
         13   -1    0    0    0    0  0.00000000000E+00  0.00000000000E+00  0.74505805969E-08  0.10566000000E+00  0.10566000000E+00 0. -1.
     999900   -1    0    0    0    0 -0.00000000000E+00 -0.00000000000E+00 -0.74505805969E-08  0.93827000000E+00  0.93827000000E+00 0. -1.
     999902    2    1    2    0    0  0.22716548305E-01  0.42120949079E-02 -0.56603298974E-02  0.10201429732E+01  0.10198656103E+01 0.  0.
     999903    2    3    3    0    0 -0.36620191026E-01  0.10000776371E+00  0.71111232240E-01  0.12964225361E+00  0.20191963232E-01 0.  0.
         14    1    1    2    0    0 -0.22716548305E-01 -0.42120949079E-02  0.56603298974E-02  0.23787026820E-01  0.00000000000E+00 0. -1.
     999901    1    3    3    0    0  0.59336739330E-01 -0.95795668798E-01 -0.76771562137E-01  0.89050071957E+00  0.88000000000E+00 0. -1.
        -11    1    4    4    0    0 -0.24275058814E-01  0.55584111335E-01  0.29146999835E-01  0.67295472609E-01  0.51100000000E-03 0.  1.
         11    1    4    4    0    0 -0.12345132211E-01  0.44423652371E-01  0.41964232405E-01  0.62346781005E-01  0.51100000000E-03 0. -1.
</event>
<event>
 8    1  0.1060404E+005  0.1043930E+01  0.7957747E-01            NaN
         13   -1    0    0    0    0  0.00000000000E+00  0.00000000000E+00  0.74505805969E-08  0.10566000000E+00  0.10566000000E+00 0. -1.
     999900   -1    0    0    0    0 -0.00000000000E+00 -0.00000000000E+00 -0.74505805969E-08  0.93827000000E+00  0.93827000000E+00 0.  1.
     999902    2    1    2    0    0  0.33927129532E-02 -0.62349134539E-02 -0.22808015349E-01  0.10200429698E+01  0.10197632422E+01 0.  0.
     999903    2    3    3    0    0 -0.90035204933E-01  0.76878298946E-01  0.45747330955E-01  0.12856306683E+00  0.20470292794E-01 0.  0.
         14    1    1    2    0    0 -0.33927129532E-02  0.62349134539E-02  0.22808015349E-01  0.23887030186E-01  0.00000000000E+00 0. -1.
     999901    1    3    3    0    0  0.93427917886E-01 -0.83113212400E-01 -0.68555346304E-01  0.89147990298E+00  0.88000000000E+00 0.  1.
        -11    1    4    4    0    0 -0.48552422669E-01  0.31021752533E-01  0.28958606625E-01  0.64486811798E-01  0.51100000000E-03 0.  1.
         11    1    4    4    0    0 -0.41482782264E-01  0.45856546413E-01  0.16788724331E-01  0.64076255032E-01  0.51100000000E-03 0. -1.
</event>
<event>
 8    1  0.1060404E+005  0.1043930E+01  0.7957747E-01            NaN
         13   -1    0    0    0    0  0.00000000000E+00  0.00000000000E+00  0.74505805969E-08  0.10566000000E+00  0.10566000000E+00 0.  1.
     999900   -1    0    0    0    0 -0.00000000000E+00 -0.00000000000E+00 -0.74505805969E-08  0.93827000000E+00  0.93827000000E+00 0.  1.
     999902    2    1    2    0    0 -0.95451274263E-02  0.15518421054E-01  0.14310868765E-01  0.10207625268E+01  0.10204995856E+01 0.  0.
     999903    2    3    3    0    0  0.16812735523E-01 -0.19801312582E-02 -0.12626373715E+00  0.12904387381E+00  0.20571850952E-01 0.  0.
         14    1    1    2    0    0  0.95451274263E-02 -0.15518421054E-01 -0.14310868765E-01  0.23167473199E-01  0.00000000000E+00 0. -1.
     999901    1    3    3    0    0 -0.26357862949E-01  0.17498552312E-01  0.14057460592E+00  0.89171865300E+00  0.88000000000E+00 0. -1.
        -11    1    4    4    0    0 -0.31543533653E-02  0.93348721218E-03 -0.51369169717E-01  0.51476927472E-01  0.51100000000E-03 0. -1.
         11    1    4    4    0    0  0.19967088888E-01 -0.29136184704E-02 -0.74894567435E-01  0.77566946333E-01  0.51100000000E-03 0.  1.
</event>
<event>
 8    1  0.1060404E+005  0.1043930E+01  0.7957747E-01            NaN
         13   -1    0    0    0    0  0.00000000000E+00  0.00000000000E+00  0.74505805969E-08  0.10566000000E+00  0.10566000000E+00 0. -1.
     999900   -1    0    0    0    0 -0.00000000000E+00 -0.00000000000E+00 -0.74505805969E-08  0.93827000000E+00  0.93827000000E+00 0. -1.
     999902    2    1    2    0    0 -0.22854219280E-01 -0.63440990931E-02  0.58510452955E-02  0.10195005575E+01  0.10192078242E+01 0.  0.
     999903    2    3    3    0    0 -0.63759343312E-01  0.19767583791E-01 -0.11027789820E+00  0.13054556384E+00  0.20613543523E-01 0.  0.
         14    1    1    2    0    0  0.22854219280E-01  0.63440990931E-02 -0.58510452955E-02  0.24429442549E-01  0.00000000000E+00 0.  1.
     999901    1    3    3    0    0  0.40905124032E-01 -0.26111682884E-01  0.11612894350E+00  0.88895499362E+00  0.88000000000E+00 0.  1.
        -11    1    4    4    0    0 -0.11303538224E-01 -0.34150409799E-02 -0.12608016152E-01  0.17281657142E-01  0.51100000000E-03 0. -1.
         11    1    4    4    0    0 -0.52455805088E-01  0.23182624771E-01 -0.97669882051E-01  0.11326390669E+00  0.51100000000E-03 0.  1.
</event>
<event>
 8    1  0.1060404E+005  0.1043930E+01  0.7957747E-01            NaN
         13   -1    0    0    0    0  0.00000000000E+00  0.00000000000E+00  0.74505805969E-08  0.10566000000E+00  0.10566000000E+00 0. -1.
     999900   -1    0    0    0    0 -0.00000000000E+00 -0.00000000000E+00 -0.74505805969E-08  0.93827000000E+00  0.93827000000E+00 0.  1.
     999902    2    1    2    0    0 -0.16780448086E-01  0.12274256981E-01 -0.10798404073E-01  0.10205025300E+01  0.10202335847E+01 0.  0.
     999903    2    3    3    0    0 -0.22568399800E-01 -0.10375813777E+00 -0.73376594808E-01  0.13066375412E+00  0.20342274999E-01 0.  0.
         14    1    1    2    0    0  0.16780448086E-01 -0.12274256981E-01  0.10798404073E-01  0.23427470049E-01  0.00000000000E+00 0. -1.
     999901    1    3    3    0    0  0.57879517138E-02  0.11603239475E+00  0.62578190736E-01  0.88983877583E+00  0.88000000000E+00 0. -1.
        -11    1    4    4    0    0  0.13905334211E-02 -0.38966919778E-01 -0.24796184870E-01  0.46211106082E-01  0.51100000000E-03 0.  1.
         11    1    4    4    0    0 -0.23958933221E-01 -0.64791217991E-01 -0.48580409938E-01  0.84452648038E-01  0.51100000000E-03 0. -1.
</event>
<event>
 8    1  0.1060404E+005  0.1043930E+01  0.7957747E-01            NaN
         13   -1    0    0    0    0  0.00000000000E+00  0.00000000000E+00  0.74505805969E-08  0.10566000000E+00  0.10566000000E+00 0. -1.
     999900   -1    0    0    0    0 -0.00000000000E+00 -0.00000000000E+00 -0.74505805969E-08  0.93827000000E+00  0.93827000000E+00 0.  1.
     999902    2    1    2    0    0 -0.12187787500E-01 -0.18675376195E-01 -0.47735471770E-02  0.10211243298E+01  0.10208696285E+01 0.  0.
     999903    2    3    3    0    0 -0.35445271858E-01  0.84443988436E-01  0.89973220539E-01  0.12974816683E+00  0.18768375018E-01 0.  0.
         14    1    1    2    0    0  0.12187787500E-01  0.18675376195E-01  0.47735471770E-02  0.22805670190E-01  0.00000000000E+00 0. -1.
     999901    1    3    3    0    0  0.23257484358E-01 -0.10311936463E+00 -0.94746767716E-01  0.89137616298E+00  0.88000000000E+00 0.  1.
        -11    1    4    4    0    0 -0.37630947006E-01  0.76920821675E-01  0.82389859369E-01  0.11883287015E+00  0.51100000000E-03 0.  1.
         11    1    4    4    0    0  0.21856751479E-02  0.75231667610E-02  0.75833611693E-02  0.10915296679E-01  0.51100000000E-03 0. -1.
</event>
<event>
 8    1  0.1060404E+005  0.1043930E+01  0.7957747E-01            NaN
         13   -1    0    0    0    0  0.00000000000E+00  0.00000000000E+00  0.74505805969E-08  0.10566000000E+00  0.10566000000E+00 0.  1.
     999900   -1    0    0    0    0 -0.00000000000E+00 -0.00000000000E+00 -0.74505805969E-08  0.93827000000E+00  0.93827000000E+00 0.  1.
     999902    2    1    2    0    0 -0.52447743755E-02 -0.16818492767E-01 -0.49072780337E-02  0.10256420057E+01  0.10254789482E+01 0.  0.
     999903    2    3    3    0    0 -0.98713359791E-01  0.88447728467E-01 -0.10402128447E-01  0.13443633519E+00  0.19939806206E-01 0.  0.
         14    1    1    2    0    0  0.52447743755E-02  0.16818492767E-01  0.49072780337E-02  0.18287994283E-01  0.00000000000E+00 0. -1.
     999901    1    3    3    0    0  0.93468585416E-01 -0.10526622123E+00  0.54948504132E-02  0.89120567052E+00  0.88000000000E+00 0.  1.
        -11    1    4    4    0    0 -0.31607677181E-01  0.24079151105E-01  0.54397847469E-02  0.40108641884E-01  0.51100000000E-03 0.  1.
         11    1    4    4    0    0 -0.67105682610E-01  0.64368577363E-01 -0.15841913194E-01  0.94327693308E-01  0.51100000000E-03 0. -1.
</event>
<event>
 8    1  0.1060404E+005  0.1043930E+01  0.7957747E-01            NaN
         13   -1    0    0    0    0  0.00000000000E+00  0.00000000000E+00  0.74505805969E-08  0.10566000000E+00  0.10566000000E+00 0.  1.
     999900   -1    0    0    0    0 -0.00000000000E+00 -0.00000000000E+00 -0.74505805969E-08  0.93827000000E+00  0.93827000000E+00 0. -1.
     999902    2    1    2    0    0  0.21981980943E-02 -0.21507548976E-01  0.85540379792E-02  0.10206796601E+01  0.10204148129E+01 0.  0.
     999903    2    3    3    0    0  0.89230450131E-01  0.32985741314E-02 -0.92875220983E-01  0.13024277231E+00  0.19089768056E-01 0.  0.
         14    1    1    2    0    0 -0.21981980943E-02  0.21507548976E-01 -0.85540379792E-02  0.23250339859E-01  0.00000000000E+00 0.  1.
     999901    1    3    3    0    0 -0.87032252036E-01 -0.24806123107E-01  0.10142925896E+00  0.89043688783E+00  0.88000000000E+00 0.  1.
        -11    1    4    4    0    0  0.17162149806E-01 -0.39447571673E-02 -0.10325282926E-01  0.20419918794E-01  0.51100000000E-03 0. -1.
         11    1    4    4    0    0  0.72068300325E-01  0.72433312987E-02 -0.82549938057E-01  0.10982285351E+00  0.51100000000E-03 0.  1.
</event>
<event>
 8    1  0.1060404E+005  0.1043930E+01  0.7957747E-01            NaN
         13   -1    0    0    0    0  0.00000000000E+00  0.00000000000E+00  0.74505805969E-08  0.10566000000E+00  0.10566000000E+00 0.  1.
     999900   -1    0    0    0    0 -0.00000000000E+00 -0.00000000000E+00 -0.74505805969E-08  0.93827000000E+00  0.93827000000E+00 0.  1.
     999902    2    1    2    0    0  0.40147760161E-02  0.42612499539E-02  0.22925238490E-01  0.10202689933E+01  0.10199945958E+01 0.  0.
     999903    2    3    3    0    0  0.58127937734E-01 -0.55967320921E-01  0.10392243589E+00  0.13284786386E+00  0.18370740157E-01 0.  0.
         14    1    1    2    0    0 -0.40147760161E-02 -0.42612499539E-02 -0.22925238490E-01  0.23661006688E-01  0.00000000000E+00 0. -1.
     999901    1    3    3    0    0 -0.54113161718E-01  0.60228570875E-01 -0.80997197397E-01  0.88742112946E+00  0.88000000000E+00 0. -1.
        -11    1    4    4    0    0  0.16806393272E-01 -0.24694993286E-01  0.28151269052E-01  0.41049392425E-01  0.51100000000E-03 0. -1.
         11    1    4    4    0    0  0.41321544462E-01 -0.31272327635E-01  0.75771166835E-01  0.91798471431E-01  0.51100000000E-03 0.  1.
</event>
<event>
 8    1  0.1060404E+005  0.1043930E+01  0.7957747E-01            NaN
         13   -1    0    0    0    0  0.00000000000E+00  0.00000000000E+00  0.74505805969E-08  0.10566000000E+00  0.10566000000E+00 0. -1.
     999900   -1    0    0    0    0 -0.00000000000E+00 -0.00000000000E+00 -0.74505805969E-08  0.93827000000E+00  0.93827000000E+00 0.  1.
     999902    2    1    2    0    0 -0.15280248433E-01 -0.17153441985E-01  0.58628893280E-02  0.10202213510E+01  0.10199458344E+01 0.  0.
     999903    2    3    3    0    0  0.71059348808E-02  0.10012582150E+00 -0.77244738617E-01  0.12827827849E+00  0.20319760037E-01 0.  0.
         14    1    1    2    0    0  0.15280248433E-01  0.17153441985E-01 -0.58628893280E-02  0.23708648957E-01  0.00000000000E+00 0. -1.
     999901    1    3    3    0    0 -0.22386183314E-01 -0.11727926348E+00  0.83107627945E-01  0.89194307255E+00  0.88000000000E+00 0.  1.
        -11    1    4    4    0    0  0.92927162630E-03  0.79912241571E-03 -0.53332747515E-02  0.54960970667E-02  0.51100000000E-03 0.  1.
         11    1    4    4    0    0  0.61766632545E-02  0.99326699082E-01 -0.71911463866E-01  0.12278218143E+00  0.51100000000E-03 0. -1.
</event>
<event>
 8    1  0.1060404E+005  0.1043930E+01  0.7957747E-01            NaN
         13   -1    0    0    0    0  0.00000000000E+00  0.00000000000E+00  0.74505805969E-08  0.10566000000E+00  0.10566000000E+00 0.  1.
     999900   -1    0    0    0    0 -0.00000000000E+00 -0.00000000000E+00 -0.74505805969E-08  0.93827000000E+00  0.93827000000E+00 0.  1.
     999902    2    1    2    0    0 -0.12502597053E-01 -0.20297229484E-01 -0.99668856475E-03  0.10200702882E+01  0.10197912076E+01 0.  0.
     999903    2    3    3    0    0  0.85640509704E-01  0.67914470656E-01 -0.63470057492E-01  0.12804097522E+00  0.20478547539E-01 0.  0.
         14    1    1    2    0    0  0.12502597053E-01  0.20297229484E-01  0.99668856475E-03  0.23859711773E-01  0.00000000000E+00 0. -1.
     999901    1    3    3    0    0 -0.98143106757E-01 -0.88211700140E-01  0.62473368928E-01  0.89202931301E+00  0.88000000000E+00 0. -1.
        -11    1    4    4    0    0  0.63209831796E-01  0.55257699611E-01 -0.39242179820E-01  0.92677429831E-01  0.51100000000E-03 0.  1.
         11    1    4    4    0    0  0.22430677908E-01  0.12656771045E-01 -0.24227877673E-01  0.35363545385E-01  0.51100000000E-03 0. -1.
</event>
<event>
 7    1  0.1060404E+005  0.1043930E+01  0.7957747E-01            NaN
         13   -1    0    0    0    0  0.00000000000E+00  0.00000000000E+00  0.74505805969E-08  0.10566000000E+00  0.10566000000E+00 0.  1.
     999900   -1    0    0    0    0 -0.00000000000E+00 -0.00000000000E+00 -0.74505805969E-08  0.93827000000E+00  0.93827000000E+00 0. -1.
     999903    2    1    2    0    0  0.80014154743E-01  0.60930692335E-01 -0.38163951060E-01  0.10925071138E+00  0.19089697469E-01 0.  0.
         14    1    1    2    0    0  0.28410305790E-01 -0.72392282565E-02 -0.32286333480E-01  0.43611457559E-01  0.00000000000E+00 0. -1.
     999901    1    1    2    0    0 -0.10842446053E+00 -0.53691464078E-01  0.70450284540E-01  0.89106783106E+00  0.88000000000E+00 0.  1.
        -11    1    3    3    0    0  0.61207946200E-01  0.44640583375E-01 -0.19744667274E-01  0.78289893146E-01  0.51100000000E-03 0.  1.
         11    1    3    3    0    0  0.18806208542E-01  0.16290108960E-01 -0.18419283785E-01  0.30960818236E-01  0.51100000000E-03 0. -1.
</event>
<event>
 8    1  0.1287992E+005  0.1043930E+01  0.7957747E-01            NaN
         13   -1    0    0    0    0  0.00000000000E+00  0.00000000000E+00  0.74505805969E-08  0.10566000000E+00  0.10566000000E+00 0.  1.
     999900   -1    0    0    0    0 -0.00000000000E+00 -0.00000000000E+00 -0.74505805969E-08  0.93827000000E+00  0.93827000000E+00 0. -1.
     999902    2    1    2    0    0 -0.19208551959E-01 -0.22802907390E-01 -0.18847907714E-01  0.10086569979E+01  0.10080400561E+01 0.  0.
     999903    2    3    3    0    0 -0.92884125531E-01  0.30488555481E-01  0.66339274900E-01  0.11987978944E+00  0.20328593907E-01 0.  0.
         14    1    1    2    0    0  0.19208551959E-01  0.22802907390E-01  0.18847907714E-01  0.35273002126E-01  0.00000000000E+00 0.  1.
     999901    1    3    3    0    0  0.73675573572E-01 -0.53291462871E-01 -0.85187182614E-01  0.88877720844E+00  0.88000000000E+00 0. -1.
        -11    1    4    4    0    0 -0.36047555854E-01  0.22383238720E-01  0.28631231882E-01  0.51190274650E-01  0.51100000000E-03 0.  1.
         11    1    4    4    0    0 -0.56836569677E-01  0.81053167607E-02  0.37708043017E-01  0.68689514787E-01  0.51100000000E-03 0. -1.
</event>
<event>
 8    1  0.1060404E+005  0.1043930E+01  0.7957747E-01            NaN
         13   -1    0    0    0    0  0.00000000000E+00  0.00000000000E+00  0.74505805969E-08  0.10566000000E+00  0.10566000000E+00 0.  1.
     999900   -1    0    0    0    0 -0.00000000000E+00 -0.00000000000E+00 -0.74505805969E-08  0.93827000000E+00  0.93827000000E+00 0.  1.
     999902    2    1    2    0    0 -0.12092360366E-01  0.36125814617E-02 -0.15524833082E-01  0.10239225922E+01  0.10237271016E+01 0.  0.
     999903    2    3    3    0    0  0.32040818794E-01 -0.10754513174E+00 -0.70541204425E-01  0.13413015809E+00  0.20549169288E-01 0.  0.
         14    1    1    2    0    0  0.12092360366E-01 -0.36125814617E-02  0.15524833082E-01  0.20007407785E-01  0.00000000000E+00 0.  1.
     999901    1    3    3    0    0 -0.44133179159E-01  0.11115771320E+00  0.55016371342E-01  0.88979243412E+00  0.88000000000E+00 0. -1.
        -11    1    4    4    0    0  0.28584456782E-01 -0.10471571648E+00 -0.63445557119E-01  0.12573007710E+00  0.51100000000E-03 0.  1.
         11    1    4    4    0    0  0.34563620114E-02 -0.28294152597E-02 -0.70956473052E-02  0.84000809963E-02  0.51100000000E-03 0. -1.
</event>
<event>
 8    1  0.1060404E+005  0.1043930E+01  0.7957747E-01            NaN
         13   -1    0    0    0    0  0.00000000000E+00  0.00000000000E+00  0.74505805969E-08  0.10566000000E+00  0.10566000000E+00 0.  1.
     999900   -1    0    0    0    0 -0.00000000000E+00 -0.00000000000E+00 -0.74505805969E-08  0.93827000000E+00  0.93827000000E+00 0.  1.
     999902    2    1    2    0    0 -0.14396675070E-01  0.65819669671E-02 -0.18092900534E-01  0.10198896258E+01  0.10196062520E+01 0.  0.
     999903    2    3    3    0    0  0.18445098840E-01 -0.58484174999E-01 -0.11493660346E+00  0.13158174688E+00  0.18512506584E-01 0.  0.
         14    1    1    2    0    0  0.14396675070E-01 -0.65819669671E-02  0.18092900534E-01  0.24040374206E-01  0.00000000000E+00 0.  1.
     999901    1    3    3    0    0 -0.32841773910E-01  0.65066141966E-01  0.96843702928E-01  0.88830787891E+00  0.88000000000E+00 0. -1.
        -11    1    4    4    0    0 -0.19573537765E-02 -0.29326933962E-02 -0.15166388115E-01  0.15579228923E-01  0.51100000000E-03 0. -1.
         11    1    4    4    0    0  0.20402452617E-01 -0.55551481603E-01 -0.99770215347E-01  0.11600251796E+00  0.51100000000E-03 0.  1.
</event>
<event>
 8    1  0.1060404E+005  0.1043930E+01  0.7957747E-01            NaN
         13   -1    0    0    0    0  0.00000000000E+00  0.00000000000E+00  0.74505805969E-08  0.10566000000E+00  0.10566000000E+00 0. -1.
     999900   -1    0    0    0    0 -0.00000000000E+00 -0.00000000000E+00 -0.74505805969E-08  0.93827000000E+00  0.93827000000E+00 0. -1.
     999902    2    1    2    0    0  0.24659067694E-02 -0.20454390486E-01  0.10347092418E-01  0.10208751717E+01  0.10206148103E+01 0.  0.
     999903    2    3    3    0    0  0.33699475292E-01 -0.97877447474E-02 -0.12357120097E+00  0.13013198624E+00  0.20809554345E-01 0.  0.
         14    1    1    2    0    0 -0.24659067694E-02  0.20454390486E-01 -0.10347092418E-01  0.23054828298E-01  0.00000000000E+00 0.  1.
     999901    1    3    3    0    0 -0.31233568523E-01 -0.10666645738E-01  0.13391829339E+00  0.89074318546E+00  0.88000000000E+00 0.  1.
        -11    1    4    4    0    0  0.15940502443E-01  0.38800604850E-02 -0.72887047982E-01  0.74712364252E-01  0.51100000000E-03 0. -1.
         11    1    4    4    0    0  0.17758972849E-01 -0.13667805232E-01 -0.50684152990E-01  0.55419621993E-01  0.51100000000E-03 0.  1.
</event>
<event>
 8    1  0.1060404E+005  0.1043930E+01  0.7957747E-01            NaN
         13   -1    0    0    0    0  0.00000000000E+00  0.00000000000E+00  0.74505805969E-08  0.10566000000E+00  0.10566000000E+00 0. -1.
     999900   -1    0    0    0    0 -0.00000000000E+00 -0.00000000000E+00 -0.74505805969E-08  0.93827000000E+00  0.93827000000E+00 0. -1.
     999902    2    1    2    0    0  0.23485901359E-02 -0.15029292873E-01 -0.18142199951E-01  0.10202543809E+01  0.10199796404E+01 0.  0.
     999903    2    3    3    0    0 -0.12107316536E+00  0.30439370878E-01 -0.31962522693E-01  0.13037161873E+00  0.19745618385E-01 0.  0.
         14    1    1    2    0    0 -0.23485901359E-02  0.15029292873E-01  0.18142199951E-01  0.23675619083E-01  0.00000000000E+00 0. -1.
     999901    1    3    3    0    0  0.12342175549E+00 -0.45468663751E-01  0.13820322742E-01  0.88988276218E+00  0.88000000000E+00 0.  1.
        -11    1    4    4    0    0 -0.53363785715E-01  0.58718089951E-02 -0.20326735919E-01  0.57407395698E-01  0.51100000000E-03 0.  1.
         11    1    4    4    0    0 -0.67709379641E-01  0.24567561883E-01 -0.11635786774E-01  0.72964223035E-01  0.51100000000E-03 0. -1.
</event>
<event>
 8    1  0.1060404E+005  0.1043930E+01  0.7957747E-01            NaN
         13   -1    0    0    0    0  0.00000000000E+00  0.00000000000E+00  0.74505805969E-08  0.10566000000E+00  0.10566000000E+00 0. -1.
     999900   -1    0    0    0    0 -0.00000000000E+00 -0.00000000000E+00 -0.74505805969E-08  0.93827000000E+00  0.93827000000E+00 0.  1.
     999902    2    1    2    0    0 -0.39985762859E-02  0.12304296958E-02  0.24202836519E-01  0.10193682439E+01  0.10190722922E+01 0.  0.
     999903    2    3    3    0    0  0.40873538757E-01 -0.41929337213E-01 -0.11085661265E+00  0.12689004972E+00  0.19575000876E-01 0.  0.
         14    1    1    2    0    0  0.39985762859E-02 -0.12304296958E-02 -0.24202836519E-01  0.24561756148E-01  0.00000000000E+00 0.  1.
     999901    1    3    3    0    0 -0.44872115043E-01  0.43159766909E-01  0.13505944917E+00  0.89247819413E+00  0.88000000000E+00 0. -1.
        -11    1    4    4    0    0  0.34212513823E-01 -0.27183724885E-01 -0.65579776073E-01  0.78806212645E-01  0.51100000000E-03 0.  1.
         11    1    4    4    0    0  0.66610249346E-02 -0.14745612327E-01 -0.45276836582E-01  0.48083837076E-01  0.51100000000E-03 0. -1.
</event>
<event>
 8    1  0.1060404E+005  0.1043930E+01  0.7957747E-01            NaN
         13   -1    0    0    0    0  0.00000000000E+00  0.00000000000E+00  0.74505805969E-08  0.10566000000E+00  0.10566000000E+00 0. -1.
     999900   -1    0    0    0    0 -0.00000000000E+00 -0.00000000000E+00 -0.74505805969E-08  0.93827000000E+00  0.93827000000E+00 0.  1.
     999902    2    1    2    0    0 -0.19550479755E-01 -0.65391188116E-02 -0.14465776670E-01  0.10187458775E+01  0.10184345452E+01 0.  0.
     999903    2    3    3    0    0  0.88229406299E-01 -0.51776561777E-02  0.87962130933E-01  0.12627188138E+00  0.19900132920E-01 0.  0.
         14    1    1    2    0    0  0.19550479755E-01  0.65391188116E-02  0.14465776670E-01  0.25184122541E-01  0.00000000000E+00 0. -1.
     999901    1    3    3    0    0 -0.10777988605E+00 -0.13614626338E-02 -0.10242790760E+00  0.89247399608E+00  0.88000000000E+00 0.  1.
        -11    1    4    4    0    0  0.62684058210E-01  0.50914170883E-02  0.57613445491E-01  0.85292343759E-01  0.51100000000E-03 0. -1.
         11    1    4    4    0    0  0.25545348089E-01 -0.10269073266E-01  0.30348685442E-01  0.40979537623E-01  0.51100000000E-03 0.  1.
</event>
<event>
 8    1  0.1060404E+005  0.1043930E+01  0.7957747E-01            NaN
         13   -1    0    0    0    0  0.00000000000E+00  0.00000000000E+00  0.74505805969E-08  0.10566000000E+00  0.10566000000E+00 0. -1.
     999900   -1    0    0    0    0 -0.00000000000E+00 -0.00000000000E+00 -0.74505805969E-08  0.93827000000E+00  0.93827000000E+00 0. -1.
     999902    2    1    2    0    0  0.36228816485E-02 -0.19423439452E-01  0.12854082256E-01  0.10203583496E+01  0.10200860449E+01 0.  0.
     999903    2    3    3    0    0 -0.10167899652E-01  0.93149224146E-01  0.87212511392E-01  0.12996968940E+00  0.22492973961E-01 0.  0.
         14    1    1    2    0    0 -0.36228816485E-02  0.19423439452E-01 -0.12854082256E-01  0.23571650392E-01  0.00000000000E+00 0.  1.
     999901    1    3    3    0    0  0.13790781301E-01 -0.11257266360E+00 -0.74358429136E-01  0.89038866021E+00  0.88000000000E+00 0. -1.
        -11    1    4    4    0    0 -0.88271666160E-02  0.10814089888E-01  0.11233149126E-01  0.17925071014E-01  0.51100000000E-03 0. -1.
         11    1    4    4    0    0 -0.13407330360E-02  0.82335134258E-01  0.75979362267E-01  0.11204461839E+00  0.51100000000E-03 0.  1.
</event>
<event>
 8    1  0.1060404E+005  0.1043930E+01  0.7957747E-01            NaN
         13   -1    0    0    0    0  0.00000000000E+00  0.00000000000E+00  0.74505805969E-08  0.10566000000E+00  0.10566000000E+00 0. -1.
     999900   -1    0    0    0    0 -0.00000000000E+00 -0.00000000000E+00 -0.74505805969E-08  0.93827000000E+00  0.93827000000E+00 0. -1.
     999902    2    1    2    0    0  0.15009110397E-02  0.13999684154E-01 -0.20730791162E-01  0.10188698804E+01  0.10185616445E+01 0.  0.
     999903    2    3    3    0    0  0.12488528009E+00  0.26160465273E-01  0.11223238054E-01  0.12960465166E+00  0.19766171471E-01 0.  0.
         14    1    1    2    0    0 -0.15009110397E-02 -0.13999684154E-01  0.20730791162E-01  0.25060119564E-01  0.00000000000E+00 0. -1.
     999901    1    3    3    0    0 -0.12338436905E+00 -0.12160781120E-01 -0.31954029216E-01  0.88926522877E+00  0.88000000000E+00 0. -1.
        -11    1    4    4    0    0  0.92722763946E-01  0.26895779164E-01  0.12800675373E-01  0.97391027829E-01  0.51100000000E-03 0. -1.
         11    1    4    4    0    0  0.32162516140E-01 -0.73531389057E-03 -0.15774373187E-02  0.32213623834E-01  0.51100000000E-03 0.  1.
</event>
<event>
 8    1  0.1060404E+005  0.1043930E+01  0.7957747E-01            NaN
         13   -1    0    0    0    0  0.00000000000E+00  0.00000000000E+00  0.74505805969E-08  0.10566000000E+00  0.10566000000E+00 0. -1.
     999900   -1    0    0    0    0 -0.00000000000E+00 -0.00000000000E+00 -0.74505805969E-08  0.93827000000E+00  0.93827000000E+00 0. -1.
     999902    2    1    2    0    0  0.18816104201E-01  0.11309001299E-01 -0.60446730005E-02  0.10211599021E+01  0.10209060036E+01 0.  0.
     999903    2    3    3    0    0 -0.68618861041E-01 -0.13464188263E-01  0.10709733809E+00  0.12927442807E+00  0.18767138042E-01 0.  0.
         14    1    1    2    0    0 -0.18816104201E-01 -0.11309001299E-01  0.60446730005E-02  0.22770097922E-01  0.00000000000E+00 0.  1.
     999901    1    3    3    0    0  0.87434965242E-01  0.24773189561E-01 -0.11314201110E+00  0.89188547401E+00  0.88000000000E+00 0. -1.
        -11    1    4    4    0    0 -0.58568277563E-01 -0.43718323037E-02  0.89638123602E-01  0.10716627444E+00  0.51100000000E-03 0. -1.
         11    1    4    4    0    0 -0.10050583479E-01 -0.90923559588E-02  0.17459214492E-01  0.22108153628E-01  0.51100000000E-03 0.  1.
</event>
<event>
 8    1  0.1060404E+005  0.1043930E+01  0.7957747E-01            NaN
         13   -1    0    0    0    0  0.00000000000E+00  0.00000000000E+00  0.74505805969E-08  0.10566000000E+00  0.10566000000E+00 0.  1.
     999900   -1    0    0    0    0 -0.00000000000E+00 -0.00000000000E+00 -0.74505805969E-08  0.93827000000E+00  0.93827000000E+00 0. -1.
     999902    2    1    2    0    0 -0.30465261738E-02 -0.21608673743E-01 -0.11286105994E-01  0.10193618847E+01  0.10190657779E+01 0.  0.
     999903    2    3    3    0    0  0.11895070562E+00  0.58404631231E-02 -0.47733025640E-01  0.12977481325E+00  0.19485354483E-01 0.  0.
         14    1    1    2    0    0  0.30465261738E-02  0.21608673743E-01  0.11286105994E-01  0.24568115336E-01  0.00000000000E+00 0.  1.
     999901    1    3    3    0    0 -0.12199723179E+00 -0.27449136866E-01  0.36446919646E-01  0.88958707142E+00  0.88000000000E+00 0.  1.
        -11    1    4    4    0    0  0.51269497240E-01  0.36661015485E-02 -0.10388829567E-01  0.52442259186E-01  0.51100000000E-03 0. -1.
         11    1    4    4    0    0  0.67681208382E-01  0.21743615746E-02 -0.37344196074E-01  0.77332554061E-01  0.51100000000E-03 0.  1.
</event>
<event>
 8    1  0.1060404E+005  0.1043930E+01  0.7957747E-01            NaN
         13   -1    0    0    0    0  0.00000000000E+00  0.00000000000E+00  0.74505805969E-08  0.10566000000E+00  0.10566000000E+00 0.  1.
     999900   -1    0    0    0    0 -0.00000000000E+00 -0.00000000000E+00 -0.74505805969E-08  0.93827000000E+00  0.93827000000E+00 0. -1.
     999902    2    1    2    0    0 -0.17905542221E-01  0.41740374269E-02 -0.15575117571E-01  0.10198340394E+01  0.10195493380E+01 0.  0.
     999903    2    3    3    0    0 -0.86609542274E-01 -0.73699919785E-01 -0.60294065779E-01  0.13259992306E+00  0.31850812217E-01 0.  0.
         14    1    1    2    0    0  0.17905542221E-01 -0.41740374269E-02  0.15575117571E-01  0.24095960616E-01  0.00000000000E+00 0.  1.
     999901    1    3    3    0    0  0.68704000053E-01  0.77873957212E-01  0.44718948208E-01  0.88723411632E+00  0.88000000000E+00 0.  1.
        -11    1    4    4    0    0 -0.64133177437E-01 -0.69566876397E-01 -0.53759403671E-01  0.10882531573E+00  0.51100000000E-03 0. -1.
         11    1    4    4    0    0 -0.22476364837E-01 -0.41330433882E-02 -0.65346621075E-02  0.23774607332E-01  0.51100000000E-03 0.  1.
</event>
<event>
 8    1  0.1060404E+005  0.1043930E+01  0.7957747E-01            NaN
         13   -1    0    0    0    0  0.00000000000E+00  0.00000000000E+00  0.74505805969E-08  0.10566000000E+00  0.10566000000E+00 0.  1.
     999900   -1    0    0    0    0 -0.00000000000E+00 -0.00000000000E+00 -0.74505805969E-08  0.93827000000E+00  0.93827000000E+00 0.  1.
     999902    2    1    2    0    0 -0.11935474768E-01 -0.73872269651E-03 -0.20916989855E-01  0.10198359814E+01  0.10195513264E+01 0.  0.
     999903    2    3    3    0    0  0.11718163810E+00 -0.20464428373E-01  0.42477349753E-01  0.12793958907E+00  0.20344140982E-01 0.  0.
         14    1    1    2    0    0  0.11935474768E-01  0.73872269651E-03  0.20916989855E-01  0.24094018630E-01  0.00000000000E+00 0.  1.
     999901    1    3    3    0    0 -0.12911711287E+00  0.19725705676E-01 -0.63394339608E-01  0.89189639230E+00  0.88000000000E+00 0.  1.
        -11    1    4    4    0    0  0.45838796021E-01  0.11195664442E-02  0.11906382188E-01  0.47375855745E-01  0.51100000000E-03 0.  1.
         11    1    4    4    0    0  0.71342842083E-01 -0.21583994817E-01  0.30570967565E-01  0.80563733327E-01  0.51100000000E-03 0. -1.
</event>
<event>
 8    1  0.1060404E+005  0.1043930E+01  0.7957747E-01            NaN
         13   -1    0    0    0    0  0.00000000000E+00  0.00000000000E+00  0.74505805969E-08  0.10566000000E+00  0.10566000000E+00 0.  1.
     999900   -1    0    0    0    0 -0.00000000000E+00 -0.00000000000E+00 -0.74505805969E-08  0.93827000000E+00  0.93827000000E+00 0. -1.
     999902    2    1    2    0    0  0.33690343117E-02  0.21551730131E-01 -0.12341998774E-01  0.10188670313E+01  0.10185587245E+01 0.  0.
     999903    2    3    3    0    0 -0.12017418945E+00  0.78759127208E-02  0.40275823054E-01  0.12857573560E+00  0.20142295099E-01 0.  0.
         14    1    1    2    0    0 -0.33690343117E-02 -0.21551730131E-01  0.12341998774E-01  0.25062968650E-01  0.00000000000E+00 0.  1.
     999901    1    3    3    0    0  0.12354322376E+00  0.13675817410E-01 -0.52617821827E-01  0.89029129575E+00  0.88000000000E+00 0. -1.
        -11    1    4    4    0    0 -0.75122948337E-01 -0.13965262654E-02  0.17057171142E-01  0.77049437771E-01  0.51100000000E-03 0.  1.
         11    1    4    4    0    0 -0.45051241108E-01  0.92724389862E-02  0.23218651912E-01  0.51526297826E-01  0.51100000000E-03 0. -1.
</event>
<event>
 8    1  0.1060404E+005  0.1043930E+01  0.7957747E-01            NaN
         13   -1    0    0    0    0  0.00000000000E+00  0.00000000000E+00  0.74505805969E-08  0.10566000000E+00  0.10566000000E+00 0. -1.
     999900   -1    0    0    0    0 -0.00000000000E+00 -0.00000000000E+00 -0.74505805969E-08  0.93827000000E+00  0.93827000000E+00 0. -1.
     999902    2    1    2    0    0 -0.15274474927E-01  0.54963313127E-02 -0.16784110767E-01  0.10205799333E+01  0.10203127827E+01 0.  0.
     999903    2    3    3    0    0  0.40276877404E-02  0.94861508252E-01  0.86291433837E-01  0.12985928333E+00  0.20057265428E-01 0.  0.
         14    1    1    2    0    0  0.15274474927E-01 -0.54963313127E-02  0.16784110767E-01  0.23350066733E-01  0.00000000000E+00 0. -1.
     999901    1    3    3    0    0 -0.19302162667E-01 -0.89365176939E-01 -0.10307554460E+00  0.89072064994E+00  0.88000000000E+00 0. -1.
        -11    1    4    4    0    0 -0.14665054592E-02  0.82146577307E-01  0.79864865255E-01  0.11458127519E+00  0.51100000000E-03 0. -1.
         11    1    4    4    0    0  0.54941931995E-02  0.12714930945E-01  0.64265685815E-02  0.15278008135E-01  0.51100000000E-03 0.  1.
</event>
<event>
 8    1  0.1060404E+005  0.1043930E+01  0.7957747E-01            NaN
         13   -1    0    0    0    0  0.00000000000E+00  0.00000000000E+00  0.74505805969E-08  0.10566000000E+00  0.10566000000E+00 0. -1.
     999900   -1    0    0    0    0 -0.00000000000E+00 -0.00000000000E+00 -0.74505805969E-08  0.93827000000E+00  0.93827000000E+00 0.  1.
     999902    2    1    2    0    0  0.62067277279E-02  0.12184610434E-01  0.26917780916E-01  0.10137380287E+01  0.10132883280E+01 0.  0.
     999903    2    3    3    0    0  0.10902712264E+00 -0.55592196006E-01  0.16079823570E-01  0.12509682417E+00  0.20328525846E-01 0.  0.
         14    1    1    2    0    0 -0.62067277279E-02 -0.12184610434E-01 -0.26917780916E-01  0.30191971283E-01  0.00000000000E+00 0.  1.
     999901    1    3    3    0    0 -0.10282039491E+00  0.67776806441E-01  0.10837957346E-01  0.88864120455E+00  0.88000000000E+00 0.  1.
        -11    1    4    4    0    0  0.56873750715E-01 -0.37612534222E-01  0.15492642671E-01  0.69925741676E-01  0.51100000000E-03 0. -1.
         11    1    4    4    0    0  0.52153371925E-01 -0.17979661785E-01  0.58718089929E-03  0.55171082493E-01  0.51100000000E-03 0.  1.
</event>
<event>
 8    1  0.1060404E+005  0.1043930E+01  0.7957747E-01            NaN
         13   -1    0    0    0    0  0.00000000000E+00  0.00000000000E+00  0.74505805969E-08  0.10566000000E+00  0.10566000000E+00 0. -1.
     999900   -1    0    0    0    0 -0.00000000000E+00 -0.00000000000E+00 -0.74505805969E-08  0.93827000000E+00  0.93827000000E+00 0. -1.
     999902    2    1    2    0    0 -0.21210524446E-01 -0.77704977896E-03  0.11265573853E-01  0.10199007822E+01  0.10196176745E+01 0.  0.
     999903    2    3    3    0    0 -0.26800983658E-01 -0.19575338136E-01 -0.12351307841E+00  0.12942343045E+00  0.19835756149E-01 0.  0.
         14    1    1    2    0    0  0.21210524446E-01  0.77704977896E-03 -0.11265573853E-01  0.24029217796E-01  0.00000000000E+00 0.  1.
     999901    1    3    3    0    0  0.55904592121E-02  0.18798288358E-01  0.13477865227E+00  0.89047735175E+00  0.88000000000E+00 0.  1.
        -11    1    4    4    0    0 -0.12365861914E-01 -0.37251398277E-02 -0.20745827808E-01  0.24442620565E-01  0.51100000000E-03 0. -1.
         11    1    4    4    0    0 -0.14435121744E-01 -0.15850198309E-01 -0.10276725061E+00  0.10498080989E+00  0.51100000000E-03 0.  1.
</event>
<event>
 8    1  0.1060404E+005  0.1043930E+01  0.7957747E-01            NaN
         13   -1    0    0    0    0  0.00000000000E+00  0.00000000000E+00  0.74505805969E-08  0.10566000000E+00  0.10566000000E+00 0. -1.
     999900   -1    0    0    0    0 -0.00000000000E+00 -0.00000000000E+00 -0.74505805969E-08  0.93827000000E+00  0.93827000000E+00 0. -1.
     999902    2    1    2    0    0  0.10913185390E-02 -0.60823098981E-02 -0.22486554695E-01  0.10206098239E+01  0.10203433648E+01 0.  0.
     999903    2    3    3    0    0  0.91202311830E-01 -0.87195050810E-01  0.28338863167E-01  0.13084441049E+00  0.19908039148E-01 0.  0.
         14    1    1    2    0    0 -0.10913185390E-02  0.60823098981E-02  0.22486554695E-01  0.23320176069E-01  0.00000000000E+00 0. -1.
     999901    1    3    3    0    0 -0.90110993291E-01  0.81112740912E-01 -0.50825417862E-01  0.88976541344E+00  0.88000000000E+00 0. -1.
        -11    1    4    4    0    0  0.64581507918E-01 -0.68631354489E-01  0.28258064284E-01  0.98386042212E-01  0.51100000000E-03 0. -1.
         11    1    4    4    0    0  0.26620803912E-01 -0.18563696320E-01  0.80798882770E-04  0.32458368281E-01  0.51100000000E-03 0.  1.
</event>
<event>
 8    1  0.1060404E+005  0.1043930E+01  0.7957747E-01            NaN
         13   -1    0    0    0    0  0.00000000000E+00  0.00000000000E+00  0.74505805969E-08  0.10566000000E+00  0.10566000000E+00 0. -1.
     999900   -1    0    0    0    0 -0.00000000000E+00 -0.00000000000E+00 -0.74505805969E-08  0.93827000000E+00  0.93827000000E+00 0.  1.
     999902    2    1    2    0    0 -0.94169138969E-02 -0.18201972032E-01 -0.12809074433E-01  0.10197626162E+01  0.10194762042E+01 0.  0.
     999903    2    3    3    0    0  0.84662812520E-01  0.80618939319E-01  0.46146109191E-01  0.12729845380E+00  0.20204646640E-01 0.  0.
         14    1    1    2    0    0  0.94169138969E-02  0.18201972032E-01  0.12809074433E-01  0.24167383827E-01  0.00000000000E+00 0. -1.
     999901    1    3    3    0    0 -0.94079726417E-01 -0.98820911351E-01 -0.58955183624E-01  0.89246416237E+00  0.88000000000E+00 0.  1.
        -11    1    4    4    0    0  0.13129124546E-01  0.66222033235E-02  0.53559047929E-03  0.14723296722E-01  0.51100000000E-03 0. -1.
         11    1    4    4    0    0  0.71533687974E-01  0.73996735996E-01  0.45610518712E-01  0.11257515708E+00  0.51100000000E-03 0.  1.
</event>
<event>
 8    1  0.1060404E+005  0.1043930E+01  0.7957747E-01            NaN
         13   -1    0    0    0    0  0.00000000000E+00  0.00000000000E+00  0.74505805969E-08  0.10566000000E+00  0.10566000000E+00 0. -1.
     999900   -1    0    0    0    0 -0.00000000000E+00 -0.00000000000E+00 -0.74505805969E-08  0.93827000000E+00  0.93827000000E+00 0. -1.
     999902    2    1    2    0    0  0.78251351835E-02  0.19430808201E-01  0.14076979543E-01  0.10186921237E+01  0.10183794442E+01 0.  0.
     999903    2    3    3    0    0 -0.10880361950E+00  0.51454077190E-01 -0.40451663181E-01  0.12874767089E+00  0.21304366477E-01 0.  0.
         14    1    1    2    0    0 -0.78251351835E-02 -0.19430808201E-01 -0.14076979543E-01  0.25237876318E-01  0.00000000000E+00 0.  1.
     999901    1    3    3    0    0  0.11662875468E+00 -0.32023268989E-01  0.54528642724E-01  0.88994445279E+00  0.88000000000E+00 0.  1.
        -11    1    4    4    0    0 -0.36173151560E-01  0.72332332735E-02 -0.16422849961E-01  0.40383012260E-01  0.51100000000E-03 0. -1.
         11    1    4    4    0    0 -0.72630467936E-01  0.44220843916E-01 -0.24028813220E-01  0.88364658632E-01  0.51100000000E-03 0.  1.
</event>
<event>
 8    1  0.1060404E+005  0.1043930E+01  0.7957747E-01            NaN
         13   -1    0    0    0    0  0.00000000000E+00  0.00000000000E+00  0.74505805969E-08  0.10566000000E+00  0.10566000000E+00 0.  1.
     999900   -1    0    0    0    0 -0.00000000000E+00 -0.00000000000E+00 -0.74505805969E-08  0.93827000000E+00  0.93827000000E+00 0. -1.
     999902    2    1    2    0    0 -0.10816937440E-01  0.13617170748E-01  0.17257627262E-01  0.10194298128E+01  0.10191353610E+01 0.  0.
     999903    2    3    3    0    0 -0.10289090925E+00 -0.15549156029E-01  0.78739046478E-01  0.13201319371E+00  0.19983253349E-01 0.  0.
         14    1    1    2    0    0  0.10816937440E-01 -0.13617170748E-01 -0.17257627262E-01  0.24500187213E-01  0.00000000000E+00 0. -1.
     999901    1    3    3    0    0  0.92073971808E-01  0.29166326777E-01 -0.61481419217E-01  0.88741661908E+00  0.88000000000E+00 0. -1.
        -11    1    4    4    0    0 -0.42282223473E-01 -0.11942703518E-01  0.23022364364E-01  0.49605493356E-01  0.51100000000E-03 0.  1.
         11    1    4    4    0    0 -0.60608685776E-01 -0.36064525110E-02  0.55716682114E-01  0.82407700356E-01  0.51100000000E-03 0. -1.
</event>
<event>
 8    1  0.1060404E+005  0.1043930E+01  0.7957747E-01            NaN
         13   -1    0    0    0    0  0.00000000000E+00  0.00000000000E+00  0.74505805969E-08  0.10566000000E+00  0.10566000000E+00 0. -1.
     999900   -1    0    0    0    0 -0.00000000000E+00 -0.00000000000E+00 -0.74505805969E-08  0.93827000000E+00  0.93827000000E+00 0.  1.
     999902    2    1    2    0    0 -0.11164140407E-01 -0.20520982719E-01  0.82841653674E-02  0.10191433875E+01  0.10188419250E+01 0.  0.
     999903    2    3    3    0    0  0.50154152952E-01  0.10186276271E+00  0.53971537060E-01  0.12738946956E+00  0.20583698841E-01 0.  0.
         14    1    1    2    0    0  0.11164140407E-01  0.20520982719E-01 -0.82841653674E-02  0.24786612488E-01  0.00000000000E+00 0.  1.
     999901    1    3    3    0    0 -0.61318293359E-01 -0.12238374543E+00 -0.45687371693E-01  0.89175391795E+00  0.88000000000E+00 0.  1.
        -11    1    4    4    0    0  0.46154044691E-01  0.90728060975E-01  0.54633378072E-01  0.11552854197E+00  0.51100000000E-03 0.  1.
         11    1    4    4    0    0  0.40001082610E-02  0.11134701733E-01 -0.66184101210E-03  0.11860927590E-01  0.51100000000E-03 0. -1.
</event>
<event>
 8    1  0.1060404E+005  0.1043930E+01  0.7957747E-01            NaN
         13   -1    0    0    0    0  0.00000000000E+00  0.00000000000E+00  0.74505805969E-08  0.10566000000E+00  0.10566000000E+00 0.  1.
     999900   -1    0    0    0    0 -0.00000000000E+00 -0.00000000000E+00 -0.74505805969E-08  0.93827000000E+00  0.93827000000E+00 0.  1.
     999902    2    1    2    0    0  0.78377792311E-02  0.23506684514E-01  0.31445222841E-02  0.10189523496E+01  0.10186461641E+01 0.  0.
     999903    2    3    3    0    0 -0.79548296845E-01  0.67943451618E-01  0.75473366820E-01  0.13055918531E+00  0.20130266322E-01 0.  0.
         14    1    1    2    0    0 -0.78377792311E-02 -0.23506684514E-01 -0.31445222841E-02  0.24977650420E-01  0.00000000000E+00 0.  1.
     999901    1    3    3    0    0  0.87386076076E-01 -0.44436767104E-01 -0.72328844535E-01  0.88839316427E+00  0.88000000000E+00 0.  1.
        -11    1    4    4    0    0 -0.57150400940E-01  0.56464046191E-01  0.64799604741E-01  0.10321631041E+00  0.51100000000E-03 0.  1.
         11    1    4    4    0    0 -0.22397895904E-01  0.11479405427E-01  0.10673762078E-01  0.27342874900E-01  0.51100000000E-03 0. -1.
</event>
<event>
 8    1  0.1060404E+005  0.1043930E+01  0.7957747E-01            NaN
         13   -1    0    0    0    0  0.00000000000E+00  0.00000000000E+00  0.74505805969E-08  0.10566000000E+00  0.10566000000E+00 0.  1.
     999900   -1    0    0    0    0 -0.00000000000E+00 -0.00000000000E+00 -0.74505805969E-08  0.93827000000E+00  0.93827000000E+00 0. -1.
     999902    2    1    2    0    0  0.28991690787E-01 -0.21224236288E-02 -0.19020582876E-02  0.10147985626E+01  0.10143803439E+01 0.  0.
     999903    2    3    3    0    0  0.96984948750E-01  0.54183257107E-01  0.60784243920E-01  0.12816279453E+00  0.19724907049E-01 0.  0.
         14    1    1    2    0    0 -0.28991690787E-01  0.21224236288E-02  0.19020582876E-02  0.29131437357E-01  0.00000000000E+00 0. -1.
     999901    1    3    3    0    0 -0.67993257963E-01 -0.56305680736E-01 -0.62686302208E-01  0.88663576811E+00  0.88000000000E+00 0. -1.
        -11    1    4    4    0    0  0.77444171115E-01  0.39490747610E-01  0.55518303625E-01  0.10314873700E+00  0.51100000000E-03 0. -1.
         11    1    4    4    0    0  0.19540777635E-01  0.14692509497E-01  0.52659402960E-02  0.25014057530E-01  0.51100000000E-03 0.  1.
</event>
<event>
 7    1  0.1060404E+005  0.1043930E+01  0.7957747E-01            NaN
         13   -1    0    0    0    0  0.00000000000E+00  0.00000000000E+00  0.74505805969E-08  0.10566000000E+00  0.10566000000E+00 0. -1.
     999900   -1    0    0    0    0 -0.00000000000E+00 -0.00000000000E+00 -0.74505805969E-08  0.93827000000E+00  0.93827000000E+00 0. -1.
     999902    2    1    2    0    0  0.10427006937E-01 -0.10466381266E-01 -0.18744096277E-01  0.10200635223E+01  0.10197842815E+01 0.  0.
         14    1    1    2    0    0 -0.10427006937E-01  0.10466381266E-01  0.18744096277E-01  0.23866477656E-01  0.00000000000E+00 0. -1.
     999901    1    3    3    0    0 -0.91162478278E-01 -0.75124097754E-01  0.15995362546E-01  0.88803720594E+00  0.88000000000E+00 0. -1.
        -11    1    3    3    0    0  0.51247273388E-01  0.53464689737E-01 -0.96942300129E-02  0.74692672297E-01  0.51100000000E-03 0.  1.
         11    1    3    3    0    0  0.50342211827E-01  0.11193026752E-01 -0.25045228810E-01  0.57333644108E-01  0.51100000000E-03 0. -1.
</event>
<event>
 8    1  0.1060404E+005  0.1043930E+01  0.7957747E-01            NaN
         13   -1    0    0    0    0  0.00000000000E+00  0.00000000000E+00  0.74505805969E-08  0.10566000000E+00  0.10566000000E+00 0.  1.
     999900   -1    0    0    0    0 -0.00000000000E+00 -0.00000000000E+00 -0.74505805969E-08  0.93827000000E+00  0.93827000000E+00 0.  1.
     999902    2    1    2    0    0  0.36393775696E-02 -0.14706005017E-01  0.18566776053E-01  0.10199667610E+01  0.10196852243E+01 0.  0.
     999903    2    3    3    0    0 -0.11112923213E+00 -0.38686764888E-01  0.54970256346E-01  0.13144432230E+00  0.20236323016E-01 0.  0.
         14    1    1    2    0    0 -0.36393775696E-02  0.14706005017E-01 -0.18566776053E-01  0.23963239048E-01  0.00000000000E+00 0. -1.
     999901    1    3    3    0    0  0.11476860970E+00  0.23980759871E-01 -0.36403480293E-01  0.88852243866E+00  0.88000000000E+00 0.  1.
        -11    1    4    4    0    0 -0.23262473227E-01 -0.13190203930E-01  0.50511460080E-02  0.27219466147E-01  0.51100000000E-03 0. -1.
         11    1    4    4    0    0 -0.87866758906E-01 -0.25496560959E-01  0.49919110338E-01  0.10422485615E+00  0.51100000000E-03 0.  1.
</event>
<event>
 7    1  0.1060404E+005  0.1043930E+01  0.7957747E-01            NaN
         13   -1    0    0    0    0  0.00000000000E+00  0.00000000000E+00  0.74505805969E-08  0.10566000000E+00  0.10566000000E+00 0. -1.
     999900   -1    0    0    0    0 -0.00000000000E+00 -0.00000000000E+00 -0.74505805969E-08  0.93827000000E+00  0.93827000000E+00 0. -1.
     999902    2    1    2    0    0  0.19645485631E-01  0.10529419496E-02  0.14793784893E-01  0.10193147636E+01  0.10190175059E+01 0.  0.
         14    1    1    2    0    0 -0.19645485631E-01 -0.10529419496E-02 -0.14793784893E-01  0.24615236417E-01  0.00000000000E+00 0. -1.
     999901    1    3    3    0    0  0.48313608532E-02  0.12498194565E+00  0.32638485605E-02  0.88885008944E+00  0.88000000000E+00 0. -1.
        -11    1    3    3    0    0  0.16577143051E-01 -0.87679526774E-01 -0.73785163679E-02  0.89538844709E-01  0.51100000000E-03 0.  1.
         11    1    3    3    0    0 -0.17630182735E-02 -0.36249476922E-01  0.18908452700E-01  0.40925829436E-01  0.51100000000E-03 0. -1.
</event>
<event>
 8    1  0.1060404E+005  0.1043930E+01  0.7957747E-01            NaN
         13   -1    0    0    0    0  0.00000000000E+00  0.00000000000E+00  0.74505805969E-08  0.10566000000E+00  0.10566000000E+00 0.  1.
     999900   -1    0    0    0    0 -0.00000000000E+00 -0.00000000000E+00 -0.74505805969E-08  0.93827000000E+00  0.93827000000E+00 0. -1.
     999902    2    1    2    0    0 -0.84002874522E-02  0.17986923596E-01 -0.98282582369E-02  0.10217785010E+01  0.10215383576E+01 0.  0.
     999903    2    3    3    0    0  0.10120463500E+00  0.81572885674E-01 -0.14734193748E-01  0.13268880818E+00  0.22197061289E-01 0.  0.
         14    1    1    2    0    0  0.84002874522E-02 -0.17986923596E-01  0.98282582369E-02  0.22151499039E-01  0.00000000000E+00 0.  1.
     999901    1    3    3    0    0 -0.10960492245E+00 -0.63585962078E-01  0.49059355111E-02  0.88908969278E+00  0.88000000000E+00 0.  1.
        -11    1    4    4    0    0  0.25888297112E-01  0.25568217232E-01  0.51368560766E-02  0.36750320694E-01  0.51100000000E-03 0.  1.
         11    1    4    4    0    0  0.75316337885E-01  0.56004668442E-01 -0.19871049825E-01  0.95938487490E-01  0.51100000000E-03 0. -1.
</event>
<event>
 8    1  0.1060404E+005  0.1043930E+01  0.7957747E-01            NaN
         13   -1    0    0    0    0  0.00000000000E+00  0.00000000000E+00  0.74505805969E-08  0.10566000000E+00  0.10566000000E+00 0.  1.
     999900   -1    0    0    0    0 -0.00000000000E+00 -0.00000000000E+00 -0.74505805969E-08  0.93827000000E+00  0.93827000000E+00 0. -1.
     999902    2    1    2    0    0  0.16383458134E-01 -0.13890031140E-01  0.95658309844E-02  0.10204171144E+01  0.10201461815E+01 0.  0.
     999903    2    3    3    0    0  0.89461213143E-01  0.53758799315E-01  0.78753521095E-01  0.13210204701E+00  0.18855147274E-01 0.  0.
         14    1    1    2    0    0 -0.16383458134E-01  0.13890031140E-01 -0.95658309844E-02  0.23512885572E-01  0.00000000000E+00 0. -1.
     999901    1    3    3    0    0 -0.73077755009E-01 -0.67648830455E-01 -0.69187690110E-01  0.88831506742E+00  0.88000000000E+00 0. -1.
        -11    1    4    4    0    0  0.48411757043E-01  0.26022093914E-01  0.30117833867E-01  0.62675295209E-01  0.51100000000E-03 0. -1.
         11    1    4    4    0    0  0.41049456099E-01  0.27736705402E-01  0.48635687228E-01  0.69426751801E-01  0.51100000000E-03 0.  1.
</event>
<event>
 8    1  0.1060404E+005  0.1043930E+01  0.7957747E-01            NaN
         13   -1    0    0    0    0  0.00000000000E+00  0.00000000000E+00  0.74505805969E-08  0.10566000000E+00  0.10566000000E+00 0.  1.
     999900   -1    0    0    0    0 -0.00000000000E+00 -0.00000000000E+00 -0.74505805969E-08  0.93827000000E+00  0.93827000000E+00 0. -1.
     999902    2    1    2    0    0  0.22356476574E-01  0.90730265312E-02  0.36627243573E-02  0.10195261600E+01  0.10192340475E+01 0.  0.
     999903    2    3    3    0    0 -0.66042786830E-01 -0.86504523657E-01  0.64165212523E-01  0.12789279988E+00  0.19867346513E-01 0.  0.
         14    1    1    2    0    0 -0.22356476574E-01 -0.90730265312E-02 -0.36627243573E-02  0.24403839964E-01  0.00000000000E+00 0. -1.
     999901    1    3    3    0    0  0.88399263404E-01  0.95577550189E-01 -0.60502488165E-01  0.89163336016E+00  0.88000000000E+00 0.  1.
        -11    1    4    4    0    0 -0.41950357856E-01 -0.62347804970E-01  0.34544592933E-01  0.82708351034E-01  0.51100000000E-03 0. -1.
         11    1    4    4    0    0 -0.24092428974E-01 -0.24156718687E-01  0.29620619590E-01  0.45184448846E-01  0.51100000000E-03 0.  1.
</event>
<event>
 8    1  0.1060404E+005  0.1043930E+01  0.7957747E-01            NaN
         13   -1    0    0    0    0  0.00000000000E+00  0.00000000000E+00  0.74505805969E-08  0.10566000000E+00  0.10566000000E+00 0. -1.
     999900   -1    0    0    0    0 -0.00000000000E+00 -0.00000000000E+00 -0.74505805969E-08  0.93827000000E+00  0.93827000000E+00 0. -1.
     999902    2    1    2    0    0  0.61726579728E-02 -0.40364288740E-02  0.23188095779E-01  0.10195972597E+01  0.10193068673E+01 0.  0.
     999903    2    3    3    0    0  0.88603236761E-01  0.31706590717E-01 -0.85697433979E-01  0.12834621630E+00  0.16518462074E-01 0.  0.
         14    1    1    2    0    0 -0.61726579728E-02  0.40364288740E-02 -0.23188095779E-01  0.24332740297E-01  0.00000000000E+00 0.  1.
     999901    1    3    3    0    0 -0.82430578789E-01 -0.35743019591E-01  0.10888552976E+00  0.89125104340E+00  0.88000000000E+00 0.  1.
        -11    1    4    4    0    0  0.85354050644E-02  0.83003070083E-02 -0.80505794922E-02  0.14381279053E-01  0.51100000000E-03 0. -1.
         11    1    4    4    0    0  0.80067831697E-01  0.23406283709E-01 -0.77646854487E-01  0.11396493725E+00  0.51100000000E-03 0.  1.
</event>
<event>
 8    1  0.1060404E+005  0.1043930E+01  0.7957747E-01            NaN
         13   -1    0    0    0    0  0.00000000000E+00  0.00000000000E+00  0.74505805969E-08  0.10566000000E+00  0.10566000000E+00 0. -1.
     999900   -1    0    0    0    0 -0.00000000000E+00 -0.00000000000E+00 -0.74505805969E-08  0.93827000000E+00  0.93827000000E+00 0. -1.
     999902    2    1    2    0    0  0.19807124122E-01 -0.42331029852E-02  0.12487817469E-01  0.10201353176E+01  0.10198577740E+01 0.  0.
     999903    2    3    3    0    0 -0.10756860671E+00 -0.66850721645E-01 -0.10244484298E-01  0.12847265685E+00  0.18980252038E-01 0.  0.
         14    1    1    2    0    0 -0.19807124122E-01  0.42331029852E-02 -0.12487817469E-01  0.23794682432E-01  0.00000000000E+00 0.  1.
     999901    1    3    3    0    0  0.12737573083E+00  0.62617618659E-01  0.22732301767E-01  0.89166266072E+00  0.88000000000E+00 0.  1.
        -11    1    4    4    0    0 -0.36813859685E-01 -0.16449411967E-01  0.36758895193E-02  0.40492180772E-01  0.51100000000E-03 0. -1.
         11    1    4    4    0    0 -0.70754747020E-01 -0.50401309678E-01 -0.13920373817E-01  0.87980476081E-01  0.51100000000E-03 0.  1.
</event>
<event>
 8    1  0.1060404E+005  0.1043930E+01  0.7957747E-01            NaN
         13   -1    0    0    0    0  0.00000000000E+00  0.00000000000E+00  0.74505805969E-08  0.10566000000E+00  0.10566000000E+00 0. -1.
     999900   -1    0    0    0    0 -0.00000000000E+00 -0.00000000000E+00 -0.74505805969E-08  0.93827000000E+00  0.93827000000E+00 0. -1.
     999902    2    1    2    0    0  0.55681715293E-02 -0.22181302193E-01 -0.68211046181E-03  0.10210503152E+01  0.10207939392E+01 0.  0.
     999903    2    3    3    0    0  0.12676374734E+00  0.18815053380E-01 -0.21881777567E-01  0.13154568080E+00  0.20059912102E-01 0.  0.
         14    1    1    2    0    0 -0.55681715293E-02  0.22181302193E-01  0.68211046181E-03  0.22879684785E-01  0.00000000000E+00 0.  1.
     999901    1    3    3    0    0 -0.12119557581E+00 -0.40996355573E-01  0.21199667105E-01  0.88950463442E+00  0.88000000000E+00 0.  1.
        -11    1    4    4    0    0  0.90020245790E-01  0.17129393073E-01 -0.71352118087E-02  0.91914270533E-01  0.51100000000E-03 0. -1.
         11    1    4    4    0    0  0.36743501550E-01  0.16856603067E-02 -0.14746565759E-01  0.39631410264E-01  0.51100000000E-03 0.  1.
</event>
<event>
 8    1  0.1060404E+005  0.1043930E+01  0.7957747E-01            NaN
         13   -1    0    0    0    0  0.00000000000E+00  0.00000000000E+00  0.74505805969E-08  0.10566000000E+00  0.10566000000E+00 0.  1.
     999900   -1    0    0    0    0 -0.00000000000E+00 -0.00000000000E+00 -0.74505805969E-08  0.93827000000E+00  0.93827000000E+00 0.  1.
     999902    2    1    2    0    0 -0.19338074493E-01 -0.12018501203E-01 -0.55937316200E-02  0.10204844177E+01  0.10202150516E+01 0.  0.
     999903    2    3    3    0    0 -0.65020953647E-01  0.11031283024E+00 -0.17399815159E-01  0.13077027050E+00  0.20036595318E-01 0.  0.
         14    1    1    2    0    0  0.19338074493E-01  0.12018501203E-01  0.55937316200E-02  0.23445582307E-01  0.00000000000E+00 0.  1.
     999901    1    3    3    0    0  0.45682879153E-01 -0.12233133144E+00  0.11806083539E-01  0.88971414719E+00  0.88000000000E+00 0. -1.
        -11    1    4    4    0    0 -0.45991008985E-01  0.64484588035E-01 -0.17629344674E-01  0.81144869931E-01  0.51100000000E-03 0.  1.
         11    1    4    4    0    0 -0.19029944661E-01  0.45828242203E-01  0.22952951492E-03  0.49625400573E-01  0.51100000000E-03 0. -1.
</event>
<event>
 8    1  0.1060404E+005  0.1043930E+01  0.7957747E-01            NaN
         13   -1    0    0    0    0  0.00000000000E+00  0.00000000000E+00  0.74505805969E-08  0.10566000000E+00  0.10566000000E+00 0. -1.
     999900   -1    0    0    0    0 -0.00000000000E+00 -0.00000000000E+00 -0.74505805969E-08  0.93827000000E+00  0.93827000000E+00 0. -1.
     999902    2    1    2    0    0  0.12322542145E-01  0.15926858938E-01 -0.15728024421E-01  0.10183784710E+01  0.10180578715E+01 0.  0.
     999903    2    3    3    0    0  0.72536230914E-01  0.75339579624E-01  0.74161012776E-01  0.12976404469E+00  0.20032334481E-01 0.  0.
         14    1    1    2    0    0 -0.12322542145E-01 -0.15926858938E-01  0.15728024421E-01  0.25551528970E-01  0.00000000000E+00 0. -1.
     999901    1    3    3    0    0 -0.60213688769E-01 -0.59412720686E-01 -0.89889037197E-01  0.88861442634E+00  0.88000000000E+00 0. -1.
        -11    1    4    4    0    0  0.33349432614E-02  0.12118646875E-01  0.11245863579E-01  0.16873470813E-01  0.51100000000E-03 0. -1.
         11    1    4    4    0    0  0.69201287652E-01  0.63220932749E-01  0.62915149197E-01  0.11289057388E+00  0.51100000000E-03 0.  1.
</event>
<event>
 8    1  0.1060404E+005  0.1043930E+01  0.7957747E-01            NaN
         13   -1    0    0    0    0  0.00000000000E+00  0.00000000000E+00  0.74505805969E-08  0.10566000000E+00  0.10566000000E+00 0.  1.
     999900   -1    0    0    0    0 -0.00000000000E+00 -0.00000000000E+00 -0.74505805969E-08  0.93827000000E+00  0.93827000000E+00 0.  1.
     999902    2    1    2    0    0 -0.13076123992E-01  0.14234483076E-01  0.13469395079E-01  0.10203709225E+01  0.10200989116E+01 0.  0.
     999903    2    3    3    0    0 -0.75074948416E-02 -0.12061418540E+00  0.42466595561E-01  0.12960944456E+00  0.19775039351E-01 0.  0.
         14    1    1    2    0    0  0.13076123992E-01 -0.14234483076E-01 -0.13469395079E-01  0.23559077462E-01  0.00000000000E+00 0. -1.
     999901    1    3    3    0    0 -0.55686291500E-02  0.13484866847E+00 -0.28997200482E-01  0.89076147798E+00  0.88000000000E+00 0. -1.
        -11    1    4    4    0    0 -0.10363824735E-01 -0.10706434181E+00  0.31941125232E-01  0.11220819379E+00  0.51100000000E-03 0.  1.
         11    1    4    4    0    0  0.28563298930E-02 -0.13549843586E-01  0.10525470329E-01  0.17401250768E-01  0.51100000000E-03 0. -1.
</event>
<event>
 8    1  0.1060404E+005  0.1043930E+01  0.7957747E-01            NaN
         13   -1    0    0    0    0  0.00000000000E+00  0.00000000000E+00  0.74505805969E-08  0.10566000000E+00  0.10566000000E+00 0. -1.
     999900   -1    0    0    0    0 -0.00000000000E+00 -0.00000000000E+00 -0.74505805969E-08  0.93827000000E+00  0.93827000000E+00 0.  1.
     999902    2    1    2    0    0 -0.59263246664E-02 -0.11149962673E-02  0.22872194694E-01  0.10202762090E+01  0.10200019807E+01 0.  0.
     999903    2    3    3    0    0 -0.72120833203E-01  0.94312227361E-01  0.54065518060E-01  0.13209768445E+00  0.20748666991E-01 0.  0.
         14    1    1    2    0    0  0.59263246664E-02  0.11149962673E-02 -0.22872194694E-01  0.23653791046E-01  0.00000000000E+00 0.  1.
     999901    1    3    3    0    0  0.66194508537E-01 -0.95427223628E-01 -0.31193323367E-01  0.88817852451E+00  0.88000000000E+00 0.  1.
        -11    1    4    4    0    0 -0.42248193213E-01  0.48228373109E-01  0.39383791422E-01  0.75247790335E-01  0.51100000000E-03 0.  1.
         11    1    4    4    0    0 -0.29872639990E-01  0.46083854252E-01  0.14681726638E-01  0.56849894114E-01  0.51100000000E-03 0. -1.
</event>
<event>
 8    1  0.1060404E+005  0.1043930E+01  0.7957747E-01            NaN
         13   -1    0    0    0    0  0.00000000000E+00  0.00000000000E+00  0.74505805969E-08  0.10566000000E+00  0.10566000000E+00 0. -1.
     999900   -1    0    0    0    0 -0.00000000000E+00 -0.00000000000E+00 -0.74505805969E-08  0.93827000000E+00  0.93827000000E+00 0.  1.
     999902    2    1    2    0    0  0.19456432844E-01  0.81022810501E-02 -0.10065339645E-01  0.10205738274E+01  0.10203065355E+01 0.  0.
     999903    2    3    3    0    0  0.10675884393E+00 -0.70156518330E-01 -0.29379328792E-01  0.13258780224E+00  0.19924671211E-01 0.  0.
         14    1    1    2    0    0 -0.19456432844E-01 -0.81022810501E-02  0.10065339645E-01  0.23356172619E-01  0.00000000000E+00 0. -1.
     999901    1    3    3    0    0 -0.87302411084E-01  0.78258799380E-01  0.19313989146E-01  0.88798602514E+00  0.88000000000E+00 0.  1.
        -11    1    4    4    0    0  0.92035352041E-01 -0.59337870124E-01 -0.17782495862E-01  0.11094127787E+00  0.51100000000E-03 0. -1.
         11    1    4    4    0    0  0.14723491886E-01 -0.10818648206E-01 -0.11596832930E-01  0.21646524371E-01  0.51100000000E-03 0.  1.
</event>
<event>
 8    1  0.1060404E+005  0.1043930E+01  0.7957747E-01            NaN
         13   -1    0    0    0    0  0.00000000000E+00  0.00000000000E+00  0.74505805969E-08  0.10566000000E+00  0.10566000000E+00 0.  1.
     999900   -1    0    0    0    0 -0.00000000000E+00 -0.00000000000E+00 -0.74505805969E-08  0.93827000000E+00  0.93827000000E+00 0. -1.
     999902    2    1    2    0    0  0.45775951469E-02  0.11408922484E-01 -0.19552053086E-01  0.10208345314E+01  0.10205732408E+01 0.  0.
     999903    2    3    3    0    0 -0.15968718434E-01 -0.11907358499E+00  0.41845178754E-01  0.12886062157E+00  0.20506637822E-01 0.  0.
         14    1    1    2    0    0 -0.45775951469E-02 -0.11408922484E-01  0.19552053086E-01  0.23095468592E-01  0.00000000000E+00 0.  1.
     999901    1    3    3    0    0  0.20546313580E-01  0.13048250748E+00 -0.61397231840E-01  0.89197390984E+00  0.88000000000E+00 0. -1.
        -11    1    4    4    0    0 -0.16781554265E-01 -0.65750674737E-01  0.16628865996E-01  0.69868105006E-01  0.51100000000E-03 0. -1.
         11    1    4    4    0    0  0.81283583157E-03 -0.53322910255E-01  0.25216312758E-01  0.58992516561E-01  0.51100000000E-03 0.  1.
</event>
<event>
 8    1  0.1060404E+005  0.1043930E+01  0.7957747E-01            NaN
         13   -1    0    0    0    0  0.00000000000E+00  0.00000000000E+00  0.74505805969E-08  0.10566000000E+00  0.10566000000E+00 0. -1.
     999900   -1    0    0    0    0 -0.00000000000E+00 -0.00000000000E+00 -0.74505805969E-08  0.93827000000E+00  0.93827000000E+00 0.  1.
     999902    2    1    2    0    0 -0.13582737675E-01  0.17782153909E-01  0.93406440642E-02  0.10196824560E+01  0.10193941179E+01 0.  0.
     999903    2    3    3    0    0 -0.79145226076E-01  0.14013063797E-01 -0.10025776779E+00  0.13045556826E+00  0.22510053789E-01 0.  0.
         14    1    1    2    0    0  0.13582737675E-01 -0.17782153909E-01 -0.93406440642E-02  0.24247544039E-01  0.00000000000E+00 0. -1.
     999901    1    3    3    0    0  0.65562488402E-01  0.37690901123E-02  0.10959841185E+00  0.88922688770E+00  0.88000000000E+00 0. -1.
        -11    1    4    4    0    0 -0.46151801318E-01  0.12752631091E-01 -0.42996361205E-01  0.64355004176E-01  0.51100000000E-03 0.  1.
         11    1    4    4    0    0 -0.32993424759E-01  0.12604327062E-02 -0.57261406582E-01  0.66100564087E-01  0.51100000000E-03 0. -1.
</event>
<event>
 8    1  0.1060404E+005  0.1043930E+01  0.7957747E-01            NaN
         13   -1    0    0    0    0  0.00000000000E+00  0.00000000000E+00  0.74505805969E-08  0.10566000000E+00  0.10566000000E+00 0.  1.
     999900   -1    0    0    0    0 -0.00000000000E+00 -0.00000000000E+00 -0.74505805969E-08  0.93827000000E+00  0.93827000000E+00 0. -1.
     999902    2    1    2    0    0  0.79654506129E-02  0.22653901273E-01 -0.90687690441E-03  0.10198993930E+01  0.10196162522E+01 0.  0.
     999903    2    3    3    0    0 -0.33877733539E-01 -0.94493512171E-01 -0.76742984137E-01  0.12792098313E+00  0.19939098251E-01 0.  0.
         14    1    1    2    0    0 -0.79654506129E-02 -0.22653901273E-01  0.90687690441E-03  0.24030606985E-01  0.00000000000E+00 0.  1.
     999901    1    3    3    0    0  0.41843184152E-01  0.11714741344E+00  0.75836107233E-01  0.89197840988E+00  0.88000000000E+00 0. -1.
        -11    1    4    4    0    0 -0.24265772568E-01 -0.76824597301E-01 -0.69914777763E-01  0.10667325691E+00  0.51100000000E-03 0. -1.
         11    1    4    4    0    0 -0.96119609709E-02 -0.17668914870E-01 -0.68282063741E-02  0.21247726224E-01  0.51100000000E-03 0.  1.
</event>
<event>
 8    1  0.1060404E+005  0.1043930E+01  0.7957747E-01            NaN
         13   -1    0    0    0    0  0.00000000000E+00  0.00000000000E+00  0.74505805969E-08  0.10566000000E+00  0.10566000000E+00 0. -1.
     999900   -1    0    0    0    0 -0.00000000000E+00 -0.00000000000E+00 -0.74505805969E-08  0.93827000000E+00  0.93827000000E+00 0. -1.
     999902    2    1    2    0    0 -0.10678757040E-01  0.58955454373E-02  0.20943498071E-01  0.10196931805E+01  0.10194051005E+01 0.  0.
     999903    2    3    3    0    0  0.32920637935E-01 -0.53880848992E-01  0.11181219840E+00  0.13192561786E+00  0.30257009910E-01 0.  0.
         14    1    1    2    0    0  0.10678757040E-01 -0.58955454373E-02 -0.20943498071E-01  0.24236819498E-01  0.00000000000E+00 0.  1.
     999901    1    3    3    0    0 -0.43599394975E-01  0.59776394429E-01 -0.90868700324E-01  0.88776756264E+00  0.88000000000E+00 0. -1.
        -11    1    4    4    0    0 -0.55503808877E-02 -0.46722385825E-02  0.15640324600E-01  0.17248693167E-01  0.51100000000E-03 0.  1.
         11    1    4    4    0    0  0.38471018823E-01 -0.49208610410E-01  0.96171873795E-01  0.11467692470E+00  0.51100000000E-03 0. -1.
</event>
<event>
 8    1  0.1060404E+005  0.1043930E+01  0.7957747E-01            NaN
         13   -1    0    0    0    0  0.00000000000E+00  0.00000000000E+00  0.74505805969E-08  0.10566000000E+00  0.10566000000E+00 0. -1.
     999900   -1    0    0    0    0 -0.00000000000E+00 -0.00000000000E+00 -0.74505805969E-08  0.93827000000E+00  0.93827000000E+00 0. -1.
     999902    2    1    2    0    0  0.44184886561E-02  0.20782139066E-01  0.97350140839E-02  0.10205592738E+01  0.10202916448E+01 0.  0.
     999903    2    3    3    0    0 -0.15686613324E-01 -0.55006283087E-01 -0.11330789449E+00  0.12854601297E+00  0.20338079568E-01 0.  0.
         14    1    1    2    0    0 -0.44184886561E-02 -0.20782139066E-01 -0.97350140839E-02  0.23370726248E-01  0.00000000000E+00 0.  1.
     999901    1    3    3    0    0  0.20105101980E-01  0.75788422153E-01  0.12304290857E+00  0.89201326078E+00  0.88000000000E+00 0.  1.
        -11    1    4    4    0    0 -0.98701650253E-02 -0.37094500769E-01 -0.53547618339E-01  0.65886498584E-01  0.51100000000E-03 0.  1.
         11    1    4    4    0    0 -0.58164482983E-02 -0.17911782318E-01 -0.59760276150E-01  0.62659514387E-01  0.51100000000E-03 0. -1.
</event>
<event>
 8    1  0.1060404E+005  0.1043930E+01  0.7957747E-01            NaN
         13   -1    0    0    0    0  0.00000000000E+00  0.00000000000E+00  0.74505805969E-08  0.10566000000E+00  0.10566000000E+00 0. -1.
     999900   -1    0    0    0    0 -0.00000000000E+00 -0.00000000000E+00 -0.74505805969E-08  0.93827000000E+00  0.93827000000E+00 0. -1.
     999902    2    1    2    0    0 -0.13327778449E-01 -0.19189071631E-01 -0.36104440438E-02  0.10202892417E+01  0.10200153191E+01 0.  0.
     999903    2    3    3    0    0  0.26449484320E-01 -0.11924833321E+00  0.45995724499E-01  0.13233943542E+00  0.21871883764E-01 0.  0.
         14    1    1    2    0    0  0.13327778449E-01  0.19189071631E-01  0.36104440438E-02  0.23640758334E-01  0.00000000000E+00 0.  1.
     999901    1    3    3    0    0 -0.39777262769E-01  0.10005926158E+00 -0.49606168543E-01  0.88794980625E+00  0.88000000000E+00 0. -1.
        -11    1    4    4    0    0  0.21905917537E-01 -0.86696100721E-01  0.43309133523E-01  0.99358065958E-01  0.51100000000E-03 0.  1.
         11    1    4    4    0    0  0.45435667838E-02 -0.32552232491E-01  0.26865909759E-02  0.32981369458E-01  0.51100000000E-03 0. -1.
</event>
<event>
 8    1  0.1060404E+005  0.1043930E+01  0.7957747E-01            NaN
         13   -1    0    0    0    0  0.00000000000E+00  0.00000000000E+00  0.74505805969E-08  0.10566000000E+00  0.10566000000E+00 0.  1.
     999900   -1    0    0    0    0 -0.00000000000E+00 -0.00000000000E+00 -0.74505805969E-08  0.93827000000E+00  0.93827000000E+00 0. -1.
     999902    2    1    2    0    0  0.20070629915E-01 -0.59324363164E-02 -0.10162913668E-01  0.10206639561E+01  0.10203987468E+01 0.  0.
     999903    2    3    3    0    0  0.29779043500E-01  0.31245972511E-01  0.12112427594E+00  0.13009514148E+00  0.19762423535E-01 0.  0.
         14    1    1    2    0    0 -0.20070629915E-01  0.59324363164E-02  0.10162913668E-01  0.23266043928E-01  0.00000000000E+00 0.  1.
     999901    1    3    3    0    0 -0.97084135843E-02 -0.37178408828E-01 -0.13128718961E+00  0.89056881460E+00  0.88000000000E+00 0. -1.
        -11    1    4    4    0    0  0.14090058066E-01  0.20545542495E-01  0.43037272043E-01  0.49730442976E-01  0.51100000000E-03 0. -1.
         11    1    4    4    0    0  0.15688985434E-01  0.10700430016E-01  0.78087003896E-01  0.80364698499E-01  0.51100000000E-03 0.  1.
</event>
<event>
 8    1  0.1060404E+005  0.1043930E+01  0.7957747E-01            NaN
         13   -1    0    0    0    0  0.00000000000E+00  0.00000000000E+00  0.74505805969E-08  0.10566000000E+00  0.10566000000E+00 0. -1.
     999900   -1    0    0    0    0 -0.00000000000E+00 -0.00000000000E+00 -0.74505805969E-08  0.93827000000E+00  0.93827000000E+00 0. -1.
     999902    2    1    2    0    0  0.21131305663E-01 -0.75724631597E-02  0.95872800704E-02  0.10195211857E+01  0.10192289526E+01 0.  0.
     999903    2    3    3    0    0  0.40684019170E-01 -0.61499128017E-01  0.10795834949E+00  0.13218401127E+00  0.19500652532E-01 0.  0.
         14    1    1    2    0    0 -0.21131305663E-01  0.75724631597E-02 -0.95872800704E-02  0.24408814319E-01  0.00000000000E+00 0. -1.
     999901    1    3    3    0    0 -0.19552713507E-01  0.53926664857E-01 -0.98371069418E-01  0.88733717441E+00  0.88000000000E+00 0. -1.
        -11    1    4    4    0    0  0.38886859278E-01 -0.56104812193E-01  0.10613037750E+00  0.12618976157E+00  0.51100000000E-03 0.  1.
         11    1    4    4    0    0  0.17971598918E-02 -0.53943158244E-02  0.18279719849E-02  0.59942497001E-02  0.51100000000E-03 0. -1.
</event>
<event>
 8    1  0.1060404E+005  0.1043930E+01  0.7957747E-01            NaN
         13   -1    0    0    0    0  0.00000000000E+00  0.00000000000E+00  0.74505805969E-08  0.10566000000E+00  0.10566000000E+00 0. -1.
     999900   -1    0    0    0    0 -0.00000000000E+00 -0.00000000000E+00 -0.74505805969E-08  0.93827000000E+00  0.93827000000E+00 0. -1.
     999902    2    1    2    0    0  0.14232984756E-02  0.22193848456E-01 -0.83305006441E-02  0.10201815279E+01  0.10199050739E+01 0.  0.
     999903    2    3    3    0    0  0.10775812708E+00  0.65866887975E-01 -0.34220533653E-01  0.13232752862E+00  0.19729901776E-01 0.  0.
         14    1    1    2    0    0 -0.14232984756E-02 -0.22193848456E-01  0.83305006441E-02  0.23748472136E-01  0.00000000000E+00 0.  1.
     999901    1    3    3    0    0 -0.10633482861E+00 -0.43673039520E-01  0.25890033009E-01  0.88785399924E+00  0.88000000000E+00 0.  1.
        -11    1    4    4    0    0  0.80028869023E-01  0.45641853106E-01 -0.33382254144E-01  0.97992013168E-01  0.51100000000E-03 0.  1.
         11    1    4    4    0    0  0.27729258062E-01  0.20225034870E-01 -0.83827950907E-03  0.34335515457E-01  0.51100000000E-03 0. -1.
</event>
<event>
 8    1  0.1060404E+005  0.1043930E+01  0.7957747E-01            NaN
         13   -1    0    0    0    0  0.00000000000E+00  0.00000000000E+00  0.74505805969E-08  0.10566000000E+00  0.10566000000E+00 0. -1.
     999900   -1    0    0    0    0 -0.00000000000E+00 -0.00000000000E+00 -0.74505805969E-08  0.93827000000E+00  0.93827000000E+00 0. -1.
     999902    2    1    2    0    0  0.15373311928E-01  0.42555823787E-02  0.15910419271E-01  0.10214002387E+01  0.10211517309E+01 0.  0.
     999903    2    3    3    0    0  0.66407898284E-01 -0.88761247896E-01  0.70082880249E-01  0.13337359767E+00  0.24255687367E-01 0.  0.
         14    1    1    2    0    0 -0.15373311928E-01 -0.42555823787E-02 -0.15910419271E-01  0.22529761259E-01  0.00000000000E+00 0.  1.
     999901    1    3    3    0    0 -0.51034586356E-01  0.93016830275E-01 -0.54172460978E-01  0.88802664107E+00  0.88000000000E+00 0. -1.
        -11    1    4    4    0    0  0.39139999268E-01 -0.34857690286E-01  0.25466120126E-01  0.58273343049E-01  0.51100000000E-03 0.  1.
         11    1    4    4    0    0  0.27267899015E-01 -0.53903557610E-01  0.44616760123E-01  0.75100254624E-01  0.51100000000E-03 0. -1.
</event>
<event>
 8    1  0.1060404E+005  0.1043930E+01  0.7957747E-01            NaN
         13   -1    0    0    0    0  0.00000000000E+00  0.00000000000E+00  0.74505805969E-08  0.10566000000E+00  0.10566000000E+00 0.  1.
     999900   -1    0    0    0    0 -0.00000000000E+00 -0.00000000000E+00 -0.74505805969E-08  0.93827000000E+00  0.93827000000E+00 0.  1.
     999902    2    1    2    0    0 -0.41756686863E-02  0.15104622287E-01  0.17996590700E-01  0.10200665740E+01  0.10197874054E+01 0.  0.
     999903    2    3    3    0    0 -0.56307876277E-01  0.41148880054E-01 -0.10706216288E+00  0.12931646186E+00  0.19915655357E-01 0.  0.
         14    1    1    2    0    0  0.41756686863E-02 -0.15104622287E-01 -0.17996590700E-01  0.23863425996E-01  0.00000000000E+00 0. -1.
     999901    1    3    3    0    0  0.52132207591E-01 -0.26044257767E-01  0.12505875358E+00  0.89075011214E+00  0.88000000000E+00 0. -1.
        -11    1    4    4    0    0 -0.26120068477E-01  0.24368511622E-01 -0.70394115449E-01  0.78940958613E-01  0.51100000000E-03 0.  1.
         11    1    4    4    0    0 -0.30187807801E-01  0.16780368432E-01 -0.36668047430E-01  0.50375503251E-01  0.51100000000E-03 0. -1.
</event>
<event>
 8    1  0.1060404E+005  0.1043930E+01  0.7957747E-01            NaN
         13   -1    0    0    0    0  0.00000000000E+00  0.00000000000E+00  0.74505805969E-08  0.10566000000E+00  0.10566000000E+00 0. -1.
     999900   -1    0    0    0    0 -0.00000000000E+00 -0.00000000000E+00 -0.74505805969E-08  0.93827000000E+00  0.93827000000E+00 0.  1.
     999902    2    1    2    0    0  0.12269422240E-01 -0.68810366573E-02  0.24108248736E-01  0.10160177259E+01  0.10156342473E+01 0.  0.
     999903    2    3    3    0    0 -0.89886411183E-02  0.85464279691E-01 -0.86516643054E-01  0.12404383090E+00  0.22733316646E-01 0.  0.
         14    1    1    2    0    0 -0.12269422240E-01  0.68810366573E-02 -0.24108248736E-01  0.27912274087E-01  0.00000000000E+00 0.  1.
     999901    1    3    3    0    0  0.21258063358E-01 -0.92345316348E-01  0.11062489179E+00  0.89197389502E+00  0.88000000000E+00 0. -1.
        -11    1    4    4    0    0 -0.61277961953E-02  0.46457645674E-01 -0.31214514717E-01  0.56306924776E-01  0.51100000000E-03 0. -1.
         11    1    4    4    0    0 -0.28608449230E-02  0.39006634017E-01 -0.55302128337E-01  0.67736906119E-01  0.51100000000E-03 0.  1.
</event>
<event>
 8    1  0.1073158E+005  0.1043930E+01  0.7957747E-01            NaN
         13   -1    0    0    0    0  0.00000000000E+00  0.00000000000E+00  0.74505805969E-08  0.10566000000E+00  0.10566000000E+00 0. -1.
     999900   -1    0    0    0    0 -0.00000000000E+00 -0.00000000000E+00 -0.74505805969E-08  0.93827000000E+00  0.93827000000E+00 0.  1.
     999902    2    1    2    0    0 -0.19218537187E-02 -0.14672224542E-01 -0.18814721715E-01  0.10199933869E+01  0.10197124829E+01 0.  0.
     999903    2    3    3    0    0  0.10444410604E+00 -0.75584961414E-01  0.11367001146E-01  0.13098550429E+00  0.20157776178E-01 0.  0.
         14    1    1    2    0    0  0.19218537187E-02  0.14672224542E-01  0.18814721715E-01  0.23936613127E-01  0.00000000000E+00 0. -1.
     999901    1    3    3    0    0 -0.10636595975E+00  0.60912736872E-01 -0.30181722861E-01  0.88900788259E+00  0.88000000000E+00 0.  1.
        -11    1    4    4    0    0  0.36679372609E-01 -0.30009407634E-01  0.13538643231E-01  0.49289926993E-01  0.51100000000E-03 0. -1.
         11    1    4    4    0    0  0.67764733427E-01 -0.45575553781E-01 -0.21716420850E-02  0.81695577293E-01  0.51100000000E-03 0.  1.
</event>
<event>
 8    1  0.1060404E+005  0.1043930E+01  0.7957747E-01            NaN
         13   -1    0    0    0    0  0.00000000000E+00  0.00000000000E+00  0.74505805969E-08  0.10566000000E+00  0.10566000000E+00 0. -1.
     999900   -1    0    0    0    0 -0.00000000000E+00 -0.00000000000E+00 -0.74505805969E-08  0.93827000000E+00  0.93827000000E+00 0. -1.
     999902    2    1    2    0    0  0.84289755139E-02 -0.21672763270E-01  0.64177501838E-02  0.10198064884E+01  0.10195211277E+01 0.  0.
     999903    2    3    3    0    0  0.51979379546E-01 -0.66434763288E-01  0.99526354199E-01  0.13269348177E+00  0.24220471774E-01 0.  0.
         14    1    1    2    0    0 -0.84289755139E-02  0.21672763270E-01 -0.64177501838E-02  0.24123511631E-01  0.00000000000E+00 0. -1.
     999901    1    3    3    0    0 -0.43550404032E-01  0.44762000017E-01 -0.93108604015E-01  0.88711300660E+00  0.88000000000E+00 0. -1.
        -11    1    4    4    0    0  0.11531307604E-01 -0.10223061784E-01  0.65327070388E-02  0.16745728695E-01  0.51100000000E-03 0. -1.
         11    1    4    4    0    0  0.40448071942E-01 -0.56211701504E-01  0.92993647160E-01  0.11594775307E+00  0.51100000000E-03 0.  1.
</event>
<event>
 8    1  0.1060404E+005  0.1043930E+01  0.7957747E-01            NaN
         13   -1    0    0    0    0  0.00000000000E+00  0.00000000000E+00  0.74505805969E-08  0.10566000000E+00  0.10566000000E+00 0. -1.
     999900   -1    0    0    0    0 -0.00000000000E+00 -0.00000000000E+00 -0.74505805969E-08  0.93827000000E+00  0.93827000000E+00 0.  1.
     999902    2    1    2    0    0  0.58358230084E-02  0.14161993212E-01 -0.18759416209E-01  0.10197115240E+01  0.10194238852E+01 0.  0.
     999903    2    3    3    0    0 -0.10992569685E+00  0.57078306868E-01  0.32146489768E-01  0.12963627400E+00  0.20750296122E-01 0.  0.
         14    1    1    2    0    0 -0.58358230084E-02 -0.14161993212E-01  0.18759416209E-01  0.24218475972E-01  0.00000000000E+00 0. -1.
     999901    1    3    3    0    0  0.11576151985E+00 -0.42916313656E-01 -0.50905905977E-01  0.89007525003E+00  0.88000000000E+00 0.  1.
        -11    1    4    4    0    0 -0.39295232028E-01  0.95449276602E-02  0.11077461345E-01  0.41930802223E-01  0.51100000000E-03 0. -1.
         11    1    4    4    0    0 -0.70630464817E-01  0.47533379207E-01  0.21069028423E-01  0.87705471773E-01  0.51100000000E-03 0.  1.
</event>
<event>
 8    1  0.1060404E+005  0.1043930E+01  0.7957747E-01            NaN
         13   -1    0    0    0    0  0.00000000000E+00  0.00000000000E+00  0.74505805969E-08  0.10566000000E+00  0.10566000000E+00 0.  1.
     999900   -1    0    0    0    0 -0.00000000000E+00 -0.00000000000E+00 -0.74505805969E-08  0.93827000000E+00  0.93827000000E+00 0. -1.
     999902    2    1    2    0    0  0.58036474697E-02  0.17633413466E-01  0.14458532234E-01  0.10203998332E+01  0.10201284972E+01 0.  0.
     999903    2    3    3    0    0 -0.47711686316E-01  0.11635567479E+00  0.38218368390E-01  0.13294588757E+00  0.19972913445E-01 0.  0.
         14    1    1    2    0    0 -0.58036474697E-02 -0.17633413466E-01 -0.14458532234E-01  0.23530166782E-01  0.00000000000E+00 0. -1.
     999901    1    3    3    0    0  0.53515333786E-01 -0.98722261329E-01 -0.23759836156E-01  0.88745394565E+00  0.88000000000E+00 0. -1.
        -11    1    4    4    0    0 -0.24438708248E-01  0.82387560498E-01  0.29450957560E-01  0.90843715290E-01  0.51100000000E-03 0.  1.
         11    1    4    4    0    0 -0.23272978068E-01  0.33968114297E-01  0.87674108306E-02  0.42102172280E-01  0.51100000000E-03 0. -1.
</event>
<event>
 8    1  0.1060404E+005  0.1043930E+01  0.7957747E-01            NaN
         13   -1    0    0    0    0  0.00000000000E+00  0.00000000000E+00  0.74505805969E-08  0.10566000000E+00  0.10566000000E+00 0.  1.
     999900   -1    0    0    0    0 -0.00000000000E+00 -0.00000000000E+00 -0.74505805969E-08  0.93827000000E+00  0.93827000000E+00 0.  1.
     999902    2    1    2    0    0  0.16108722495E-02  0.49252834364E-03  0.23280062184E-01  0.10205890748E+01  0.10203221358E+01 0.  0.
     999903    2    3    3    0    0 -0.12665191428E+00  0.13199183664E-01  0.61969978371E-03  0.13091144020E+00  0.30372607838E-01 0.  0.
         14    1    1    2    0    0 -0.16108722495E-02 -0.49252834364E-03 -0.23280062184E-01  0.23340925193E-01  0.00000000000E+00 0. -1.
     999901    1    3    3    0    0  0.12826278653E+00 -0.12706655321E-01  0.22660362400E-01  0.88967763461E+00  0.88000000000E+00 0. -1.
        -11    1    4    4    0    0 -0.30757041122E-01 -0.30820913736E-02  0.11611152628E-01  0.33023852776E-01  0.51100000000E-03 0.  1.
         11    1    4    4    0    0 -0.95894873158E-01  0.16281275038E-01 -0.10991452844E-01  0.97887587423E-01  0.51100000000E-03 0. -1.
</event>
<event>
 8    1  0.1060404E+005  0.1043930E+01  0.7957747E-01            NaN
         13   -1    0    0    0    0  0.00000000000E+00  0.00000000000E+00  0.74505805969E-08  0.10566000000E+00  0.10566000000E+00 0. -1.
     999900   -1    0    0    0    0 -0.00000000000E+00 -0.00000000000E+00 -0.74505805969E-08  0.93827000000E+00  0.93827000000E+00 0.  1.
     999902    2    1    2    0    0  0.24561906040E-01  0.54975280095E-02 -0.23199584336E-02  0.10186536820E+01  0.10183400374E+01 0.  0.
     999903    2    3    3    0    0  0.11756814291E+00  0.46420885796E-01 -0.33272680769E-01  0.13226609620E+00  0.20250482788E-01 0.  0.
         14    1    1    2    0    0 -0.24561906040E-01 -0.54975280095E-02  0.23199584336E-02  0.25276317961E-01  0.00000000000E+00 0. -1.
     999901    1    3    3    0    0 -0.93006236869E-01 -0.40923357786E-01  0.30952722335E-01  0.88638758584E+00  0.88000000000E+00 0. -1.
        -11    1    4    4    0    0  0.81694433955E-01  0.38127278204E-01 -0.15884646482E-01  0.91543721780E-01  0.51100000000E-03 0. -1.
         11    1    4    4    0    0  0.35873708954E-01  0.82936075916E-02 -0.17388034286E-01  0.40722374419E-01  0.51100000000E-03 0.  1.
</event>
<event>
 8    1  0.1060404E+005  0.1043930E+01  0.7957747E-01            NaN
         13   -1    0    0    0    0  0.00000000000E+00  0.00000000000E+00  0.74505805969E-08  0.10566000000E+00  0.10566000000E+00 0. -1.
     999900   -1    0    0    0    0 -0.00000000000E+00 -0.00000000000E+00 -0.74505805969E-08  0.93827000000E+00  0.93827000000E+00 0.  1.
     999902    2    1    2    0    0  0.13040954147E-01 -0.20060077603E-02 -0.20001029487E-01  0.10199689538E+01  0.10196874693E+01 0.  0.
     999903    2    3    3    0    0  0.87178309514E-01 -0.68641595519E-01 -0.70357878616E-01  0.13291063487E+00  0.20081819949E-01 0.  0.
         14    1    1    2    0    0 -0.13040954147E-01  0.20060077603E-02  0.20001029487E-01  0.23961046153E-01  0.00000000000E+00 0. -1.
     999901    1    3    3    0    0 -0.74137355367E-01  0.66635587758E-01  0.50356849129E-01  0.88705831898E+00  0.88000000000E+00 0. -1.
        -11    1    4    4    0    0 -0.28352303686E-03 -0.33797936421E-02 -0.87489098663E-03  0.35397663220E-02  0.51100000000E-03 0. -1.
         11    1    4    4    0    0  0.87461832551E-01 -0.65261801877E-01 -0.69482987629E-01  0.12937086855E+00  0.51100000000E-03 0.  1.
</event>
<event>
 8    1  0.1060404E+005  0.1043930E+01  0.7957747E-01            NaN
         13   -1    0    0    0    0  0.00000000000E+00  0.00000000000E+00  0.74505805969E-08  0.10566000000E+00  0.10566000000E+00 0. -1.
     999900   -1    0    0    0    0 -0.00000000000E+00 -0.00000000000E+00 -0.74505805969E-08  0.93827000000E+00  0.93827000000E+00 0.  1.
     999902    2    1    2    0    0  0.19455028588E-01  0.11643808424E-01  0.73317623527E-02  0.10201007921E+01  0.10198224330E+01 0.  0.
     999903    2    3    3    0    0 -0.72492044265E-01 -0.22352217777E-01  0.10312544416E+00  0.12949065093E+00  0.19448735773E-01 0.  0.
         14    1    1    2    0    0 -0.19455028588E-01 -0.11643808424E-01 -0.73317623527E-02  0.23829207942E-01  0.00000000000E+00 0.  1.
     999901    1    3    3    0    0  0.91947072852E-01  0.33996026201E-01 -0.95793681811E-01  0.89061014113E+00  0.88000000000E+00 0.  1.
        -11    1    4    4    0    0 -0.61398125349E-01 -0.13394471775E-01  0.74195776160E-01  0.97233821232E-01  0.51100000000E-03 0. -1.
         11    1    4    4    0    0 -0.11093918916E-01 -0.89577460021E-02  0.28929668004E-01  0.32256829698E-01  0.51100000000E-03 0.  1.
</event>
<event>
 8    1  0.1060404E+005  0.1043930E+01  0.7957747E-01            NaN
         13   -1    0    0    0    0  0.00000000000E+00  0.00000000000E+00  0.74505805969E-08  0.10566000000E+00  0.10566000000E+00 0. -1.
     999900   -1    0    0    0    0 -0.00000000000E+00 -0.00000000000E+00 -0.74505805969E-08  0.93827000000E+00  0.93827000000E+00 0.  1.
     999902    2    1    2    0    0 -0.14416447915E-01 -0.11357655163E-01  0.15673129871E-01  0.10197954335E+01  0.10195098081E+01 0.  0.
     999903    2    3    3    0    0  0.76568196642E-01 -0.99921351092E-01  0.28448481028E-01  0.13059076447E+00  0.19941578474E-01 0.  0.
         14    1    1    2    0    0  0.14416447915E-01  0.11357655163E-01 -0.15673129871E-01  0.24134566522E-01  0.00000000000E+00 0.  1.
     999901    1    3    3    0    0 -0.90984644556E-01  0.88563695929E-01 -0.12775351158E-01  0.88920466900E+00  0.88000000000E+00 0. -1.
        -11    1    4    4    0    0  0.58213031693E-01 -0.82984307005E-01  0.29546166322E-01  0.10558593341E+00  0.51100000000E-03 0. -1.
         11    1    4    4    0    0  0.18355164949E-01 -0.16937044087E-01 -0.10976852938E-02  0.25004831067E-01  0.51100000000E-03 0.  1.
</event>
<event>
 8    1  0.1060404E+005  0.1043930E+01  0.7957747E-01            NaN
         13   -1    0    0    0    0  0.00000000000E+00  0.00000000000E+00  0.74505805969E-08  0.10566000000E+00  0.10566000000E+00 0. -1.
     999900   -1    0    0    0    0 -0.00000000000E+00 -0.00000000000E+00 -0.74505805969E-08  0.93827000000E+00  0.93827000000E+00 0. -1.
     999902    2    1    2    0    0  0.25856586568E-02 -0.23606672026E-01 -0.35461979185E-02  0.10199188335E+01  0.10196361561E+01 0.  0.
     999903    2    3    3    0    0 -0.12595698136E+00  0.15067383457E-01 -0.17311498643E-01  0.12963327465E+00  0.20320204586E-01 0.  0.
         14    1    1    2    0    0 -0.25856586568E-02  0.23606672026E-01  0.35461979185E-02  0.24011166455E-01  0.00000000000E+00 0.  1.
     999901    1    3    3    0    0  0.12854264002E+00 -0.38674055483E-01  0.13765300724E-01  0.89028555889E+00  0.88000000000E+00 0. -1.
        -11    1    4    4    0    0 -0.41817314111E-01  0.11872360569E-01  0.90939730423E-03  0.43482511765E-01  0.51100000000E-03 0. -1.
         11    1    4    4    0    0 -0.84139667248E-01  0.31950228873E-02 -0.18220895947E-01  0.86150762887E-01  0.51100000000E-03 0.  1.
</event>
<event>
 8    1  0.1060404E+005  0.1043930E+01  0.7957747E-01            NaN
         13   -1    0    0    0    0  0.00000000000E+00  0.00000000000E+00  0.74505805969E-08  0.10566000000E+00  0.10566000000E+00 0.  1.
     999900   -1    0    0    0    0 -0.00000000000E+00 -0.00000000000E+00 -0.74505805969E-08  0.93827000000E+00  0.93827000000E+00 0.  1.
     999902    2    1    2    0    0 -0.11866708038E-01  0.21462027185E-01  0.61542822520E-02  0.10186453691E+01  0.10183315155E+01 0.  0.
     999903    2    3    3    0    0 -0.68227870453E-01  0.59894719955E-01 -0.92154900822E-01  0.13054720560E+00  0.17539308994E-01 0.  0.
         14    1    1    2    0    0  0.11866708038E-01 -0.21462027185E-01 -0.61542822520E-02  0.25284630916E-01  0.00000000000E+00 0. -1.
     999901    1    3    3    0    0  0.56361162415E-01 -0.38432692770E-01  0.98309183074E-01  0.88809816348E+00  0.88000000000E+00 0. -1.
        -11    1    4    4    0    0 -0.26032213393E-01  0.31482549409E-01 -0.49316906520E-01  0.64040966898E-01  0.51100000000E-03 0. -1.
         11    1    4    4    0    0 -0.42195657060E-01  0.28412170546E-01 -0.42837994302E-01  0.66506238704E-01  0.51100000000E-03 0.  1.
</event>
<event>
 8    1  0.1060404E+005  0.1043930E+01  0.7957747E-01            NaN
         13   -1    0    0    0    0  0.00000000000E+00  0.00000000000E+00  0.74505805969E-08  0.10566000000E+00  0.10566000000E+00 0. -1.
     999900   -1    0    0    0    0 -0.00000000000E+00 -0.00000000000E+00 -0.74505805969E-08  0.93827000000E+00  0.93827000000E+00 0.  1.
     999902    2    1    2    0    0  0.23219478285E-01  0.32093992395E-02 -0.13913278063E-02  0.10204485135E+01  0.10201783121E+01 0.  0.
     999903    2    3    3    0    0 -0.88984249486E-01  0.57492643136E-01  0.70299069324E-01  0.12877824926E+00  0.20451837619E-01 0.  0.
         14    1    1    2    0    0 -0.23219478285E-01 -0.32093992395E-02  0.13913278063E-02  0.23481486502E-01  0.00000000000E+00 0.  1.
     999901    1    3    3    0    0  0.11220372777E+00 -0.54283243896E-01 -0.71690397130E-01  0.89167026424E+00  0.88000000000E+00 0.  1.
        -11    1    4    4    0    0 -0.35937390569E-01  0.30132546201E-01  0.21112620780E-01  0.51434135150E-01  0.51100000000E-03 0. -1.
         11    1    4    4    0    0 -0.53046858917E-01  0.27360096935E-01  0.49186448544E-01  0.77344114105E-01  0.51100000000E-03 0.  1.
</event>
<event>
 8    1  0.1060404E+005  0.1043930E+01  0.7957747E-01            NaN
         13   -1    0    0    0    0  0.00000000000E+00  0.00000000000E+00  0.74505805969E-08  0.10566000000E+00  0.10566000000E+00 0. -1.
     999900   -1    0    0    0    0 -0.00000000000E+00 -0.00000000000E+00 -0.74505805969E-08  0.93827000000E+00  0.93827000000E+00 0. -1.
     999902    2    1    2    0    0 -0.10938894729E-01  0.11667128873E-01  0.15723551880E-01  0.10215020844E+01  0.10212558431E+01 0.  0.
     999903    2    3    3    0    0 -0.96967839186E-01 -0.84618422188E-02 -0.85349982220E-01  0.13132119602E+00  0.22051586076E-01 0.  0.
         14    1    1    2    0    0  0.10938894729E-01 -0.11667128873E-01 -0.15723551880E-01  0.22427915591E-01  0.00000000000E+00 0.  1.
     999901    1    3    3    0    0  0.86028944457E-01  0.20128971092E-01  0.10107353410E+00  0.89018088839E+00  0.88000000000E+00 0.  1.
        -11    1    4    4    0    0 -0.80420216916E-01 -0.14345492842E-01 -0.64708290915E-01  0.10421433917E+00  0.51100000000E-03 0.  1.
         11    1    4    4    0    0 -0.16547622270E-01  0.58836506235E-02 -0.20641691305E-01  0.27106856851E-01  0.51100000000E-03 0. -1.
</event>
<event>
 8    1  0.1060404E+005  0.1043930E+01  0.7957747E-01            NaN
         13   -1    0    0    0    0  0.00000000000E+00  0.00000000000E+00  0.74505805969E-08  0.10566000000E+00  0.10566000000E+00 0. -1.
     999900   -1    0    0    0    0 -0.00000000000E+00 -0.00000000000E+00 -0.74505805969E-08  0.93827000000E+00  0.93827000000E+00 0.  1.
     999902    2    1    2    0    0  0.20416098892E-01 -0.92987078220E-02  0.74092619675E-02  0.10203041619E+01  0.10200305891E+01 0.  0.
     999903    2    3    3    0    0 -0.29377800709E-01  0.95195131071E-01  0.80626572652E-01  0.12970932174E+00  0.19967367747E-01 0.  0.
         14    1    1    2    0    0 -0.20416098892E-01  0.92987078220E-02 -0.74092619675E-02  0.23625838060E-01  0.00000000000E+00 0.  1.
     999901    1    3    3    0    0  0.49793899601E-01 -0.10449383889E+00 -0.73217310685E-01  0.89059484020E+00  0.88000000000E+00 0. -1.
        -11    1    4    4    0    0 -0.19887148381E-01  0.52751720454E-01  0.33504792036E-01  0.65582580705E-01  0.51100000000E-03 0.  1.
         11    1    4    4    0    0 -0.94906523277E-02  0.42443410617E-01  0.47121780617E-01  0.64126741036E-01  0.51100000000E-03 0. -1.
</event>
<event>
 8    1  0.1060404E+005  0.1043930E+01  0.7957747E-01            NaN
         13   -1    0    0    0    0  0.00000000000E+00  0.00000000000E+00  0.74505805969E-08  0.10566000000E+00  0.10566000000E+00 0. -1.
     999900   -1    0    0    0    0 -0.00000000000E+00 -0.00000000000E+00 -0.74505805969E-08  0.93827000000E+00  0.93827000000E+00 0. -1.
     999902    2    1    2    0    0 -0.19189611466E-01  0.10443114161E-01 -0.66361683559E-02  0.10210971607E+01  0.10208418452E+01 0.  0.
     999903    2    3    3    0    0 -0.86960976382E-01 -0.18107631884E-01 -0.98770574041E-01  0.13323633164E+00  0.10305145688E-01 0.  0.
         14    1    1    2    0    0  0.19189611466E-01 -0.10443114161E-01  0.66361683559E-02  0.22832839334E-01  0.00000000000E+00 0. -1.
     999901    1    3    3    0    0  0.67771364916E-01  0.28550746045E-01  0.92134405685E-01  0.88786082902E+00  0.88000000000E+00 0.  1.
        -11    1    4    4    0    0 -0.69070667787E-01 -0.11549292867E-01 -0.82123269663E-01  0.10792884626E+00  0.51100000000E-03 0. -1.
         11    1    4    4    0    0 -0.17890308595E-01 -0.65583390170E-02 -0.16647304378E-01  0.25307485381E-01  0.51100000000E-03 0.  1.
</event>
<event>
 8    1  0.1060404E+005  0.1043930E+01  0.7957747E-01            NaN
         13   -1    0    0    0    0  0.00000000000E+00  0.00000000000E+00  0.74505805969E-08  0.10566000000E+00  0.10566000000E+00 0. -1.
     999900   -1    0    0    0    0 -0.00000000000E+00 -0.00000000000E+00 -0.74505805969E-08  0.93827000000E+00  0.93827000000E+00 0. -1.
     999902    2    1    2    0    0  0.21924724926E-01 -0.80262502114E-03 -0.87076256453E-02  0.10203257522E+01  0.10200526850E+01 0.  0.
     999903    2    3    3    0    0  0.56907514485E-01 -0.10088270314E+00  0.58945920217E-01  0.13138434813E+00  0.19272789776E-01 0.  0.
         14    1    1    2    0    0 -0.21924724926E-01  0.80262502114E-03  0.87076256453E-02  0.23604247804E-01  0.00000000000E+00 0. -1.
     999901    1    3    3    0    0 -0.34982789559E-01  0.10008007811E+00 -0.67653545863E-01  0.88894140407E+00  0.88000000000E+00 0. -1.
        -11    1    4    4    0    0  0.49864065987E-01 -0.79231220846E-01  0.40184978793E-01  0.10187789297E+00  0.51100000000E-03 0. -1.
         11    1    4    4    0    0  0.70434484979E-02 -0.21651482290E-01  0.18760941424E-01  0.29506455162E-01  0.51100000000E-03 0.  1.
</event>
<event>
 8    1  0.1060404E+005  0.1043930E+01  0.7957747E-01            NaN
         13   -1    0    0    0    0  0.00000000000E+00  0.00000000000E+00  0.74505805969E-08  0.10566000000E+00  0.10566000000E+00 0.  1.
     999900   -1    0    0    0    0 -0.00000000000E+00 -0.00000000000E+00 -0.74505805969E-08  0.93827000000E+00  0.93827000000E+00 0. -1.
     999902    2    1    2    0    0  0.21726620903E-01  0.19589423773E-02 -0.10016520129E-01  0.10199255382E+01  0.10196430205E+01 0.  0.
     999903    2    3    3    0    0  0.18184666499E-01 -0.79194943335E-01 -0.10115283553E+00  0.13149752952E+00  0.21381837855E-01 0.  0.
         14    1    1    2    0    0 -0.21726620903E-01 -0.19589423773E-02  0.10016520129E-01  0.24004461807E-01  0.00000000000E+00 0.  1.
     999901    1    3    3    0    0  0.35419544046E-02  0.81153885712E-01  0.91136315397E-01  0.88842800867E+00  0.88000000000E+00 0.  1.
        -11    1    4    4    0    0  0.11570233993E-01 -0.33863832266E-01 -0.60265602015E-01  0.70091606898E-01  0.51100000000E-03 0.  1.
         11    1    4    4    0    0  0.66144325059E-02 -0.45331111069E-01 -0.40887233512E-01  0.61405922624E-01  0.51100000000E-03 0. -1.
</event>
<event>
 8    1  0.1060404E+005  0.1043930E+01  0.7957747E-01            NaN
         13   -1    0    0    0    0  0.00000000000E+00  0.00000000000E+00  0.74505805969E-08  0.10566000000E+00  0.10566000000E+00 0.  1.
     999900   -1    0    0    0    0 -0.00000000000E+00 -0.00000000000E+00 -0.74505805969E-08  0.93827000000E+00  0.93827000000E+00 0.  1.
     999902    2    1    2    0    0  0.26295035349E-02  0.11324472938E-01 -0.46300009890E-02  0.10314162122E+01  0.10313402968E+01 0.  0.
     999903    2    3    3    0    0 -0.13672548499E+00 -0.56641536486E-02 -0.16034328753E-01  0.14021562593E+00  0.26026547481E-01 0.  0.
         14    1    1    2    0    0 -0.26295035349E-02 -0.11324472938E-01  0.46300009890E-02  0.12513787809E-01  0.00000000000E+00 0.  1.
     999901    1    3    3    0    0  0.13935498853E+00  0.16988626586E-01  0.11404327764E-01  0.89120058626E+00  0.88000000000E+00 0. -1.
        -11    1    4    4    0    0 -0.10807520054E-01 -0.28352657086E-02  0.54558744198E-02  0.12444633704E-01  0.51100000000E-03 0. -1.
         11    1    4    4    0    0 -0.12591796494E+00 -0.28288879400E-02 -0.21490203173E-01  0.12777099223E+00  0.51100000000E-03 0.  1.
</event>
<event>
 8    1  0.1060404E+005  0.1043930E+01  0.7957747E-01            NaN
         13   -1    0    0    0    0  0.00000000000E+00  0.00000000000E+00  0.74505805969E-08  0.10566000000E+00  0.10566000000E+00 0.  1.
     999900   -1    0    0    0    0 -0.00000000000E+00 -0.00000000000E+00 -0.74505805969E-08  0.93827000000E+00  0.93827000000E+00 0. -1.
     999902    2    1    2    0    0  0.16091696911E-01 -0.87751118176E-02  0.14813917490E-01  0.10203631282E+01  0.10200909351E+01 0.  0.
     999903    2    3    3    0    0 -0.10046691190E+00  0.16110141807E-01 -0.74871993569E-01  0.12781131018E+00  0.19410783957E-01 0.  0.
         14    1    1    2    0    0 -0.16091696911E-01  0.87751118176E-02 -0.14813917490E-01  0.23566871839E-01  0.00000000000E+00 0. -1.
     999901    1    3    3    0    0  0.11655860881E+00 -0.24885253624E-01  0.89685911059E-01  0.89255181798E+00  0.88000000000E+00 0.  1.
        -11    1    4    4    0    0 -0.19635274873E-01 -0.17728181895E-02 -0.22167868945E-01  0.29670902215E-01  0.51100000000E-03 0. -1.
         11    1    4    4    0    0 -0.80831637026E-01  0.17882959996E-01 -0.52704124623E-01  0.98140407966E-01  0.51100000000E-03 0.  1.
</event>
<event>
 8    1  0.1060404E+005  0.1043930E+01  0.7957747E-01            NaN
         13   -1    0    0    0    0  0.00000000000E+00  0.00000000000E+00  0.74505805969E-08  0.10566000000E+00  0.10566000000E+00 0.  1.
     999900   -1    0    0    0    0 -0.00000000000E+00 -0.00000000000E+00 -0.74505805969E-08  0.93827000000E+00  0.93827000000E+00 0. -1.
     999902    2    1    2    0    0 -0.12166265955E-01  0.12361884715E-01 -0.16743036813E-01  0.10198226670E+01  0.10195376936E+01 0.  0.
     999903    2    3    3    0    0  0.84081489788E-01  0.95728037582E-01 -0.21509861895E-01  0.13064536832E+00  0.19286886740E-01 0.  0.
         14    1    1    2    0    0  0.12166265955E-01 -0.12361884715E-01  0.16743036813E-01  0.24107332966E-01  0.00000000000E+00 0.  1.
     999901    1    3    3    0    0 -0.96247755743E-01 -0.83366152867E-01  0.47668250822E-02  0.88917729872E+00  0.88000000000E+00 0.  1.
        -11    1    4    4    0    0  0.59298439669E-01  0.58931847108E-01 -0.66978370979E-02  0.83871268582E-01  0.51100000000E-03 0.  1.
         11    1    4    4    0    0  0.24783050119E-01  0.36796190474E-01 -0.14812024798E-01  0.46774099737E-01  0.51100000000E-03 0. -1.
</event>
<event>
 8    1  0.1060404E+005  0.1043930E+01  0.7957747E-01            NaN
         13   -1    0    0    0    0  0.00000000000E+00  0.00000000000E+00  0.74505805969E-08  0.10566000000E+00  0.10566000000E+00 0.  1.
     999900   -1    0    0    0    0 -0.00000000000E+00 -0.00000000000E+00 -0.74505805969E-08  0.93827000000E+00  0.93827000000E+00 0. -1.
     999902    2    1    2    0    0 -0.13226205700E-01 -0.19432944972E-01 -0.64172459223E-02  0.10195629544E+01  0.10192717327E+01 0.  0.
     999903    2    3    3    0    0 -0.47920086259E-01  0.11551076307E+00  0.20022831823E-01  0.12820862112E+00  0.19936541416E-01 0.  0.
         14    1    1    2    0    0  0.13226205700E-01  0.19432944972E-01  0.64172459223E-02  0.24367045630E-01  0.00000000000E+00 0.  1.
     999901    1    3    3    0    0  0.34693880559E-01 -0.13494370804E+00 -0.26440077745E-01  0.89135433325E+00  0.88000000000E+00 0. -1.
        -11    1    4    4    0    0 -0.10653266430E-01  0.29949639672E-01  0.13851755012E-01  0.34678599164E-01  0.51100000000E-03 0. -1.
         11    1    4    4    0    0 -0.37266819828E-01  0.85561123399E-01  0.61710768112E-02  0.93530021958E-01  0.51100000000E-03 0.  1.
</event>
<event>
 8    1  0.1060404E+005  0.1043930E+01  0.7957747E-01            NaN
         13   -1    0    0    0    0  0.00000000000E+00  0.00000000000E+00  0.74505805969E-08  0.10566000000E+00  0.10566000000E+00 0.  1.
     999900   -1    0    0    0    0 -0.00000000000E+00 -0.00000000000E+00 -0.74505805969E-08  0.93827000000E+00  0.93827000000E+00 0.  1.
     999902    2    1    2    0    0 -0.13836524737E-04 -0.48158770658E-02  0.23779538386E-01  0.10196676978E+01  0.10193790044E+01 0.  0.
     999903    2    3    3    0    0  0.98277280102E-01 -0.82017841048E-01  0.17349333152E-01  0.13081302215E+00  0.20632434845E-01 0.  0.
         14    1    1    2    0    0  0.13836524737E-04  0.48158770658E-02 -0.23779538386E-01  0.24262302224E-01  0.00000000000E+00 0. -1.
     999901    1    3    3    0    0 -0.98291116627E-01  0.77201963982E-01  0.64302052341E-02  0.88885467563E+00  0.88000000000E+00 0.  1.
        -11    1    4    4    0    0  0.24807948819E-01 -0.10704132635E-01  0.37720925528E-03  0.27026212977E-01  0.51100000000E-03 0.  1.
         11    1    4    4    0    0  0.73469331284E-01 -0.71313708413E-01  0.16972123896E-01  0.10378680917E+00  0.51100000000E-03 0. -1.
</event>
<event>
 8    1  0.1060404E+005  0.1043930E+01  0.7957747E-01            NaN
         13   -1    0    0    0    0  0.00000000000E+00  0.00000000000E+00  0.74505805969E-08  0.10566000000E+00  0.10566000000E+00 0.  1.
     999900   -1    0    0    0    0 -0.00000000000E+00 -0.00000000000E+00 -0.74505805969E-08  0.93827000000E+00  0.93827000000E+00 0. -1.
     999902    2    1    2    0    0 -0.27479014480E-02 -0.28470830539E-01 -0.53741183681E-02  0.10148263868E+01  0.10144089782E+01 0.  0.
     999903    2    3    3    0    0  0.10505220225E+00 -0.10598543558E-01  0.64498678483E-01  0.12531950725E+00  0.19914945381E-01 0.  0.
         14    1    1    2    0    0  0.27479014480E-02  0.28470830539E-01  0.53741183681E-02  0.29103613215E-01  0.00000000000E+00 0.  1.
     999901    1    3    3    0    0 -0.10780010369E+00 -0.17872286981E-01 -0.69872796851E-01  0.88950687953E+00  0.88000000000E+00 0. -1.
        -11    1    4    4    0    0  0.55764816776E-01 -0.32888063561E-02  0.22773144957E-01  0.60327508564E-01  0.51100000000E-03 0.  1.
         11    1    4    4    0    0  0.49287385469E-01 -0.73097372022E-02  0.41725533525E-01  0.64991998687E-01  0.51100000000E-03 0. -1.
</event>
<event>
 8    1  0.1060404E+005  0.1043930E+01  0.7957747E-01            NaN
         13   -1    0    0    0    0  0.00000000000E+00  0.00000000000E+00  0.74505805969E-08  0.10566000000E+00  0.10566000000E+00 0. -1.
     999900   -1    0    0    0    0 -0.00000000000E+00 -0.00000000000E+00 -0.74505805969E-08  0.93827000000E+00  0.93827000000E+00 0.  1.
     999902    2    1    2    0    0 -0.16077782334E-01  0.16925076252E-01  0.19150962893E-02  0.10205073425E+01  0.10202385090E+01 0.  0.
     999903    2    3    3    0    0  0.60728891179E-02 -0.98265298642E-01  0.81369025054E-01  0.12917552913E+00  0.19298968590E-01 0.  0.
         14    1    1    2    0    0  0.16077782334E-01 -0.16925076252E-01 -0.19150962893E-02  0.23422657508E-01  0.00000000000E+00 0. -1.
     999901    1    3    3    0    0 -0.22150671452E-01  0.11519037489E+00 -0.79453928764E-01  0.89133181336E+00  0.88000000000E+00 0.  1.
        -11    1    4    4    0    0 -0.61600582796E-02 -0.43455651132E-01  0.30998582683E-01  0.53735585813E-01  0.51100000000E-03 0.  1.
         11    1    4    4    0    0  0.12232947398E-01 -0.54809647510E-01  0.50370442370E-01  0.75439943318E-01  0.51100000000E-03 0. -1.
</event>
<event>
 8    1  0.1060404E+005  0.1043930E+01  0.7957747E-01            NaN
         13   -1    0    0    0    0  0.00000000000E+00  0.00000000000E+00  0.74505805969E-08  0.10566000000E+00  0.10566000000E+00 0. -1.
     999900   -1    0    0    0    0 -0.00000000000E+00 -0.00000000000E+00 -0.74505805969E-08  0.93827000000E+00  0.93827000000E+00 0. -1.
     999902    2    1    2    0    0 -0.14659307056E-03 -0.17583771729E-01  0.15242584851E-01  0.10206588395E+01  0.10203935122E+01 0.  0.
     999903    2    3    3    0    0 -0.10336071197E+00 -0.18230674109E-01 -0.74202121549E-01  0.13012308597E+00  0.20255083411E-01 0.  0.
         14    1    1    2    0    0  0.14659307056E-03  0.17583771729E-01 -0.15242584851E-01  0.23271160493E-01  0.00000000000E+00 0.  1.
     999901    1    3    3    0    0  0.10321411889E+00  0.64690238032E-03  0.89444706400E-01  0.89053575354E+00  0.88000000000E+00 0.  1.
        -11    1    4    4    0    0 -0.39977466073E-01 -0.10270059157E-01 -0.40779325112E-01  0.58024877305E-01  0.51100000000E-03 0.  1.
         11    1    4    4    0    0 -0.63383245892E-01 -0.79606149524E-02 -0.33422796437E-01  0.72098208666E-01  0.51100000000E-03 0. -1.
</event>
<event>
 8    1  0.1060404E+005  0.1043930E+01  0.7957747E-01            NaN
         13   -1    0    0    0    0  0.00000000000E+00  0.00000000000E+00  0.74505805969E-08  0.10566000000E+00  0.10566000000E+00 0.  1.
     999900   -1    0    0    0    0 -0.00000000000E+00 -0.00000000000E+00 -0.74505805969E-08  0.93827000000E+00  0.93827000000E+00 0. -1.
     999902    2    1    2    0    0 -0.18344737519E-01 -0.12885820909E-01  0.46503347377E-02  0.10210345990E+01  0.10207778666E+01 0.  0.
     999903    2    3    3    0    0 -0.24035229824E-01  0.10504934719E+00 -0.69909995413E-01  0.13002375257E+00  0.20142272842E-01 0.  0.
         14    1    1    2    0    0  0.18344737519E-01  0.12885820909E-01 -0.46503347377E-02  0.22895401030E-01  0.00000000000E+00 0. -1.
     999901    1    3    3    0    0  0.56904923050E-02 -0.11793516810E+00  0.74560330151E-01  0.89101084640E+00  0.88000000000E+00 0.  1.
        -11    1    4    4    0    0  0.64338429819E-04  0.16745714163E-01 -0.39879683289E-02  0.17221733208E-01  0.51100000000E-03 0. -1.
         11    1    4    4    0    0 -0.24099568254E-01  0.88303633026E-01 -0.65922027084E-01  0.11280201936E+00  0.51100000000E-03 0.  1.
</event>
<event>
 8    1  0.1060404E+005  0.1043930E+01  0.7957747E-01            NaN
         13   -1    0    0    0    0  0.00000000000E+00  0.00000000000E+00  0.74505805969E-08  0.10566000000E+00  0.10566000000E+00 0.  1.
     999900   -1    0    0    0    0 -0.00000000000E+00 -0.00000000000E+00 -0.74505805969E-08  0.93827000000E+00  0.93827000000E+00 0. -1.
     999902    2    1    2    0    0 -0.18985169265E-01  0.17620743871E-01 -0.54260627447E-02  0.10174655064E+01  0.10171212746E+01 0.  0.
     999903    2    3    3    0    0  0.48529085157E-01 -0.65177727146E-01  0.93435790737E-01  0.12550842924E+00  0.20467305582E-01 0.  0.
         14    1    1    2    0    0  0.18985169265E-01 -0.17620743871E-01  0.54260627447E-02  0.26464493638E-01  0.00000000000E+00 0.  1.
     999901    1    3    3    0    0 -0.67514254421E-01  0.82798471018E-01 -0.98861853482E-01  0.89195707712E+00  0.88000000000E+00 0. -1.
        -11    1    4    4    0    0  0.16429349831E-01 -0.39100341800E-01  0.48769070383E-01  0.64633146386E-01  0.51100000000E-03 0. -1.
         11    1    4    4    0    0  0.32099735325E-01 -0.26077385346E-01  0.44666720355E-01  0.60875282855E-01  0.51100000000E-03 0.  1.
</event>
<event>
 8    1  0.1060404E+005  0.1043930E+01  0.7957747E-01            NaN
         13   -1    0    0    0    0  0.00000000000E+00  0.00000000000E+00  0.74505805969E-08  0.10566000000E+00  0.10566000000E+00 0.  1.
     999900   -1    0    0    0    0 -0.00000000000E+00 -0.00000000000E+00 -0.74505805969E-08  0.93827000000E+00  0.93827000000E+00 0.  1.
     999902    2    1    2    0    0 -0.17873262360E-01  0.19796976662E-02  0.14261038790E-01  0.10209789665E+01  0.10207209708E+01 0.  0.
     999903    2    3    3    0    0  0.99301870711E-01  0.75366285029E-01 -0.28943605766E-01  0.12913691530E+00  0.17253177488E-01 0.  0.
         14    1    1    2    0    0  0.17873262360E-01 -0.19796976662E-02 -0.14261038790E-01  0.22951033476E-01  0.00000000000E+00 0.  1.
     999901    1    3    3    0    0 -0.11717513307E+00 -0.73386587363E-01  0.43204644555E-01  0.89184205122E+00  0.88000000000E+00 0.  1.
        -11    1    4    4    0    0  0.70858104864E-01  0.57139711321E-01 -0.28367525861E-01  0.95345662089E-01  0.51100000000E-03 0. -1.
         11    1    4    4    0    0  0.28443765847E-01  0.18226573709E-01 -0.57607990509E-03  0.33791253214E-01  0.51100000000E-03 0.  1.
</event>
<event>
 8    1  0.1060404E+005  0.1043930E+01  0.7957747E-01            NaN
         13   -1    0    0    0    0  0.00000000000E+00  0.00000000000E+00  0.74505805969E-08  0.10566000000E+00  0.10566000000E+00 0.  1.
     999900   -1    0    0    0    0 -0.00000000000E+00 -0.00000000000E+00 -0.74505805969E-08  0.93827000000E+00  0.93827000000E+00 0. -1.
     999902    2    1    2    0    0  0.19353733569E-01  0.11482791017E-01  0.64110737995E-02  0.10205307829E+01  0.10202624934E+01 0.  0.
     999903    2    3    3    0    0 -0.82931424032E-01  0.17787594478E-01  0.95949723821E-01  0.13007069181E+00  0.22759959528E-01 0.  0.
         14    1    1    2    0    0 -0.19353733569E-01 -0.11482791017E-01 -0.64110737995E-02  0.23399217078E-01  0.00000000000E+00 0.  1.
     999901    1    3    3    0    0  0.10228515760E+00 -0.63048034608E-02 -0.89538650022E-01  0.89046009111E+00  0.88000000000E+00 0. -1.
        -11    1    4    4    0    0 -0.55879830991E-01  0.18687584163E-01  0.52730617257E-01  0.79073133432E-01  0.51100000000E-03 0.  1.
         11    1    4    4    0    0 -0.27051593041E-01 -0.89998968496E-03  0.43219106565E-01  0.50997558380E-01  0.51100000000E-03 0. -1.
</event>
<event>
 8    1  0.1060404E+005  0.1043930E+01  0.7957747E-01            NaN
         13   -1    0    0    0    0  0.00000000000E+00  0.00000000000E+00  0.74505805969E-08  0.10566000000E+00  0.10566000000E+00 0. -1.
     999900   -1    0    0    0    0 -0.00000000000E+00 -0.00000000000E+00 -0.74505805969E-08  0.93827000000E+00  0.93827000000E+00 0.  1.
     999902    2    1    2    0    0  0.11286115757E-01 -0.60589548626E-02  0.19016728376E-01  0.10210013432E+01  0.10207438560E+01 0.  0.
     999903    2    3    3    0    0 -0.99470277110E-01 -0.53284148471E-01  0.64667752838E-01  0.13163009707E+00  0.20273817868E-01 0.  0.
         14    1    1    2    0    0 -0.11286115757E-01  0.60589548626E-02 -0.19016728376E-01  0.22928656764E-01  0.00000000000E+00 0.  1.
     999901    1    3    3    0    0  0.11075639287E+00  0.47225193609E-01 -0.45651024462E-01  0.88937124617E+00  0.88000000000E+00 0.  1.
        -11    1    4    4    0    0 -0.17489285526E-01 -0.16098814355E-01  0.20326159599E-01  0.31280358325E-01  0.51100000000E-03 0. -1.
         11    1    4    4    0    0 -0.81980991583E-01 -0.37185334117E-01  0.44341593239E-01  0.10034973875E+00  0.51100000000E-03 0.  1.
</event>
<event>
 8    1  0.1060404E+005  0.1043930E+01  0.7957747E-01            NaN
         13   -1    0    0    0    0  0.00000000000E+00  0.00000000000E+00  0.74505805969E-08  0.10566000000E+00  0.10566000000E+00 0.  1.
     999900   -1    0    0    0    0 -0.00000000000E+00 -0.00000000000E+00 -0.74505805969E-08  0.93827000000E+00  0.93827000000E+00 0.  1.
     999902    2    1    2    0    0  0.23395320580E-02 -0.22693465187E-01 -0.47784622617E-02  0.10206211932E+01  0.10203549968E+01 0.  0.
     999903    2    3    3    0    0  0.54476908292E-01  0.53744277663E-01 -0.10345737394E+00  0.13028498585E+00  0.20360952746E-01 0.  0.
         14    1    1    2    0    0 -0.23395320580E-02  0.22693465187E-01  0.47784622617E-02  0.23308806791E-01  0.00000000000E+00 0.  1.
     999901    1    3    3    0    0 -0.52137376234E-01 -0.76437742850E-01  0.98678911674E-01  0.89033620736E+00  0.88000000000E+00 0. -1.
        -11    1    4    4    0    0  0.35012965280E-01  0.26969025894E-01 -0.44818257210E-01  0.62945797284E-01  0.51100000000E-03 0. -1.
         11    1    4    4    0    0  0.19463943012E-01  0.26775251769E-01 -0.58639116725E-01  0.67339188561E-01  0.51100000000E-03 0.  1.
</event>
<event>
 8    1  0.1060404E+005  0.1043930E+01  0.7957747E-01            NaN
         13   -1    0    0    0    0  0.00000000000E+00  0.00000000000E+00  0.74505805969E-08  0.10566000000E+00  0.10566000000E+00 0.  1.
     999900   -1    0    0    0    0 -0.00000000000E+00 -0.00000000000E+00 -0.74505805969E-08  0.93827000000E+00  0.93827000000E+00 0. -1.
     999902    2    1    2    0    0 -0.11878647849E-01  0.50639502740E-02  0.21062275026E-01  0.10192244278E+01  0.10189249575E+01 0.  0.
     999903    2    3    3    0    0  0.61682280756E-02  0.10504746905E+00  0.76386404115E-01  0.13165293605E+00  0.20605704176E-01 0.  0.
         14    1    1    2    0    0  0.11878647849E-01 -0.50639502740E-02 -0.21062275026E-01  0.24705572173E-01  0.00000000000E+00 0. -1.
     999901    1    3    3    0    0 -0.18046875925E-01 -0.99983518779E-01 -0.55324129088E-01  0.88757149178E+00  0.88000000000E+00 0. -1.
        -11    1    4    4    0    0 -0.54616049754E-02  0.66533909645E-01  0.51821732117E-01  0.84512385495E-01  0.51100000000E-03 0. -1.
         11    1    4    4    0    0  0.11629833051E-01  0.38513559408E-01  0.24564671998E-01  0.47140550553E-01  0.51100000000E-03 0.  1.
</event>
<event>
 8    1  0.1060404E+005  0.1043930E+01  0.7957747E-01            NaN
         13   -1    0    0    0    0  0.00000000000E+00  0.00000000000E+00  0.74505805969E-08  0.10566000000E+00  0.10566000000E+00 0.  1.
     999900   -1    0    0    0    0 -0.00000000000E+00 -0.00000000000E+00 -0.74505805969E-08  0.93827000000E+00  0.93827000000E+00 0.  1.
     999902    2    1    2    0    0  0.16056663455E-01  0.12303250596E-01 -0.73630073146E-02  0.10224032656E+01  0.10221766174E+01 0.  0.
     999903    2    3    3    0    0  0.11007308969E+00 -0.71939285934E-01  0.82754258746E-02  0.13325735298E+00  0.19942254526E-01 0.  0.
         14    1    1    2    0    0 -0.16056663455E-01 -0.12303250596E-01  0.73630073146E-02  0.21526734384E-01  0.00000000000E+00 0. -1.
     999901    1    3    3    0    0 -0.94016426234E-01  0.84242536531E-01 -0.15638433189E-01  0.88914591263E+00  0.88000000000E+00 0.  1.
        -11    1    4    4    0    0  0.69986006418E-01 -0.55778759167E-01  0.96179554428E-02  0.90011539574E-01  0.51100000000E-03 0.  1.
         11    1    4    4    0    0  0.40087083271E-01 -0.16160526767E-01 -0.13425295682E-02  0.43245813406E-01  0.51100000000E-03 0. -1.
</event>
<event>
 8    1  0.1060404E+005  0.1043930E+01  0.7957747E-01            NaN
         13   -1    0    0    0    0  0.00000000000E+00  0.00000000000E+00  0.74505805969E-08  0.10566000000E+00  0.10566000000E+00 0. -1.
     999900   -1    0    0    0    0 -0.00000000000E+00 -0.00000000000E+00 -0.74505805969E-08  0.93827000000E+00  0.93827000000E+00 0.  1.
     999902    2    1    2    0    0  0.15610831343E-01  0.17185441013E-01 -0.77216693030E-02  0.10194624375E+01  0.10191687789E+01 0.  0.
     999903    2    3    3    0    0  0.12278682648E+00  0.37074598611E-01  0.24488545036E-01  0.13215202370E+00  0.20330713503E-01 0.  0.
         14    1    1    2    0    0 -0.15610831343E-01 -0.17185441013E-01  0.77216693030E-02  0.24467562503E-01  0.00000000000E+00 0. -1.
     999901    1    3    3    0    0 -0.10717599513E+00 -0.19889157598E-01 -0.32210214339E-01  0.88731041380E+00  0.88000000000E+00 0.  1.
        -11    1    4    4    0    0  0.94091964032E-01  0.21777384320E-01  0.24461925618E-01  0.99630312100E-01  0.51100000000E-03 0. -1.
         11    1    4    4    0    0  0.28694862446E-01  0.15297214291E-01  0.26619418672E-04  0.32521711601E-01  0.51100000000E-03 0.  1.
</event>
<event>
 8    1  0.1060404E+005  0.1043930E+01  0.7957747E-01            NaN
         13   -1    0    0    0    0  0.00000000000E+00  0.00000000000E+00  0.74505805969E-08  0.10566000000E+00  0.10566000000E+00 0. -1.
     999900   -1    0    0    0    0 -0.00000000000E+00 -0.00000000000E+00 -0.74505805969E-08  0.93827000000E+00  0.93827000000E+00 0.  1.
     999902    2    1    2    0    0  0.33938088953E-03  0.12015350405E-01  0.19926849389E-01  0.10206584906E+01  0.10203931552E+01 0.  0.
     999903    2    3    3    0    0  0.12152869917E+00  0.11672134247E-01  0.45739358569E-01  0.13197786498E+00  0.20508644083E-01 0.  0.
         14    1    1    2    0    0 -0.33938088953E-03 -0.12015350405E-01 -0.19926849389E-01  0.23271509434E-01  0.00000000000E+00 0.  1.
     999901    1    3    3    0    0 -0.12118931828E+00  0.34321615817E-03 -0.25812509180E-01  0.88868062559E+00  0.88000000000E+00 0.  1.
        -11    1    4    4    0    0  0.11593209631E+00  0.13623321440E-01  0.39199250210E-01  0.12313686767E+00  0.51100000000E-03 0.  1.
         11    1    4    4    0    0  0.55966028607E-02 -0.19511871933E-02  0.65401083596E-02  0.88409973079E-02  0.51100000000E-03 0. -1.
</event>
<event>
 8    1  0.1060404E+005  0.1043930E+01  0.7957747E-01            NaN
         13   -1    0    0    0    0  0.00000000000E+00  0.00000000000E+00  0.74505805969E-08  0.10566000000E+00  0.10566000000E+00 0.  1.
     999900   -1    0    0    0    0 -0.00000000000E+00 -0.00000000000E+00 -0.74505805969E-08  0.93827000000E+00  0.93827000000E+00 0.  1.
     999902    2    1    2    0    0  0.45494693630E-02 -0.19632418354E-01 -0.96621375919E-02  0.10215808071E+01  0.10213363104E+01 0.  0.
     999903    2    3    3    0    0 -0.71133876332E-01 -0.10550100500E+00 -0.36183906514E-01  0.13377182580E+00  0.19878024810E-01 0.  0.
         14    1    1    2    0    0 -0.45494693630E-02  0.19632418354E-01  0.96621375919E-02  0.22349192933E-01  0.00000000000E+00 0. -1.
     999901    1    3    3    0    0  0.75683345695E-01  0.85868586644E-01  0.26521768922E-01  0.88780898126E+00  0.88000000000E+00 0. -1.
        -11    1    4    4    0    0 -0.39929909510E-01 -0.44681425773E-01 -0.22789551953E-01  0.64112809031E-01  0.51100000000E-03 0. -1.
         11    1    4    4    0    0 -0.31203966821E-01 -0.60819579224E-01 -0.13394354561E-01  0.69659016771E-01  0.51100000000E-03 0.  1.
</event>
<event>
 8    1  0.1060404E+005  0.1043930E+01  0.7957747E-01            NaN
         13   -1    0    0    0    0  0.00000000000E+00  0.00000000000E+00  0.74505805969E-08  0.10566000000E+00  0.10566000000E+00 0.  1.
     999900   -1    0    0    0    0 -0.00000000000E+00 -0.00000000000E+00 -0.74505805969E-08  0.93827000000E+00  0.93827000000E+00 0. -1.
     999902    2    1    2    0    0  0.22422435618E-01  0.46283605913E-02  0.57075580986E-02  0.10203341622E+01  0.10200612918E+01 0.  0.
     999903    2    3    3    0    0  0.91789564458E-02 -0.35000595694E-01 -0.12321313559E+00  0.12995986499E+00  0.19969846917E-01 0.  0.
         14    1    1    2    0    0 -0.22422435618E-01 -0.46283605913E-02 -0.57075580986E-02  0.23595837774E-01  0.00000000000E+00 0. -1.
     999901    1    3    3    0    0  0.13243479172E-01  0.39628956285E-01  0.12892069369E+00  0.89037429724E+00  0.88000000000E+00 0.  1.
        -11    1    4    4    0    0  0.12731436666E-01 -0.28798883454E-01 -0.76942093148E-01  0.83137308032E-01  0.51100000000E-03 0. -1.
         11    1    4    4    0    0 -0.35524802200E-02 -0.62017122400E-02 -0.46271042442E-01  0.46822556958E-01  0.51100000000E-03 0.  1.
</event>
<event>
 8    1  0.1060404E+005  0.1043930E+01  0.7957747E-01            NaN
         13   -1    0    0    0    0  0.00000000000E+00  0.00000000000E+00  0.74505805969E-08  0.10566000000E+00  0.10566000000E+00 0.  1.
     999900   -1    0    0    0    0 -0.00000000000E+00 -0.00000000000E+00 -0.74505805969E-08  0.93827000000E+00  0.93827000000E+00 0.  1.
     999902    2    1    2    0    0  0.20518226579E-01 -0.11934233209E-01 -0.22881820828E-02  0.10200834212E+01  0.10198046513E+01 0.  0.
     999903    2    3    3    0    0 -0.79626925020E-01 -0.10068841646E+00 -0.27168871113E-02  0.12996739491E+00  0.20137970780E-01 0.  0.
         14    1    1    2    0    0 -0.20518226579E-01  0.11934233209E-01  0.22881820828E-02  0.23846578822E-01  0.00000000000E+00 0.  1.
     999901    1    3    3    0    0  0.10014515160E+00  0.88754183249E-01  0.42870502853E-03  0.89011602627E+00  0.88000000000E+00 0.  1.
        -11    1    4    4    0    0 -0.63123497991E-01 -0.82978127894E-01  0.54804910684E-02  0.10440422698E+00  0.51100000000E-03 0.  1.
         11    1    4    4    0    0 -0.16503427029E-01 -0.17710288564E-01 -0.81973781797E-02  0.25563167932E-01  0.51100000000E-03 0. -1.
</event>
<event>
 8    1  0.1060404E+005  0.1043930E+01  0.7957747E-01            NaN
         13   -1    0    0    0    0  0.00000000000E+00  0.00000000000E+00  0.74505805969E-08  0.10566000000E+00  0.10566000000E+00 0. -1.
     999900   -1    0    0    0    0 -0.00000000000E+00 -0.00000000000E+00 -0.74505805969E-08  0.93827000000E+00  0.93827000000E+00 0. -1.
     999902    2    1    2    0    0 -0.76876628035E-02 -0.31480978769E-02  0.22096373407E-01  0.10203236365E+01  0.10200505197E+01 0.  0.
     999903    2    3    3    0    0  0.31447194001E-01  0.11958622619E+00 -0.32286224627E-01  0.12928339146E+00  0.19544909869E-01 0.  0.
         14    1    1    2    0    0  0.76876628035E-02  0.31480978769E-02 -0.22096373407E-01  0.23606363493E-01  0.00000000000E+00 0.  1.
     999901    1    3    3    0    0 -0.39134856804E-01 -0.12273432407E+00  0.54382598034E-01  0.89104024505E+00  0.88000000000E+00 0.  1.
        -11    1    4    4    0    0  0.26153404645E-01  0.90933761367E-01 -0.16205275221E-01  0.95999070812E-01  0.51100000000E-03 0. -1.
         11    1    4    4    0    0  0.52937893564E-02  0.28652464825E-01 -0.16080949405E-01  0.33284320649E-01  0.51100000000E-03 0.  1.
</event>
<event>
 8    1  0.1060404E+005  0.1043930E+01  0.7957747E-01            NaN
         13   -1    0    0    0    0  0.00000000000E+00  0.00000000000E+00  0.74505805969E-08  0.10566000000E+00  0.10566000000E+00 0. -1.
     999900   -1    0    0    0    0 -0.00000000000E+00 -0.00000000000E+00 -0.74505805969E-08  0.93827000000E+00  0.93827000000E+00 0.  1.
     999902    2    1    2    0    0  0.17900709179E-02 -0.15419003401E-01 -0.77752970152E-02  0.10265689729E+01  0.10264221601E+01 0.  0.
     999903    2    3    3    0    0  0.52380898655E-01 -0.29031655921E-01  0.11948218314E+00  0.13587306380E+00  0.24472470033E-01 0.  0.
         14    1    1    2    0    0 -0.17900709179E-02  0.15419003401E-01  0.77752970152E-02  0.17361027142E-01  0.00000000000E+00 0. -1.
     999901    1    3    3    0    0 -0.50590827737E-01  0.13612652520E-01 -0.12725748015E+00  0.89069590906E+00  0.88000000000E+00 0.  1.
        -11    1    4    4    0    0  0.42365590388E-01 -0.11524852928E-01  0.90118972064E-01  0.10024647490E+00  0.51100000000E-03 0.  1.
         11    1    4    4    0    0  0.10015308266E-01 -0.17506802993E-01  0.29363211073E-01  0.35626588894E-01  0.51100000000E-03 0. -1.
</event>
<event>
 8    1  0.1060404E+005  0.1043930E+01  0.7957747E-01            NaN
         13   -1    0    0    0    0  0.00000000000E+00  0.00000000000E+00  0.74505805969E-08  0.10566000000E+00  0.10566000000E+00 0.  1.
     999900   -1    0    0    0    0 -0.00000000000E+00 -0.00000000000E+00 -0.74505805969E-08  0.93827000000E+00  0.93827000000E+00 0.  1.
     999902    2    1    2    0    0  0.26618333551E-01  0.10070230881E-02  0.19723697905E-01  0.10107852563E+01  0.10102416841E+01 0.  0.
     999903    2    3    3    0    0 -0.12041759091E-01  0.71902908413E-01 -0.93228467710E-01  0.11989860748E+00  0.19211889101E-01 0.  0.
         14    1    1    2    0    0 -0.26618333551E-01 -0.10070230881E-02 -0.19723697905E-01  0.33144743710E-01  0.00000000000E+00 0. -1.
     999901    1    3    3    0    0  0.38660092642E-01 -0.70895885325E-01  0.11295216561E+00  0.89088664881E+00  0.88000000000E+00 0. -1.
        -11    1    4    4    0    0  0.48311241901E-02  0.12626267905E-01 -0.13351235441E-01  0.19007340975E-01  0.51100000000E-03 0. -1.
         11    1    4    4    0    0 -0.16872883281E-01  0.59276640508E-01 -0.79877232269E-01  0.10089126650E+00  0.51100000000E-03 0.  1.
</event>
<event>
 8    1  0.1060404E+005  0.1043930E+01  0.7957747E-01            NaN
         13   -1    0    0    0    0  0.00000000000E+00  0.00000000000E+00  0.74505805969E-08  0.10566000000E+00  0.10566000000E+00 0. -1.
     999900   -1    0    0    0    0 -0.00000000000E+00 -0.00000000000E+00 -0.74505805969E-08  0.93827000000E+00  0.93827000000E+00 0. -1.
     999902    2    1    2    0    0 -0.38546706040E-02 -0.14716134941E-01  0.17886594732E-01  0.10204490847E+01  0.10201788966E+01 0.  0.
     999903    2    3    3    0    0 -0.12849818436E+00 -0.17552769337E-01 -0.65392106323E-02  0.13132554322E+00  0.19589638315E-01 0.  0.
         14    1    1    2    0    0  0.38546706040E-02  0.14716134941E-01 -0.17886594732E-01  0.23480915318E-01  0.00000000000E+00 0.  1.
     999901    1    3    3    0    0  0.12464351376E+00  0.28366343957E-02  0.24425805365E-01  0.88912354146E+00  0.88000000000E+00 0. -1.
        -11    1    4    4    0    0 -0.66240756791E-01 -0.15710747868E-03  0.94502703301E-03  0.66249654642E-01  0.51100000000E-03 0. -1.
         11    1    4    4    0    0 -0.62257427574E-01 -0.17395661858E-01 -0.74842376653E-02  0.65075888576E-01  0.51100000000E-03 0.  1.
</event>
<event>
 8    1  0.1060404E+005  0.1043930E+01  0.7957747E-01            NaN
         13   -1    0    0    0    0  0.00000000000E+00  0.00000000000E+00  0.74505805969E-08  0.10566000000E+00  0.10566000000E+00 0. -1.
     999900   -1    0    0    0    0 -0.00000000000E+00 -0.00000000000E+00 -0.74505805969E-08  0.93827000000E+00  0.93827000000E+00 0.  1.
     999902    2    1    2    0    0 -0.11644799661E-01  0.17884134329E-01  0.12319277092E-01  0.10192884049E+01  0.10189905025E+01 0.  0.
     999903    2    3    3    0    0 -0.17455069286E-01  0.12476031392E+00  0.34875919979E-01  0.13251612348E+00  0.21780216160E-01 0.  0.
         14    1    1    2    0    0  0.11644799661E-01 -0.17884134329E-01 -0.12319277092E-01  0.24641595077E-01  0.00000000000E+00 0.  1.
     999901    1    3    3    0    0  0.58102696244E-02 -0.10687617959E+00 -0.22556642886E-01  0.88677228144E+00  0.88000000000E+00 0. -1.
        -11    1    4    4    0    0 -0.35227094241E-03  0.47100987433E-01  0.21882353296E-01  0.51939634372E-01  0.51100000000E-03 0. -1.
         11    1    4    4    0    0 -0.17102798343E-01  0.77659326482E-01  0.12993566683E-01  0.80576489108E-01  0.51100000000E-03 0.  1.
</event>
<event>
 8    1  0.1060404E+005  0.1043930E+01  0.7957747E-01            NaN
         13   -1    0    0    0    0  0.00000000000E+00  0.00000000000E+00  0.74505805969E-08  0.10566000000E+00  0.10566000000E+00 0.  1.
     999900   -1    0    0    0    0 -0.00000000000E+00 -0.00000000000E+00 -0.74505805969E-08  0.93827000000E+00  0.93827000000E+00 0. -1.
     999902    2    1    2    0    0  0.22396365132E-01 -0.44998186537E-02  0.42681150069E-02  0.10206907585E+01  0.10204261669E+01 0.  0.
     999903    2    3    3    0    0 -0.11153934611E+00  0.52680349492E-01 -0.28871844975E-01  0.12810653094E+00  0.19011966850E-01 0.  0.
         14    1    1    2    0    0 -0.22396365132E-01  0.44998186537E-02 -0.42681150069E-02  0.23239241484E-01  0.00000000000E+00 0. -1.
     999901    1    3    3    0    0  0.13393571124E+00 -0.57180168146E-01  0.33139959982E-01  0.89258422758E+00  0.88000000000E+00 0.  1.
        -11    1    4    4    0    0 -0.14587110814E-01  0.75932794131E-02  0.25757264793E-02  0.16653443549E-01  0.51100000000E-03 0. -1.
         11    1    4    4    0    0 -0.96952235295E-01  0.45087070079E-01 -0.31447571455E-01  0.11145308739E+00  0.51100000000E-03 0.  1.
</event>
<event>
 8    1  0.1060404E+005  0.1043930E+01  0.7957747E-01            NaN
         13   -1    0    0    0    0  0.00000000000E+00  0.00000000000E+00  0.74505805969E-08  0.10566000000E+00  0.10566000000E+00 0. -1.
     999900   -1    0    0    0    0 -0.00000000000E+00 -0.00000000000E+00 -0.74505805969E-08  0.93827000000E+00  0.93827000000E+00 0. -1.
     999902    2    1    2    0    0  0.18727449652E-01 -0.24204239781E-02  0.10763497235E-01  0.10221945751E+01  0.10219634635E+01 0.  0.
     999903    2    3    3    0    0 -0.12580326788E+00  0.10150509931E-02 -0.19022826680E-01  0.12990081412E+00  0.26169849752E-01 0.  0.
         14    1    1    2    0    0 -0.18727449652E-01  0.24204239781E-02 -0.10763497235E-01  0.21735424896E-01  0.00000000000E+00 0. -1.
     999901    1    3    3    0    0  0.14453071753E+00 -0.34354749712E-02  0.29786323915E-01  0.89229376098E+00  0.88000000000E+00 0. -1.
        -11    1    4    4    0    0 -0.96454372517E-01 -0.98962932466E-02 -0.11077113209E-01  0.97592756676E-01  0.51100000000E-03 0. -1.
         11    1    4    4    0    0 -0.29348895364E-01  0.10911344240E-01 -0.79457134707E-02  0.32308057444E-01  0.51100000000E-03 0.  1.
</event>
<event>
 8    1  0.1060404E+005  0.1043930E+01  0.7957747E-01            NaN
         13   -1    0    0    0    0  0.00000000000E+00  0.00000000000E+00  0.74505805969E-08  0.10566000000E+00  0.10566000000E+00 0. -1.
     999900   -1    0    0    0    0 -0.00000000000E+00 -0.00000000000E+00 -0.74505805969E-08  0.93827000000E+00  0.93827000000E+00 0.  1.
     999902    2    1    2    0    0 -0.23388332393E-01 -0.76070636639E-03  0.26501439903E-02  0.10203797128E+01  0.10201079071E+01 0.  0.
     999903    2    3    3    0    0 -0.11769917130E+00  0.58314368884E-01  0.11418620589E-01  0.13332769340E+00  0.19804756700E-01 0.  0.
         14    1    1    2    0    0  0.23388332393E-01  0.76070636639E-03 -0.26501439903E-02  0.23550287248E-01  0.00000000000E+00 0. -1.
     999901    1    3    3    0    0  0.94310838909E-01 -0.59075075250E-01 -0.87684765989E-02  0.88705201935E+00  0.88000000000E+00 0. -1.
        -11    1    4    4    0    0 -0.89532372447E-01  0.48849031911E-01  0.16056420413E-01  0.10324893894E+00  0.51100000000E-03 0. -1.
         11    1    4    4    0    0 -0.28166798855E-01  0.94653369730E-02 -0.46377998238E-02  0.30078754462E-01  0.51100000000E-03 0.  1.
</event>
<event>
 8    1  0.1060404E+005  0.1043930E+01  0.7957747E-01            NaN
         13   -1    0    0    0    0  0.00000000000E+00  0.00000000000E+00  0.74505805969E-08  0.10566000000E+00  0.10566000000E+00 0. -1.
     999900   -1    0    0    0    0 -0.00000000000E+00 -0.00000000000E+00 -0.74505805969E-08  0.93827000000E+00  0.93827000000E+00 0.  1.
     999902    2    1    2    0    0 -0.52139480781E-02  0.13909703876E-02  0.22649450707E-01  0.10206465795E+01  0.10203809693E+01 0.  0.
     999903    2    3    3    0    0  0.59112746616E-01 -0.49126263497E-01  0.10671773230E+00  0.13286429169E+00  0.18882241390E-01 0.  0.
         14    1    1    2    0    0  0.52139480781E-02 -0.13909703876E-02 -0.22649450707E-01  0.23283420507E-01  0.00000000000E+00 0.  1.
     999901    1    3    3    0    0 -0.64326694694E-01  0.50517233884E-01 -0.84068281597E-01  0.88778228781E+00  0.88000000000E+00 0.  1.
        -11    1    4    4    0    0  0.12842719614E-01 -0.11954439637E-01  0.39300383550E-01  0.43042134499E-01  0.51100000000E-03 0. -1.
         11    1    4    4    0    0  0.46270027003E-01 -0.37171823860E-01  0.67417348754E-01  0.89822157189E-01  0.51100000000E-03 0.  1.
</event>
<event>
 8    1  0.1060404E+005  0.1043930E+01  0.7957747E-01            NaN
         13   -1    0    0    0    0  0.00000000000E+00  0.00000000000E+00  0.74505805969E-08  0.10566000000E+00  0.10566000000E+00 0.  1.
     999900   -1    0    0    0    0 -0.00000000000E+00 -0.00000000000E+00 -0.74505805969E-08  0.93827000000E+00  0.93827000000E+00 0.  1.
     999902    2    1    2    0    0 -0.15833431217E-01 -0.12759078529E-01  0.11276030124E-01  0.10206783230E+01  0.10204134449E+01 0.  0.
     999903    2    3    3    0    0 -0.10425886138E+00  0.51809400093E-01 -0.57269943188E-01  0.13124777730E+00  0.19799205523E-01 0.  0.
         14    1    1    2    0    0  0.15833431217E-01  0.12759078529E-01 -0.11276030124E-01  0.23251677023E-01  0.00000000000E+00 0. -1.
     999901    1    3    3    0    0  0.88425430159E-01 -0.64568478621E-01  0.68545973313E-01  0.88943054568E+00  0.88000000000E+00 0. -1.
        -11    1    4    4    0    0 -0.46816408194E-01  0.13593247037E-01 -0.18797386968E-01  0.52250888212E-01  0.51100000000E-03 0.  1.
         11    1    4    4    0    0 -0.57442453182E-01  0.38216153056E-01 -0.38472556220E-01  0.78996889085E-01  0.51100000000E-03 0. -1.
</event>
<event>
 8    1  0.1417119E+005  0.1043930E+01  0.7957747E-01            NaN
         13   -1    0    0    0    0  0.00000000000E+00  0.00000000000E+00  0.74505805969E-08  0.10566000000E+00  0.10566000000E+00 0. -1.
     999900   -1    0    0    0    0 -0.00000000000E+00 -0.00000000000E+00 -0.74505805969E-08  0.93827000000E+00  0.93827000000E+00 0. -1.
     999902    2    1    2    0    0 -0.12483295924E-01 -0.90253112542E-02 -0.27566572052E-01  0.10123514501E+01  0.10118588111E+01 0.  0.
     999903    2    3    3    0    0  0.20055823371E-01 -0.69710576514E-02 -0.12289625461E+00  0.12660274835E+00  0.21770043574E-01 0.  0.
         14    1    1    2    0    0  0.12483295924E-01  0.90253112542E-02  0.27566572052E-01  0.31578549920E-01  0.00000000000E+00 0. -1.
     999901    1    3    3    0    0 -0.32539119296E-01 -0.20542536027E-02  0.95329682555E-01  0.88574870173E+00  0.88000000000E+00 0.  1.
        -11    1    4    4    0    0  0.99760369413E-03  0.67547937808E-02 -0.31505167673E-01  0.32240644585E-01  0.51100000000E-03 0.  1.
         11    1    4    4    0    0  0.19058219677E-01 -0.13725851432E-01 -0.91391086934E-01  0.94362103764E-01  0.51100000000E-03 0. -1.
</event>
<event>
 8    1  0.1060404E+005  0.1043930E+01  0.7957747E-01            NaN
         13   -1    0    0    0    0  0.00000000000E+00  0.00000000000E+00  0.74505805969E-08  0.10566000000E+00  0.10566000000E+00 0. -1.
     999900   -1    0    0    0    0 -0.00000000000E+00 -0.00000000000E+00 -0.74505805969E-08  0.93827000000E+00  0.93827000000E+00 0.  1.
     999902    2    1    2    0    0 -0.17953764653E-01  0.17277775343E-01 -0.28820641498E-02  0.10188468288E+01  0.10185380184E+01 0.  0.
     999903    2    3    3    0    0 -0.21776932725E-01  0.11137043712E+00  0.63291868783E-01  0.13135202031E+00  0.19232356147E-01 0.  0.
         14    1    1    2    0    0  0.17953764653E-01 -0.17277775343E-01  0.28820641498E-02  0.25083171247E-01  0.00000000000E+00 0.  1.
     999901    1    3    3    0    0  0.38231680719E-02 -0.94092661773E-01 -0.66173932933E-01  0.88749480844E+00  0.88000000000E+00 0.  1.
        -11    1    4    4    0    0 -0.15873746098E-01  0.85039602621E-01  0.38447771350E-01  0.94668907630E-01  0.51100000000E-03 0. -1.
         11    1    4    4    0    0 -0.59031866272E-02  0.26330834495E-01  0.24844097434E-01  0.36683112680E-01  0.51100000000E-03 0.  1.
</event>
<event>
 8    1  0.1060404E+005  0.1043930E+01  0.7957747E-01            NaN
         13   -1    0    0    0    0  0.00000000000E+00  0.00000000000E+00  0.74505805969E-08  0.10566000000E+00  0.10566000000E+00 0. -1.
     999900   -1    0    0    0    0 -0.00000000000E+00 -0.00000000000E+00 -0.74505805969E-08  0.93827000000E+00  0.93827000000E+00 0.  1.
     999902    2    1    2    0    0 -0.18474417882E-01 -0.11487608638E-01 -0.95917656696E-02  0.10201545665E+01  0.10198774771E+01 0.  0.
     999903    2    3    3    0    0 -0.14301828910E-01 -0.53090483162E-01  0.11587615564E+00  0.13027232210E+00  0.22813433464E-01 0.  0.
         14    1    1    2    0    0  0.18474417882E-01  0.11487608638E-01  0.95917656696E-02  0.23775433475E-01  0.00000000000E+00 0. -1.
     999901    1    3    3    0    0 -0.41725889713E-02  0.41602874524E-01 -0.12546792131E+00  0.88988224443E+00  0.88000000000E+00 0.  1.
        -11    1    4    4    0    0 -0.16129917432E-01 -0.40708071293E-01  0.10468353919E+00  0.11347345859E+00  0.51100000000E-03 0. -1.
         11    1    4    4    0    0  0.18280885216E-02 -0.12382411869E-01  0.11192616447E-01  0.16798863511E-01  0.51100000000E-03 0.  1.
</event>
<event>
 8    1  0.1060404E+005  0.1043930E+01  0.7957747E-01            NaN
         13   -1    0    0    0    0  0.00000000000E+00  0.00000000000E+00  0.74505805969E-08  0.10566000000E+00  0.10566000000E+00 0.  1.
     999900   -1    0    0    0    0 -0.00000000000E+00 -0.00000000000E+00 -0.74505805969E-08  0.93827000000E+00  0.93827000000E+00 0. -1.
     999902    2    1    2    0    0  0.11117552391E-01 -0.19524036357E-01  0.49682189826E-02  0.10209197595E+01  0.10206604157E+01 0.  0.
     999903    2    3    3    0    0 -0.17715099479E-01  0.16994778598E-01  0.12738662079E+00  0.13122812151E+00  0.19769205071E-01 0.  0.
         14    1    1    2    0    0 -0.11117552391E-01  0.19524036357E-01 -0.49682189826E-02  0.23010240475E-01  0.00000000000E+00 0. -1.
     999901    1    3    3    0    0  0.28832651870E-01 -0.36518814955E-01 -0.12241840181E+00  0.88969163802E+00  0.88000000000E+00 0. -1.
        -11    1    4    4    0    0 -0.79471012323E-02  0.96449655216E-02  0.23479868204E-01  0.26603516869E-01  0.51100000000E-03 0.  1.
         11    1    4    4    0    0 -0.97679982470E-02  0.73498130761E-02  0.10390675258E+00  0.10462460464E+00  0.51100000000E-03 0. -1.
</event>
<event>
 8    1  0.1060404E+005  0.1043930E+01  0.7957747E-01            NaN
         13   -1    0    0    0    0  0.00000000000E+00  0.00000000000E+00  0.74505805969E-08  0.10566000000E+00  0.10566000000E+00 0.  1.
     999900   -1    0    0    0    0 -0.00000000000E+00 -0.00000000000E+00 -0.74505805969E-08  0.93827000000E+00  0.93827000000E+00 0. -1.
     999902    2    1    2    0    0 -0.94041523112E-02 -0.19524039045E-01 -0.94367715757E-02  0.10202936120E+01  0.10200197919E+01 0.  0.
     999903    2    3    3    0    0  0.12497151263E+00  0.20135089360E-01  0.14057505155E-01  0.12890051864E+00  0.19860248318E-01 0.  0.
         14    1    1    2    0    0  0.94041523112E-02  0.19524039045E-01  0.94367715757E-02  0.23636388029E-01  0.00000000000E+00 0.  1.
     999901    1    3    3    0    0 -0.13437566494E+00 -0.39659128405E-01 -0.23494276730E-01  0.89139309333E+00  0.88000000000E+00 0. -1.
        -11    1    4    4    0    0  0.11842524176E+00  0.20076547680E-01  0.17665488062E-01  0.12140813911E+00  0.51100000000E-03 0. -1.
         11    1    4    4    0    0  0.65462708637E-02  0.58541680052E-04 -0.36079829074E-02  0.74923795292E-02  0.51100000000E-03 0.  1.
</event>
<event>
 8    1  0.1060404E+005  0.1043930E+01  0.7957747E-01            NaN
         13   -1    0    0    0    0  0.00000000000E+00  0.00000000000E+00  0.74505805969E-08  0.10566000000E+00  0.10566000000E+00 0.  1.
     999900   -1    0    0    0    0 -0.00000000000E+00 -0.00000000000E+00 -0.74505805969E-08  0.93827000000E+00  0.93827000000E+00 0.  1.
     999902    2    1    2    0    0 -0.72854057663E-02 -0.87456233507E-02  0.25016338371E-01  0.10164458182E+01  0.10160741710E+01 0.  0.
     999903    2    3    3    0    0 -0.10499310234E+00 -0.65286557008E-01 -0.24811958063E-01  0.12783649442E+00  0.20991664449E-01 0.  0.
         14    1    1    2    0    0  0.72854057663E-02  0.87456233507E-02 -0.25016338371E-01  0.27484181823E-01  0.00000000000E+00 0. -1.
     999901    1    3    3    0    0  0.97707696576E-01  0.56540933657E-01  0.49828296435E-01  0.88860932376E+00  0.88000000000E+00 0. -1.
        -11    1    4    4    0    0 -0.73854001557E-01 -0.51783221085E-01 -0.25992894259E-01  0.93871226714E-01  0.51100000000E-03 0. -1.
         11    1    4    4    0    0 -0.31139100786E-01 -0.13503335923E-01  0.11809361959E-02  0.33965267702E-01  0.51100000000E-03 0.  1.
</event>
<event>
 8    1  0.1072966E+005  0.1043930E+01  0.7957747E-01            NaN
         13   -1    0    0    0    0  0.00000000000E+00  0.00000000000E+00  0.74505805969E-08  0.10566000000E+00  0.10566000000E+00 0.  1.
     999900   -1    0    0    0    0 -0.00000000000E+00 -0.00000000000E+00 -0.74505805969E-08  0.93827000000E+00  0.93827000000E+00 0.  1.
     999902    2    1    2    0    0  0.21001390174E-01  0.11473067181E-02  0.94959556407E-02  0.10208530012E+01  0.10205921331E+01 0.  0.
     999903    2    3    3    0    0 -0.67490849903E-01  0.35632118988E-01  0.10424109951E+00  0.13068631951E+00  0.19698846563E-01 0.  0.
         14    1    1    2    0    0 -0.21001390174E-01 -0.11473067181E-02 -0.94959556407E-02  0.23076998840E-01  0.00000000000E+00 0. -1.
     999901    1    3    3    0    0  0.88492240076E-01 -0.34484812270E-01 -0.94745143870E-01  0.89016668165E+00  0.88000000000E+00 0.  1.
        -11    1    4    4    0    0 -0.20409669979E-01  0.20808214216E-02  0.33979795819E-01  0.39695995911E-01  0.51100000000E-03 0. -1.
         11    1    4    4    0    0 -0.47081179923E-01  0.33551297566E-01  0.70261303692E-01  0.90990323600E-01  0.51100000000E-03 0.  1.
</event>
<event>
 8    1  0.1060404E+005  0.1043930E+01  0.7957747E-01            NaN
         13   -1    0    0    0    0  0.00000000000E+00  0.00000000000E+00  0.74505805969E-08  0.10566000000E+00  0.10566000000E+00 0. -1.
     999900   -1    0    0    0    0 -0.00000000000E+00 -0.00000000000E+00 -0.74505805969E-08  0.93827000000E+00  0.93827000000E+00 0. -1.
     999902    2    1    2    0    0  0.18505276861E-01 -0.11582103064E-01  0.13410018497E-01  0.10183093252E+01  0.10179869659E+01 0.  0.
     999903    2    3    3    0    0 -0.50427931280E-01  0.10259803766E+00 -0.49117416568E-01  0.12606576432E+00  0.20266295672E-01 0.  0.
         14    1    1    2    0    0 -0.18505276861E-01  0.11582103064E-01 -0.13410018497E-01  0.25620674839E-01  0.00000000000E+00 0.  1.
     999901    1    3    3    0    0  0.68933208141E-01 -0.11418014072E+00  0.62527435065E-01  0.89224356084E+00  0.88000000000E+00 0.  1.
        -11    1    4    4    0    0 -0.42857943566E-01  0.66844895871E-01 -0.36573020540E-01  0.87423626000E-01  0.51100000000E-03 0. -1.
         11    1    4    4    0    0 -0.75699877142E-02  0.35753141786E-01 -0.12544396027E-01  0.38642138324E-01  0.51100000000E-03 0.  1.
</event>
<event>
 8    1  0.1121885E+005  0.1043930E+01  0.7957747E-01            NaN
         13   -1    0    0    0    0  0.00000000000E+00  0.00000000000E+00  0.74505805969E-08  0.10566000000E+00  0.10566000000E+00 0.  1.
     999900   -1    0    0    0    0 -0.00000000000E+00 -0.00000000000E+00 -0.74505805969E-08  0.93827000000E+00  0.93827000000E+00 0. -1.
     999902    2    1    2    0    0 -0.21820175762E-01 -0.36881024752E-02  0.47943542033E-02  0.10212869436E+01  0.10210359020E+01 0.  0.
     999903    2    3    3    0    0  0.79090263024E-01  0.98948660650E-01  0.63471377009E-03  0.12958378426E+00  0.27302877718E-01 0.  0.
         14    1    1    2    0    0  0.21820175762E-01  0.36881024752E-02 -0.47943542033E-02  0.22643056383E-01  0.00000000000E+00 0.  1.
     999901    1    3    3    0    0 -0.10091043879E+00 -0.10263676312E+00  0.41596404332E-02  0.89170315936E+00  0.88000000000E+00 0.  1.
        -11    1    4    4    0    0  0.15641092337E-01  0.39326275376E-01  0.34847312801E-02  0.42468861270E-01  0.51100000000E-03 0.  1.
         11    1    4    4    0    0  0.63449170687E-01  0.59622385273E-01 -0.28500175100E-02  0.87114922989E-01  0.51100000000E-03 0. -1.
</event>
<event>
 8    1  0.1060404E+005  0.1043930E+01  0.7957747E-01            NaN
         13   -1    0    0    0    0  0.00000000000E+00  0.00000000000E+00  0.74505805969E-08  0.10566000000E+00  0.10566000000E+00 0.  1.
     999900   -1    0    0    0    0 -0.00000000000E+00 -0.00000000000E+00 -0.74505805969E-08  0.93827000000E+00  0.93827000000E+00 0.  1.
     999902    2    1    2    0    0 -0.11155168739E-01 -0.12981971115E-01  0.95458156688E-02  0.10243317358E+01  0.10241442345E+01 0.  0.
     999903    2    3    3    0    0  0.93906126165E-01 -0.50284934126E-01  0.78856280339E-01  0.13459395011E+00  0.23458118553E-01 0.  0.
         14    1    1    2    0    0  0.11155168739E-01  0.12981971115E-01 -0.95458156688E-02  0.19598264219E-01  0.00000000000E+00 0. -1.
     999901    1    3    3    0    0 -0.10506129490E+00  0.37302963012E-01 -0.69310464670E-01  0.88973778567E+00  0.88000000000E+00 0. -1.
        -11    1    4    4    0    0  0.52586025444E-01 -0.30840119448E-01  0.30817435317E-01  0.68310895764E-01  0.51100000000E-03 0.  1.
         11    1    4    4    0    0  0.41320100721E-01 -0.19444814679E-01  0.48038845022E-01  0.66283054347E-01  0.51100000000E-03 0. -1.
</event>
<event>
 8    1  0.1060404E+005  0.1043930E+01  0.7957747E-01            NaN
         13   -1    0    0    0    0  0.00000000000E+00  0.00000000000E+00  0.74505805969E-08  0.10566000000E+00  0.10566000000E+00 0.  1.
     999900   -1    0    0    0    0 -0.00000000000E+00 -0.00000000000E+00 -0.74505805969E-08  0.93827000000E+00  0.93827000000E+00 0.  1.
     999902    2    1    2    0    0  0.12334325450E-01  0.11959496991E-01 -0.14242271445E-01  0.10216139195E+01  0.10213701548E+01 0.  0.
     999903    2    3    3    0    0 -0.68222397149E-01  0.49699888289E-01  0.96931805627E-01  0.13016936257E+00  0.20589163164E-01 0.  0.
         14    1    1    2    0    0 -0.12334325450E-01 -0.11959496991E-01  0.14242271445E-01  0.22316080491E-01  0.00000000000E+00 0. -1.
     999901    1    3    3    0    0  0.80556722599E-01 -0.37740391299E-01 -0.11117407707E+00  0.89144455694E+00  0.88000000000E+00 0. -1.
        -11    1    4    4    0    0 -0.20352912116E-01  0.27188341728E-01  0.36781870500E-01  0.50066097072E-01  0.51100000000E-03 0. -1.
         11    1    4    4    0    0 -0.47869485033E-01  0.22511546561E-01  0.60149935127E-01  0.80103265493E-01  0.51100000000E-03 0.  1.
</event>
<event>
 8    1  0.1060404E+005  0.1043930E+01  0.7957747E-01            NaN
         13   -1    0    0    0    0  0.00000000000E+00  0.00000000000E+00  0.74505805969E-08  0.10566000000E+00  0.10566000000E+00 0.  1.
     999900   -1    0    0    0    0 -0.00000000000E+00 -0.00000000000E+00 -0.74505805969E-08  0.93827000000E+00  0.93827000000E+00 0. -1.
     999902    2    1    2    0    0  0.51160794807E-03 -0.19639860713E-01  0.13280825804E-01  0.10202157384E+01  0.10199400897E+01 0.  0.
     999903    2    3    3    0    0 -0.12747014668E+00 -0.21590909224E-01  0.26428577225E-02  0.13089223002E+00  0.20272777946E-01 0.  0.
         14    1    1    2    0    0 -0.51160794807E-03  0.19639860713E-01 -0.13280825804E-01  0.23714261649E-01  0.00000000000E+00 0. -1.
     999901    1    3    3    0    0  0.12798175463E+00  0.19510485106E-02  0.10637968081E-01  0.88932350833E+00  0.88000000000E+00 0. -1.
        -11    1    4    4    0    0 -0.61536801973E-01 -0.11824319781E-02 -0.31290938164E-02  0.61629769524E-01  0.51100000000E-03 0.  1.
         11    1    4    4    0    0 -0.65933344710E-01 -0.20408477246E-01  0.57719515389E-02  0.69262460494E-01  0.51100000000E-03 0. -1.
</event>
<event>
 8    1  0.1060404E+005  0.1043930E+01  0.7957747E-01            NaN
         13   -1    0    0    0    0  0.00000000000E+00  0.00000000000E+00  0.74505805969E-08  0.10566000000E+00  0.10566000000E+00 0. -1.
     999900   -1    0    0    0    0 -0.00000000000E+00 -0.00000000000E+00 -0.74505805969E-08  0.93827000000E+00  0.93827000000E+00 0.  1.
     999902    2    1    2    0    0 -0.16442435993E-01  0.26802947104E-02  0.16387444062E-01  0.10205615169E+01  0.10202939399E+01 0.  0.
     999903    2    3    3    0    0 -0.45737677417E-02  0.50816903054E-01  0.12121463744E+00  0.13295420571E+00  0.19507831713E-01 0.  0.
         14    1    1    2    0    0  0.16442435993E-01 -0.26802947104E-02 -0.16387444062E-01  0.23368483134E-01  0.00000000000E+00 0.  1.
     999901    1    3    3    0    0 -0.11868668251E-01 -0.48136608343E-01 -0.10482719338E+00  0.88760731116E+00  0.88000000000E+00 0.  1.
        -11    1    4    4    0    0 -0.85650992942E-02  0.21553420841E-01  0.36610358398E-01  0.43341554412E-01  0.51100000000E-03 0.  1.
         11    1    4    4    0    0  0.39913315525E-02  0.29263482212E-01  0.84604279044E-01  0.89612651296E-01  0.51100000000E-03 0. -1.
</event>
<event>
 8    1  0.1060404E+005  0.1043930E+01  0.7957747E-01            NaN
         13   -1    0    0    0    0  0.00000000000E+00  0.00000000000E+00  0.74505805969E-08  0.10566000000E+00  0.10566000000E+00 0. -1.
     999900   -1    0    0    0    0 -0.00000000000E+00 -0.00000000000E+00 -0.74505805969E-08  0.93827000000E+00  0.93827000000E+00 0.  1.
     999902    2    1    2    0    0  0.18015313434E-01 -0.13196277025E-02  0.14579294760E-01  0.10207168836E+01  0.10204528935E+01 0.  0.
     999903    2    3    3    0    0  0.56369431083E-01 -0.66289662507E-01  0.99368439659E-01  0.13342812407E+00  0.18898290335E-01 0.  0.
         14    1    1    2    0    0 -0.18015313434E-01  0.13196277025E-02 -0.14579294760E-01  0.23213116359E-01  0.00000000000E+00 0.  1.
     999901    1    3    3    0    0 -0.38354117649E-01  0.64970034804E-01 -0.84789144898E-01  0.88728875957E+00  0.88000000000E+00 0.  1.
        -11    1    4    4    0    0  0.30289460803E-01 -0.32791322801E-01  0.37012726766E-01  0.57990735040E-01  0.51100000000E-03 0. -1.
         11    1    4    4    0    0  0.26079970279E-01 -0.33498339706E-01  0.62355712892E-01  0.75437389033E-01  0.51100000000E-03 0.  1.
</event>
<event>
 8    1  0.1060404E+005  0.1043930E+01  0.7957747E-01            NaN
         13   -1    0    0    0    0  0.00000000000E+00  0.00000000000E+00  0.74505805969E-08  0.10566000000E+00  0.10566000000E+00 0.  1.
     999900   -1    0    0    0    0 -0.00000000000E+00 -0.00000000000E+00 -0.74505805969E-08  0.93827000000E+00  0.93827000000E+00 0.  1.
     999902    2    1    2    0    0 -0.57223698145E-02  0.15424272579E-01  0.18387033552E-01  0.10192574099E+01  0.10189587484E+01 0.  0.
     999903    2    3    3    0    0 -0.12023841067E+00  0.48576951876E-01  0.68635949239E-02  0.13114378347E+00  0.18291729111E-01 0.  0.
         14    1    1    2    0    0  0.57223698145E-02 -0.15424272579E-01 -0.18387033552E-01  0.24672590130E-01  0.00000000000E+00 0. -1.
     999901    1    3    3    0    0  0.11451604086E+00 -0.33152679297E-01  0.11523438628E-01  0.88811362640E+00  0.88000000000E+00 0. -1.
        -11    1    4    4    0    0 -0.57646524062E-01  0.25277657898E-01  0.12283866763E-01  0.64134516673E-01  0.51100000000E-03 0. -1.
         11    1    4    4    0    0 -0.62591886608E-01  0.23299293978E-01 -0.54202718390E-02  0.67009266798E-01  0.51100000000E-03 0.  1.
</event>
<event>
 8    1  0.1060404E+005  0.1043930E+01  0.7957747E-01            NaN
         13   -1    0    0    0    0  0.00000000000E+00  0.00000000000E+00  0.74505805969E-08  0.10566000000E+00  0.10566000000E+00 0.  1.
     999900   -1    0    0    0    0 -0.00000000000E+00 -0.00000000000E+00 -0.74505805969E-08  0.93827000000E+00  0.93827000000E+00 0.  1.
     999902    2    1    2    0    0 -0.19846600834E-01  0.22533529176E-02 -0.13005407548E-01  0.10200950301E+01  0.10198165348E+01 0.  0.
     999903    2    3    3    0    0  0.10833977309E+00 -0.88954110937E-04  0.63936614768E-01  0.12748239987E+00  0.20648419380E-01 0.  0.
         14    1    1    2    0    0  0.19846600834E-01 -0.22533529176E-02  0.13005407548E-01  0.23834969887E-01  0.00000000000E+00 0.  1.
     999901    1    3    3    0    0 -0.12818637393E+00  0.23423070285E-02 -0.76942022316E-01  0.89261263024E+00  0.88000000000E+00 0. -1.
        -11    1    4    4    0    0  0.75125963677E-01 -0.76909067568E-02  0.37293677724E-01  0.84226717758E-01  0.51100000000E-03 0.  1.
         11    1    4    4    0    0  0.33213809417E-01  0.76019526459E-02  0.26642937044E-01  0.43255682117E-01  0.51100000000E-03 0. -1.
</event>
<event>
 8    1  0.1060404E+005  0.1043930E+01  0.7957747E-01            NaN
         13   -1    0    0    0    0  0.00000000000E+00  0.00000000000E+00  0.74505805969E-08  0.10566000000E+00  0.10566000000E+00 0. -1.
     999900   -1    0    0    0    0 -0.00000000000E+00 -0.00000000000E+00 -0.74505805969E-08  0.93827000000E+00  0.93827000000E+00 0.  1.
     999902    2    1    2    0    0 -0.11586290836E-02  0.36159876473E-02 -0.21673035352E-01  0.10219268582E+01  0.10216899555E+01 0.  0.
     999903    2    3    3    0    0 -0.48211010311E-01 -0.81735372781E-01 -0.92141610092E-01  0.13374635777E+00  0.19825216961E-01 0.  0.
         14    1    1    2    0    0  0.11586290836E-02 -0.36159876473E-02  0.21673035352E-01  0.22003141807E-01  0.00000000000E+00 0. -1.
     999901    1    3    3    0    0  0.47052381227E-01  0.85351360428E-01  0.70468574740E-01  0.88818050042E+00  0.88000000000E+00 0. -1.
        -11    1    4    4    0    0 -0.34511918655E-01 -0.71672476433E-01 -0.71112702470E-01  0.10670189305E+00  0.51100000000E-03 0. -1.
         11    1    4    4    0    0 -0.13699091656E-01 -0.10062896348E-01 -0.21028907622E-01  0.27044464718E-01  0.51100000000E-03 0.  1.
</event>
<event>
 8    1  0.1060404E+005  0.1043930E+01  0.7957747E-01            NaN
         13   -1    0    0    0    0  0.00000000000E+00  0.00000000000E+00  0.74505805969E-08  0.10566000000E+00  0.10566000000E+00 0. -1.
     999900   -1    0    0    0    0 -0.00000000000E+00 -0.00000000000E+00 -0.74505805969E-08  0.93827000000E+00  0.93827000000E+00 0. -1.
     999902    2    1    2    0    0  0.18520603419E-01 -0.62667182513E-02 -0.14175235414E-01  0.10197800143E+01  0.10194940195E+01 0.  0.
     999903    2    3    3    0    0  0.10713689905E+00 -0.63337698692E-01 -0.42249796641E-01  0.13304548492E+00  0.20641621267E-01 0.  0.
         14    1    1    2    0    0 -0.18520603419E-01  0.62667182513E-02  0.14175235414E-01  0.24149985666E-01  0.00000000000E+00 0. -1.
     999901    1    3    3    0    0 -0.88616295632E-01  0.57070980441E-01  0.28074561228E-01  0.88673452941E+00  0.88000000000E+00 0.  1.
        -11    1    4    4    0    0  0.67015976535E-01 -0.38666727305E-01 -0.15608982379E-01  0.78931352220E-01  0.51100000000E-03 0.  1.
         11    1    4    4    0    0  0.40120922516E-01 -0.24670971387E-01 -0.26640814262E-01  0.54114132704E-01  0.51100000000E-03 0. -1.
</event>
<event>
 8    1  0.1107477E+005  0.1043930E+01  0.7957747E-01            NaN
         13   -1    0    0    0    0  0.00000000000E+00  0.00000000000E+00  0.74505805969E-08  0.10566000000E+00  0.10566000000E+00 0.  1.
     999900   -1    0    0    0    0 -0.00000000000E+00 -0.00000000000E+00 -0.74505805969E-08  0.93827000000E+00  0.93827000000E+00 0. -1.
     999902    2    1    2    0    0 -0.13985509494E-01  0.14036571108E-01 -0.13957554658E-01  0.10196929800E+01  0.10194048952E+01 0.  0.
     999903    2    3    3    0    0  0.83363152353E-01 -0.74531096664E-01  0.56422093247E-01  0.12712685444E+00  0.21759709854E-01 0.  0.
         14    1    1    2    0    0  0.13985509494E-01 -0.14036571108E-01  0.13957554658E-01  0.24237019956E-01  0.00000000000E+00 0.  1.
     999901    1    3    3    0    0 -0.97348661848E-01  0.88567667772E-01 -0.70379647906E-01  0.89256612561E+00  0.88000000000E+00 0. -1.
        -11    1    4    4    0    0  0.63724802374E-01 -0.52630688387E-01  0.51263757810E-01  0.97257769785E-01  0.51100000000E-03 0. -1.
         11    1    4    4    0    0  0.19638349979E-01 -0.21900408277E-01  0.51583354375E-02  0.29869084654E-01  0.51100000000E-03 0.  1.
</event>
<event>
 8    1  0.1060404E+005  0.1043930E+01  0.7957747E-01            NaN
         13   -1    0    0    0    0  0.00000000000E+00  0.00000000000E+00  0.74505805969E-08  0.10566000000E+00  0.10566000000E+00 0.  1.
     999900   -1    0    0    0    0 -0.00000000000E+00 -0.00000000000E+00 -0.74505805969E-08  0.93827000000E+00  0.93827000000E+00 0.  1.
     999902    2    1    2    0    0  0.12450884693E-01 -0.17854153600E-01  0.42763966429E-02  0.10217470584E+01  0.10215062253E+01 0.  0.
     999903    2    3    3    0    0  0.72733165470E-01 -0.52631544826E-01 -0.96185907648E-01  0.13330117095E+00  0.21384117399E-01 0.  0.
         14    1    1    2    0    0 -0.12450884693E-01  0.17854153600E-01 -0.42763966429E-02  0.22182941614E-01  0.00000000000E+00 0. -1.
     999901    1    3    3    0    0 -0.60282280777E-01  0.34777391226E-01  0.10046230429E+00  0.88844588743E+00  0.88000000000E+00 0. -1.
        -11    1    4    4    0    0  0.21514127426E-01 -0.50219668308E-02 -0.18954510636E-01  0.29113784093E-01  0.51100000000E-03 0.  1.
         11    1    4    4    0    0  0.51219038044E-01 -0.47609577995E-01 -0.77231397012E-01  0.10418738686E+00  0.51100000000E-03 0. -1.
</event>
<event>
 8    1  0.1060404E+005  0.1043930E+01  0.7957747E-01            NaN
         13   -1    0    0    0    0  0.00000000000E+00  0.00000000000E+00  0.74505805969E-08  0.10566000000E+00  0.10566000000E+00 0. -1.
     999900   -1    0    0    0    0 -0.00000000000E+00 -0.00000000000E+00 -0.74505805969E-08  0.93827000000E+00  0.93827000000E+00 0. -1.
     999902    2    1    2    0    0 -0.52329236938E-02 -0.13817685441E-01 -0.18953062958E-01  0.10198981354E+01  0.10196149646E+01 0.  0.
     999903    2    3    3    0    0 -0.12541512033E+00 -0.30822253618E-01 -0.15051382691E-01  0.13155803225E+00  0.20050137254E-01 0.  0.
         14    1    1    2    0    0  0.52329236938E-02  0.13817685441E-01  0.18953062958E-01  0.24031864614E-01  0.00000000000E+00 0.  1.
     999901    1    3    3    0    0  0.12018219664E+00  0.17004568177E-01 -0.39016802673E-02  0.88834010313E+00  0.88000000000E+00 0. -1.
        -11    1    4    4    0    0 -0.20375028267E-01 -0.88203731141E-02 -0.93191841659E-02  0.24084207965E-01  0.51100000000E-03 0. -1.
         11    1    4    4    0    0 -0.10504009206E+00 -0.22001880504E-01 -0.57321985248E-02  0.10747382429E+00  0.51100000000E-03 0.  1.
</event>
<event>
 8    1  0.1060404E+005  0.1043930E+01  0.7957747E-01            NaN
         13   -1    0    0    0    0  0.00000000000E+00  0.00000000000E+00  0.74505805969E-08  0.10566000000E+00  0.10566000000E+00 0. -1.
     999900   -1    0    0    0    0 -0.00000000000E+00 -0.00000000000E+00 -0.74505805969E-08  0.93827000000E+00  0.93827000000E+00 0.  1.
     999902    2    1    2    0    0  0.50054996777E-02  0.27413791340E-01  0.10096597668E-01  0.10142902924E+01  0.10138571324E+01 0.  0.
     999903    2    3    3    0    0 -0.28278742905E-01  0.90164805953E-01  0.84466713662E-01  0.12830132813E+00  0.19930518067E-01 0.  0.
         14    1    1    2    0    0 -0.50054996777E-02 -0.27413791340E-01 -0.10096597668E-01  0.29639707609E-01  0.00000000000E+00 0.  1.
     999901    1    3    3    0    0  0.33284242582E-01 -0.62751014613E-01 -0.74370115994E-01  0.88598896426E+00  0.88000000000E+00 0.  1.
        -11    1    4    4    0    0 -0.23813053256E-01  0.47014622788E-01  0.39885538727E-01  0.66095034472E-01  0.51100000000E-03 0. -1.
         11    1    4    4    0    0 -0.44656896490E-02  0.43150183165E-01  0.44581174935E-01  0.62206293659E-01  0.51100000000E-03 0.  1.
</event>
<event>
 8    1  0.1060404E+005  0.1043930E+01  0.7957747E-01            NaN
         13   -1    0    0    0    0  0.00000000000E+00  0.00000000000E+00  0.74505805969E-08  0.10566000000E+00  0.10566000000E+00 0. -1.
     999900   -1    0    0    0    0 -0.00000000000E+00 -0.00000000000E+00 -0.74505805969E-08  0.93827000000E+00  0.93827000000E+00 0.  1.
     999902    2    1    2    0    0 -0.22548008095E-02  0.41271457919E-02  0.13780805610E-01  0.10293688166E+01  0.10292658221E+01 0.  0.
     999903    2    3    3    0    0 -0.11905648361E+00  0.46224320741E-01 -0.48899821337E-01  0.13844588713E+00  0.21562398265E-01 0.  0.
         14    1    1    2    0    0  0.22548008095E-02 -0.41271457919E-02 -0.13780805610E-01  0.14561183412E-01  0.00000000000E+00 0.  1.
     999901    1    3    3    0    0  0.11680168280E+00 -0.42097174949E-01  0.62680626947E-01  0.89092292946E+00  0.88000000000E+00 0.  1.
        -11    1    4    4    0    0 -0.10235172044E+00  0.36242351504E-01 -0.48641657731E-01  0.11897753867E+00  0.51100000000E-03 0.  1.
         11    1    4    4    0    0 -0.16704763165E-01  0.99819692377E-02 -0.25816360611E-03  0.19468348459E-01  0.51100000000E-03 0. -1.
</event>
<event>
 8    1  0.1060404E+005  0.1043930E+01  0.7957747E-01            NaN
         13   -1    0    0    0    0  0.00000000000E+00  0.00000000000E+00  0.74505805969E-08  0.10566000000E+00  0.10566000000E+00 0. -1.
     999900   -1    0    0    0    0 -0.00000000000E+00 -0.00000000000E+00 -0.74505805969E-08  0.93827000000E+00  0.93827000000E+00 0.  1.
     999902    2    1    2    0    0  0.19439144371E-01  0.18487101068E-02 -0.10250232486E-01  0.10218763080E+01  0.10216383037E+01 0.  0.
     999903    2    3    3    0    0 -0.81649646956E-02  0.13004335332E+00  0.47111517976E-02  0.13203379591E+00  0.20803555434E-01 0.  0.
         14    1    1    2    0    0 -0.19439144371E-01 -0.18487101068E-02  0.10250232486E-01  0.22053691958E-01  0.00000000000E+00 0.  1.
     999901    1    3    3    0    0  0.27604109067E-01 -0.12819464321E+00 -0.14961384284E-01  0.88984251214E+00  0.88000000000E+00 0. -1.
        -11    1    4    4    0    0 -0.18128457362E-02  0.89888185142E-01 -0.56221432193E-02  0.90083527091E-01  0.51100000000E-03 0.  1.
         11    1    4    4    0    0 -0.63521189595E-02  0.40155168178E-01  0.10333295017E-01  0.41950268814E-01  0.51100000000E-03 0. -1.
</event>
<event>
 8    1  0.1060404E+005  0.1043930E+01  0.7957747E-01            NaN
         13   -1    0    0    0    0  0.00000000000E+00  0.00000000000E+00  0.74505805969E-08  0.10566000000E+00  0.10566000000E+00 0.  1.
     999900   -1    0    0    0    0 -0.00000000000E+00 -0.00000000000E+00 -0.74505805969E-08  0.93827000000E+00  0.93827000000E+00 0. -1.
     999902    2    1    2    0    0 -0.18754997966E-01  0.47429660351E-02 -0.11140750151E-01  0.10216059773E+01  0.10213620371E+01 0.  0.
     999903    2    3    3    0    0  0.73594536132E-01  0.61308400412E-01  0.85159902777E-01  0.12975290612E+00  0.20217118914E-01 0.  0.
         14    1    1    2    0    0  0.18754997966E-01 -0.47429660351E-02  0.11140750151E-01  0.22324022698E-01  0.00000000000E+00 0.  1.
     999901    1    3    3    0    0 -0.92349534098E-01 -0.56565434376E-01 -0.96300652928E-01  0.89185307118E+00  0.88000000000E+00 0. -1.
        -11    1    4    4    0    0  0.49479185199E-01  0.38752512351E-01  0.67777116498E-01  0.92433465927E-01  0.51100000000E-03 0.  1.
         11    1    4    4    0    0  0.24115350933E-01  0.22555888060E-01  0.17382786279E-01  0.37319440197E-01  0.51100000000E-03 0. -1.
</event>
<event>
 8    1  0.1060404E+005  0.1043930E+01  0.7957747E-01            NaN
         13   -1    0    0    0    0  0.00000000000E+00  0.00000000000E+00  0.74505805969E-08  0.10566000000E+00  0.10566000000E+00 0. -1.
     999900   -1    0    0    0    0 -0.00000000000E+00 -0.00000000000E+00 -0.74505805969E-08  0.93827000000E+00  0.93827000000E+00 0.  1.
     999902    2    1    2    0    0 -0.14781800450E-02 -0.22940783249E-01 -0.46120800498E-02  0.10204835539E+01  0.10202141677E+01 0.  0.
     999903    2    3    3    0    0  0.12594204308E+00  0.17321540514E-01  0.19841292849E-01  0.13005953388E+00  0.18983452578E-01 0.  0.
         14    1    1    2    0    0  0.14781800450E-02  0.22940783249E-01  0.46120800498E-02  0.23446446100E-01  0.00000000000E+00 0. -1.
     999901    1    3    3    0    0 -0.12742022312E+00 -0.40262323764E-01 -0.24453372899E-01  0.89042402002E+00  0.88000000000E+00 0.  1.
        -11    1    4    4    0    0  0.10435978002E-01  0.49506607433E-02  0.61268139549E-02  0.13085016198E-01  0.51100000000E-03 0. -1.
         11    1    4    4    0    0  0.11550606508E+00  0.12370879771E-01  0.13714478894E-01  0.11697451769E+00  0.51100000000E-03 0.  1.
</event>
<event>
 8    1  0.1060404E+005  0.1043930E+01  0.7957747E-01            NaN
         13   -1    0    0    0    0  0.00000000000E+00  0.00000000000E+00  0.74505805969E-08  0.10566000000E+00  0.10566000000E+00 0.  1.
     999900   -1    0    0    0    0 -0.00000000000E+00 -0.00000000000E+00 -0.74505805969E-08  0.93827000000E+00  0.93827000000E+00 0.  1.
     999902    2    1    2    0    0 -0.53366581824E-02  0.16716127899E-01  0.15499432908E-01  0.10205175829E+01  0.10202489872E+01 0.  0.
     999903    2    3    3    0    0  0.34751550361E-02 -0.84565671794E-01 -0.93991514628E-01  0.12792365589E+00  0.19147515908E-01 0.  0.
         14    1    1    2    0    0  0.53366581824E-02 -0.16716127899E-01 -0.15499432908E-01  0.23412417068E-01  0.00000000000E+00 0. -1.
     999901    1    3    3    0    0 -0.88118132185E-02  0.10128179969E+00  0.10949094754E+00  0.89259392704E+00  0.88000000000E+00 0. -1.
        -11    1    4    4    0    0  0.94357449874E-02 -0.64578952530E-01 -0.64169670942E-01  0.91528586699E-01  0.51100000000E-03 0. -1.
         11    1    4    4    0    0 -0.59605899512E-02 -0.19986719264E-01 -0.29821843686E-01  0.36395069190E-01  0.51100000000E-03 0.  1.
</event>
<event>
 8    1  0.1060404E+005  0.1043930E+01  0.7957747E-01            NaN
         13   -1    0    0    0    0  0.00000000000E+00  0.00000000000E+00  0.74505805969E-08  0.10566000000E+00  0.10566000000E+00 0. -1.
     999900   -1    0    0    0    0 -0.00000000000E+00 -0.00000000000E+00 -0.74505805969E-08  0.93827000000E+00  0.93827000000E+00 0.  1.
     999902    2    1    2    0    0 -0.19128767872E-01 -0.19334096059E-02  0.12092417927E-01  0.10212171313E+01  0.10209645218E+01 0.  0.
     999903    2    3    3    0    0  0.10915475346E+00  0.64268620016E-02  0.67705473108E-01  0.13013948716E+00  0.19904528922E-01 0.  0.
         14    1    1    2    0    0  0.19128767872E-01  0.19334096059E-02 -0.12092417927E-01  0.22712868695E-01  0.00000000000E+00 0.  1.
     999901    1    3    3    0    0 -0.12828352133E+00 -0.83602716075E-02 -0.55613055181E-01  0.89107764414E+00  0.88000000000E+00 0. -1.
        -11    1    4    4    0    0  0.65342270240E-01 -0.54731502270E-02  0.36502722897E-01  0.75048501340E-01  0.51100000000E-03 0.  1.
         11    1    4    4    0    0  0.43812483220E-01  0.11900012229E-01  0.31202750212E-01  0.55090985821E-01  0.51100000000E-03 0. -1.
</event>
<event>
 8    1  0.1074798E+005  0.1043930E+01  0.7957747E-01            NaN
         13   -1    0    0    0    0  0.00000000000E+00  0.00000000000E+00  0.74505805969E-08  0.10566000000E+00  0.10566000000E+00 0.  1.
     999900   -1    0    0    0    0 -0.00000000000E+00 -0.00000000000E+00 -0.74505805969E-08  0.93827000000E+00  0.93827000000E+00 0. -1.
     999902    2    1    2    0    0  0.40343148130E-02  0.11118419013E-01 -0.20472324178E-01  0.10202865867E+01  0.10200126018E+01 0.  0.
     999903    2    3    3    0    0  0.17332533078E-01  0.11755594163E+00 -0.56881653900E-01  0.13302595520E+00  0.18454432860E-01 0.  0.
         14    1    1    2    0    0 -0.40343148130E-02 -0.11118419013E-01  0.20472324178E-01  0.23643413346E-01  0.00000000000E+00 0.  1.
     999901    1    3    3    0    0 -0.13298218264E-01 -0.10643752262E+00  0.36409329722E-01  0.88726063145E+00  0.88000000000E+00 0.  1.
        -11    1    4    4    0    0  0.16785461429E-01  0.51092855525E-01 -0.25834109336E-01  0.59664846663E-01  0.51100000000E-03 0. -1.
         11    1    4    4    0    0  0.54707164808E-03  0.66463086105E-01 -0.31047544565E-01  0.73361108542E-01  0.51100000000E-03 0.  1.
</event>
<event>
 8    1  0.1060404E+005  0.1043930E+01  0.7957747E-01            NaN
         13   -1    0    0    0    0  0.00000000000E+00  0.00000000000E+00  0.74505805969E-08  0.10566000000E+00  0.10566000000E+00 0. -1.
     999900   -1    0    0    0    0 -0.00000000000E+00 -0.00000000000E+00 -0.74505805969E-08  0.93827000000E+00  0.93827000000E+00 0.  1.
     999902    2    1    2    0    0  0.20337221549E-01 -0.10015933136E-01 -0.74575418165E-02  0.10200650377E+01  0.10197858327E+01 0.  0.
     999903    2    3    3    0    0 -0.22741420574E-01  0.24390958518E-01  0.12279248214E+00  0.12877121836E+00  0.19797523641E-01 0.  0.
         14    1    1    2    0    0 -0.20337221549E-01  0.10015933136E-01  0.74575418165E-02  0.23864962327E-01  0.00000000000E+00 0.  1.
     999901    1    3    3    0    0  0.43078642123E-01 -0.34406891655E-01 -0.13025002395E+00  0.89129381931E+00  0.88000000000E+00 0.  1.
        -11    1    4    4    0    0 -0.20694347246E-01  0.24553118195E-01  0.84136102852E-01  0.90056962780E-01  0.51100000000E-03 0.  1.
         11    1    4    4    0    0 -0.20470733279E-02 -0.16215967670E-03  0.38656379284E-01  0.38714255583E-01  0.51100000000E-03 0. -1.
</event>
<event>
 8    1  0.1060404E+005  0.1043930E+01  0.7957747E-01            NaN
         13   -1    0    0    0    0  0.00000000000E+00  0.00000000000E+00  0.74505805969E-08  0.10566000000E+00  0.10566000000E+00 0. -1.
     999900   -1    0    0    0    0 -0.00000000000E+00 -0.00000000000E+00 -0.74505805969E-08  0.93827000000E+00  0.93827000000E+00 0.  1.
     999902    2    1    2    0    0  0.10061325383E-01 -0.58094835865E-02  0.19974697311E-01  0.10208222329E+01  0.10205606607E+01 0.  0.
     999903    2    3    3    0    0  0.89146456150E-01 -0.40369295851E-01 -0.83008998303E-01  0.13062310905E+00  0.24395330011E-01 0.  0.
         14    1    1    2    0    0 -0.10061325383E-01  0.58094835865E-02 -0.19974697311E-01  0.23107767107E-01  0.00000000000E+00 0.  1.
     999901    1    3    3    0    0 -0.79085130768E-01  0.34559812265E-01  0.10298369561E+00  0.89019912385E+00  0.88000000000E+00 0. -1.
        -11    1    4    4    0    0  0.77130668198E-01 -0.42402970599E-01 -0.67668706619E-01  0.11102462280E+00  0.51100000000E-03 0.  1.
         11    1    4    4    0    0  0.12015787952E-01  0.20336747478E-02 -0.15340291684E-01  0.19598486244E-01  0.51100000000E-03 0. -1.
</event>
<event>
 8    1  0.1060404E+005  0.1043930E+01  0.7957747E-01            NaN
         13   -1    0    0    0    0  0.00000000000E+00  0.00000000000E+00  0.74505805969E-08  0.10566000000E+00  0.10566000000E+00 0. -1.
     999900   -1    0    0    0    0 -0.00000000000E+00 -0.00000000000E+00 -0.74505805969E-08  0.93827000000E+00  0.93827000000E+00 0.  1.
     999902    2    1    2    0    0  0.55832957592E-02 -0.22914546885E-01 -0.46144334699E-02  0.10198978830E+01  0.10196147062E+01 0.  0.
     999903    2    3    3    0    0  0.12199725411E+00  0.34875339253E-01 -0.21477827099E-01  0.13019217061E+00  0.19725235956E-01 0.  0.
         14    1    1    2    0    0 -0.55832957592E-02  0.22914546885E-01  0.46144334699E-02  0.24032116984E-01  0.00000000000E+00 0.  1.
     999901    1    3    3    0    0 -0.11641395835E+00 -0.57789886138E-01  0.16863393629E-01  0.88970571240E+00  0.88000000000E+00 0. -1.
        -11    1    4    4    0    0  0.51209791046E-01  0.23244648869E-01 -0.14726380285E-01  0.58136768033E-01  0.51100000000E-03 0.  1.
         11    1    4    4    0    0  0.70787463064E-01  0.11630690385E-01 -0.67514468145E-02  0.72055402580E-01  0.51100000000E-03 0. -1.
</event>
<event>
 8    1  0.1060404E+005  0.1043930E+01  0.7957747E-01            NaN
         13   -1    0    0    0    0  0.00000000000E+00  0.00000000000E+00  0.74505805969E-08  0.10566000000E+00  0.10566000000E+00 0.  1.
     999900   -1    0    0    0    0 -0.00000000000E+00 -0.00000000000E+00 -0.74505805969E-08  0.93827000000E+00  0.93827000000E+00 0.  1.
     999902    2    1    2    0    0 -0.10667116402E-01  0.15636926738E-01 -0.14396392276E-01  0.10201485585E+01  0.10198713274E+01 0.  0.
     999903    2    3    3    0    0 -0.12779846771E+00  0.22709979051E-01  0.12884295387E-01  0.13194023976E+00  0.19850196544E-01 0.  0.
         14    1    1    2    0    0  0.10667116402E-01 -0.15636926738E-01  0.14396392276E-01  0.23781441519E-01  0.00000000000E+00 0.  1.
     999901    1    3    3    0    0  0.11713135131E+00 -0.70730523123E-02 -0.27280687663E-01  0.88820831872E+00  0.88000000000E+00 0.  1.
        -11    1    4    4    0    0 -0.16739355610E-01  0.20612117901E-02  0.84954356033E-02  0.18891483991E-01  0.51100000000E-03 0. -1.
         11    1    4    4    0    0 -0.11105911210E+00  0.20648767260E-01  0.43888597836E-02  0.11304875577E+00  0.51100000000E-03 0.  1.
</event>
<event>
 8    1  0.1060404E+005  0.1043930E+01  0.7957747E-01            NaN
         13   -1    0    0    0    0  0.00000000000E+00  0.00000000000E+00  0.74505805969E-08  0.10566000000E+00  0.10566000000E+00 0. -1.
     999900   -1    0    0    0    0 -0.00000000000E+00 -0.00000000000E+00 -0.74505805969E-08  0.93827000000E+00  0.93827000000E+00 0. -1.
     999902    2    1    2    0    0  0.41261946603E-02 -0.21401661448E-01 -0.89437036294E-02  0.10203705766E+01  0.10200985576E+01 0.  0.
     999903    2    3    3    0    0  0.11687221662E+00 -0.54493025829E-01 -0.22795516592E-01  0.13245246295E+00  0.19885031655E-01 0.  0.
         14    1    1    2    0    0 -0.41261946603E-02  0.21401661448E-01  0.89437036294E-02  0.23559423374E-01  0.00000000000E+00 0. -1.
     999901    1    3    3    0    0 -0.11274602196E+00  0.33091364381E-01  0.13851812963E-01  0.88791811367E+00  0.88000000000E+00 0.  1.
        -11    1    4    4    0    0  0.35587885281E-01 -0.84142097342E-02 -0.14176139832E-02  0.36600099107E-01  0.51100000000E-03 0.  1.
         11    1    4    4    0    0  0.81284331340E-01 -0.46078816095E-01 -0.21377902609E-01  0.95852363847E-01  0.51100000000E-03 0. -1.
</event>
<event>
 8    1  0.1060404E+005  0.1043930E+01  0.7957747E-01            NaN
         13   -1    0    0    0    0  0.00000000000E+00  0.00000000000E+00  0.74505805969E-08  0.10566000000E+00  0.10566000000E+00 0.  1.
     999900   -1    0    0    0    0 -0.00000000000E+00 -0.00000000000E+00 -0.74505805969E-08  0.93827000000E+00  0.93827000000E+00 0. -1.
     999902    2    1    2    0    0  0.19929199210E-01  0.11422535225E-01 -0.65110908978E-02  0.10200544561E+01  0.10197750006E+01 0.  0.
     999903    2    3    3    0    0  0.12653791121E-01  0.16051062203E-01 -0.12871855090E+00  0.13156752985E+00  0.17994291795E-01 0.  0.
         14    1    1    2    0    0 -0.19929199210E-01 -0.11422535225E-01  0.65110908978E-02  0.23875543906E-01  0.00000000000E+00 0.  1.
     999901    1    3    3    0    0  0.72754080883E-02 -0.46285269779E-02  0.12220746000E+00  0.88848692624E+00  0.88000000000E+00 0.  1.
        -11    1    4    4    0    0  0.48401293705E-02 -0.35218026284E-02 -0.23318584656E-01  0.24080021956E-01  0.51100000000E-03 0. -1.
         11    1    4    4    0    0  0.78136617508E-02  0.19572864832E-01 -0.10539996625E+00  0.10748750789E+00  0.51100000000E-03 0.  1.
</event>
<event>
 8    1  0.1060404E+005  0.1043930E+01  0.7957747E-01            NaN
         13   -1    0    0    0    0  0.00000000000E+00  0.00000000000E+00  0.74505805969E-08  0.10566000000E+00  0.10566000000E+00 0. -1.
     999900   -1    0    0    0    0 -0.00000000000E+00 -0.00000000000E+00 -0.74505805969E-08  0.93827000000E+00  0.93827000000E+00 0.  1.
     999902    2    1    2    0    0 -0.65877949287E-02 -0.16365698257E-01 -0.20390200258E-01  0.10169671480E+01  0.10166096521E+01 0.  0.
     999903    2    3    3    0    0 -0.55415129269E-01  0.52129284936E-01 -0.10254085016E+00  0.12914712086E+00  0.19392111187E-01 0.  0.
         14    1    1    2    0    0  0.65877949287E-02  0.16365698257E-01  0.20390200258E-01  0.26962852001E-01  0.00000000000E+00 0. -1.
     999901    1    3    3    0    0  0.48827334341E-01 -0.68494983193E-01  0.82150649902E-01  0.88782002713E+00  0.88000000000E+00 0. -1.
        -11    1    4    4    0    0 -0.28387451210E-01  0.17042948250E-01 -0.54767268595E-01  0.64000189856E-01  0.51100000000E-03 0.  1.
         11    1    4    4    0    0 -0.27027678060E-01  0.35086336686E-01 -0.47773581565E-01  0.65146931009E-01  0.51100000000E-03 0. -1.
</event>
<event>
 8    1  0.1060404E+005  0.1043930E+01  0.7957747E-01            NaN
         13   -1    0    0    0    0  0.00000000000E+00  0.00000000000E+00  0.74505805969E-08  0.10566000000E+00  0.10566000000E+00 0. -1.
     999900   -1    0    0    0    0 -0.00000000000E+00 -0.00000000000E+00 -0.74505805969E-08  0.93827000000E+00  0.93827000000E+00 0.  1.
     999902    2    1    2    0    0 -0.22243596357E-01 -0.97676603367E-02  0.30945067059E-02  0.10194399870E+01  0.10191457826E+01 0.  0.
     999903    2    3    3    0    0  0.31759271917E-01  0.65467705346E-02 -0.12303604999E+00  0.12865865140E+00  0.19070066248E-01 0.  0.
         14    1    1    2    0    0  0.22243596357E-01  0.97676603367E-02 -0.30945067059E-02  0.24490013048E-01  0.00000000000E+00 0.  1.
     999901    1    3    3    0    0 -0.54002868273E-01 -0.16314430871E-01  0.12613055669E+00  0.89078133555E+00  0.88000000000E+00 0. -1.
        -11    1    4    4    0    0  0.14338670827E-01 -0.60592390990E-02 -0.41277919549E-01  0.44118472580E-01  0.51100000000E-03 0. -1.
         11    1    4    4    0    0  0.17420601090E-01  0.12606009634E-01 -0.81758130437E-01  0.84540178819E-01  0.51100000000E-03 0.  1.
</event>
<event>
 8    1  0.1060404E+005  0.1043930E+01  0.7957747E-01            NaN
         13   -1    0    0    0    0  0.00000000000E+00  0.00000000000E+00  0.74505805969E-08  0.10566000000E+00  0.10566000000E+00 0. -1.
     999900   -1    0    0    0    0 -0.00000000000E+00 -0.00000000000E+00 -0.74505805969E-08  0.93827000000E+00  0.93827000000E+00 0. -1.
     999902    2    1    2    0    0 -0.22019759156E-01 -0.20757725888E-02  0.66823092141E-02  0.10208251979E+01  0.10205636936E+01 0.  0.
     999903    2    3    3    0    0  0.10527979745E+00  0.57442241848E-01  0.42226436118E-01  0.12896704989E+00  0.21586596561E-01 0.  0.
         14    1    1    2    0    0  0.22019759156E-01  0.20757725888E-02 -0.66823092141E-02  0.23104802132E-01  0.00000000000E+00 0.  1.
     999901    1    3    3    0    0 -0.12729955660E+00 -0.59518014437E-01 -0.35544126904E-01  0.89185814798E+00  0.88000000000E+00 0.  1.
        -11    1    4    4    0    0  0.32050402963E-01  0.28429493646E-01  0.18798334316E-01  0.46787850272E-01  0.51100000000E-03 0.  1.
         11    1    4    4    0    0  0.73229394486E-01  0.29012748203E-01  0.23428101802E-01  0.82179199620E-01  0.51100000000E-03 0. -1.
</event>
<event>
 8    1  0.1060404E+005  0.1043930E+01  0.7957747E-01            NaN
         13   -1    0    0    0    0  0.00000000000E+00  0.00000000000E+00  0.74505805969E-08  0.10566000000E+00  0.10566000000E+00 0.  1.
     999900   -1    0    0    0    0 -0.00000000000E+00 -0.00000000000E+00 -0.74505805969E-08  0.93827000000E+00  0.93827000000E+00 0. -1.
     999902    2    1    2    0    0  0.79070442176E-02  0.64171499808E-02 -0.22952240699E-01  0.10188201112E+01  0.10185106344E+01 0.  0.
     999903    2    3    3    0    0  0.87675213942E-01 -0.33605205319E-01  0.84228566421E-01  0.12783611851E+00  0.20769420560E-01 0.  0.
         14    1    1    2    0    0 -0.79070442176E-02 -0.64171499808E-02  0.22952240699E-01  0.25109888794E-01  0.00000000000E+00 0.  1.
     999901    1    3    3    0    0 -0.79768169724E-01  0.40022355299E-01 -0.10718080712E+00  0.89098399270E+00  0.88000000000E+00 0. -1.
        -11    1    4    4    0    0  0.18522876169E-01 -0.10543932946E-01  0.91836629471E-02  0.23213622071E-01  0.51100000000E-03 0.  1.
         11    1    4    4    0    0  0.69152337773E-01 -0.23061272373E-01  0.75044903473E-01  0.10462249644E+00  0.51100000000E-03 0. -1.
</event>
<event>
 8    1  0.1060404E+005  0.1043930E+01  0.7957747E-01            NaN
         13   -1    0    0    0    0  0.00000000000E+00  0.00000000000E+00  0.74505805969E-08  0.10566000000E+00  0.10566000000E+00 0. -1.
     999900   -1    0    0    0    0 -0.00000000000E+00 -0.00000000000E+00 -0.74505805969E-08  0.93827000000E+00  0.93827000000E+00 0. -1.
     999902    2    1    2    0    0 -0.23878798550E-02 -0.23653767986E-01 -0.12821480155E-02  0.10201214592E+01  0.10198435885E+01 0.  0.
     999903    2    3    3    0    0 -0.21045400286E-01 -0.42940800483E-01 -0.12059359548E+00  0.13166475562E+00  0.22493807666E-01 0.  0.
         14    1    1    2    0    0  0.23878798550E-02  0.23653767986E-01  0.12821480155E-02  0.23808540771E-01  0.00000000000E+00 0.  1.
     999901    1    3    3    0    0  0.18657520431E-01  0.19287032497E-01  0.11931144746E+00  0.88845670361E+00  0.88000000000E+00 0.  1.
        -11    1    4    4    0    0 -0.97762527835E-02 -0.16123279649E-02 -0.25717876486E-01  0.27565286356E-01  0.51100000000E-03 0. -1.
         11    1    4    4    0    0 -0.11269147502E-01 -0.41328472518E-01 -0.94875718991E-01  0.10409946926E+00  0.51100000000E-03 0.  1.
</event>
<event>
 8    1  0.1060404E+005  0.1043930E+01  0.7957747E-01            NaN
         13   -1    0    0    0    0  0.00000000000E+00  0.00000000000E+00  0.74505805969E-08  0.10566000000E+00  0.10566000000E+00 0. -1.
     999900   -1    0    0    0    0 -0.00000000000E+00 -0.00000000000E+00 -0.74505805969E-08  0.93827000000E+00  0.93827000000E+00 0.  1.
     999902    2    1    2    0    0 -0.12431332408E-02  0.11845861468E-01 -0.14967893893E-01  0.10248012870E+01  0.10246227453E+01 0.  0.
     999903    2    3    3    0    0 -0.63592050390E-01 -0.10139716500E+00  0.53803799230E-01  0.13270212417E+00  0.19740086221E-01 0.  0.
         14    1    1    2    0    0  0.12431332408E-02 -0.11845861468E-01  0.14967893893E-01  0.19128713019E-01  0.00000000000E+00 0. -1.
     999901    1    3    3    0    0  0.62348917149E-01  0.11324302647E+00 -0.68771693124E-01  0.89209916281E+00  0.88000000000E+00 0.  1.
        -11    1    4    4    0    0 -0.44080496546E-01 -0.51962486620E-01  0.31233389204E-01  0.74959828666E-01  0.51100000000E-03 0. -1.
         11    1    4    4    0    0 -0.19511553844E-01 -0.49434678383E-01  0.22570410026E-01  0.57742295503E-01  0.51100000000E-03 0.  1.
</event>
<event>
 8    1  0.1060404E+005  0.1043930E+01  0.7957747E-01            NaN
         13   -1    0    0    0    0  0.00000000000E+00  0.00000000000E+00  0.74505805969E-08  0.10566000000E+00  0.10566000000E+00 0. -1.
     999900   -1    0    0    0    0 -0.00000000000E+00 -0.00000000000E+00 -0.74505805969E-08  0.93827000000E+00  0.93827000000E+00 0.  1.
     999902    2    1    2    0    0 -0.22109992364E-01  0.31183876356E-02  0.73622710456E-02  0.10204187444E+01  0.10201478495E+01 0.  0.
     999903    2    3    3    0    0  0.53427188875E-01  0.56148868454E-01 -0.10112056404E+00  0.12896676975E+00  0.19997482046E-01 0.  0.
         14    1    1    2    0    0  0.22109992364E-01 -0.31183876356E-02 -0.73622710456E-02  0.23511255575E-01  0.00000000000E+00 0.  1.
     999901    1    3    3    0    0 -0.75537181239E-01 -0.53030480819E-01  0.10848283508E+00  0.89145197468E+00  0.88000000000E+00 0.  1.
        -11    1    4    4    0    0  0.32802974915E-01  0.27714183429E-01 -0.69516972911E-01  0.81712800528E-01  0.51100000000E-03 0.  1.
         11    1    4    4    0    0  0.20624213960E-01  0.28434685026E-01 -0.31603591128E-01  0.47253969221E-01  0.51100000000E-03 0. -1.
</event>
<event>
 8    1  0.1060404E+005  0.1043930E+01  0.7957747E-01            NaN
         13   -1    0    0    0    0  0.00000000000E+00  0.00000000000E+00  0.74505805969E-08  0.10566000000E+00  0.10566000000E+00 0. -1.
     999900   -1    0    0    0    0 -0.00000000000E+00 -0.00000000000E+00 -0.74505805969E-08  0.93827000000E+00  0.93827000000E+00 0.  1.
     999902    2    1    2    0    0 -0.84417499713E-02 -0.16316964501E-01 -0.14000450436E-01  0.10208319679E+01  0.10205706187E+01 0.  0.
     999903    2    3    3    0    0  0.11762003833E+00  0.14746441118E-01  0.47088013423E-01  0.12921079834E+00  0.20645058957E-01 0.  0.
         14    1    1    2    0    0  0.84417499713E-02  0.16316964501E-01  0.14000450436E-01  0.23098032070E-01  0.00000000000E+00 0. -1.
     999901    1    3    3    0    0 -0.12606178830E+00 -0.31063405619E-01 -0.61088463859E-01  0.89162116959E+00  0.88000000000E+00 0.  1.
        -11    1    4    4    0    0  0.39412521568E-01  0.11216753160E-01  0.81898804075E-02  0.41791119509E-01  0.51100000000E-03 0. -1.
         11    1    4    4    0    0  0.78207516758E-01  0.35296879585E-02  0.38898133016E-01  0.87419678835E-01  0.51100000000E-03 0.  1.
</event>
<event>
 8    1  0.1060404E+005  0.1043930E+01  0.7957747E-01            NaN
         13   -1    0    0    0    0  0.00000000000E+00  0.00000000000E+00  0.74505805969E-08  0.10566000000E+00  0.10566000000E+00 0. -1.
     999900   -1    0    0    0    0 -0.00000000000E+00 -0.00000000000E+00 -0.74505805969E-08  0.93827000000E+00  0.93827000000E+00 0. -1.
     999902    2    1    2    0    0  0.10948092932E-02 -0.24128169962E-01  0.37657045539E-02  0.10194852107E+01  0.10191921051E+01 0.  0.
     999903    2    3    3    0    0  0.67437586127E-01 -0.74572961163E-01  0.83338307827E-01  0.13197304730E+00  0.19043558027E-01 0.  0.
         14    1    1    2    0    0 -0.10948092932E-02  0.24128169962E-01 -0.37657045539E-02  0.24444789299E-01  0.00000000000E+00 0. -1.
     999901    1    3    3    0    0 -0.66342776834E-01  0.50444791201E-01 -0.79572603273E-01  0.88751216340E+00  0.88000000000E+00 0. -1.
        -11    1    4    4    0    0  0.48791743624E-01 -0.53238101014E-01  0.48169346454E-01  0.86807123580E-01  0.51100000000E-03 0. -1.
         11    1    4    4    0    0  0.18645842503E-01 -0.21334860149E-01  0.35168961373E-01  0.45165923718E-01  0.51100000000E-03 0.  1.
</event>
<event>
 8    1  0.1250301E+005  0.1043930E+01  0.7957747E-01            NaN
         13   -1    0    0    0    0  0.00000000000E+00  0.00000000000E+00  0.74505805969E-08  0.10566000000E+00  0.10566000000E+00 0.  1.
     999900   -1    0    0    0    0 -0.00000000000E+00 -0.00000000000E+00 -0.74505805969E-08  0.93827000000E+00  0.93827000000E+00 0.  1.
     999902    2    1    2    0    0 -0.11691499388E-02  0.22335173938E-01 -0.88393561601E-02  0.10198808602E+01  0.10195972773E+01 0.  0.
     999903    2    3    3    0    0 -0.38733244796E-02 -0.18003354818E-01 -0.12798297309E+00  0.13093220540E+00  0.20602853734E-01 0.  0.
         14    1    1    2    0    0  0.11691499388E-02 -0.22335173938E-01  0.88393561601E-02  0.24049139772E-01  0.00000000000E+00 0.  1.
     999901    1    3    3    0    0  0.27041745408E-02  0.40338528756E-01  0.11914361693E+00  0.88894865483E+00  0.88000000000E+00 0. -1.
        -11    1    4    4    0    0 -0.82074147266E-02 -0.16140581277E-01 -0.57414151366E-01  0.60204035733E-01  0.51100000000E-03 0.  1.
         11    1    4    4    0    0  0.43340902470E-02 -0.18627735409E-02 -0.70568821728E-01  0.70728169669E-01  0.51100000000E-03 0. -1.
</event>
<event>
 7    1  0.1060404E+005  0.1043930E+01  0.7957747E-01            NaN
         13   -1    0    0    0    0  0.00000000000E+00  0.00000000000E+00  0.74505805969E-08  0.10566000000E+00  0.10566000000E+00 0. -1.
     999900   -1    0    0    0    0 -0.00000000000E+00 -0.00000000000E+00 -0.74505805969E-08  0.93827000000E+00  0.93827000000E+00 0.  1.
     999903    2    1    2    0    0 -0.75123903120E-01 -0.33232455741E-01 -0.34970537684E-01  0.91532018405E-01  0.20178576577E-01 0.  0.
         14    1    1    2    0    0  0.38676941806E-01  0.58360439820E-01  0.11655581457E-01  0.70976752127E-01  0.00000000000E+00 0.  1.
     999901    1    1    2    0    0  0.36446961315E-01 -0.25127984079E-01  0.23314956227E-01  0.88142122947E+00  0.88000000000E+00 0. -1.
        -11    1    3    3    0    0 -0.22586117660E-01 -0.14412457405E-01 -0.20878976181E-01  0.33971229103E-01  0.51100000000E-03 0. -1.
         11    1    3    3    0    0 -0.52537785460E-01 -0.18819998336E-01 -0.14091561504E-01  0.57560789302E-01  0.51100000000E-03 0.  1.
</event>
<event>
 8    1  0.1060404E+005  0.1043930E+01  0.7957747E-01            NaN
         13   -1    0    0    0    0  0.00000000000E+00  0.00000000000E+00  0.74505805969E-08  0.10566000000E+00  0.10566000000E+00 0.  1.
     999900   -1    0    0    0    0 -0.00000000000E+00 -0.00000000000E+00 -0.74505805969E-08  0.93827000000E+00  0.93827000000E+00 0. -1.
     999902    2    1    2    0    0  0.64013868881E-02 -0.15807386417E-01  0.16615810103E-01  0.10201195745E+01  0.10198416592E+01 0.  0.
     999903    2    3    3    0    0  0.11683282075E+00 -0.33749492528E-01  0.48506921150E-01  0.13246307348E+00  0.20114874720E-01 0.  0.
         14    1    1    2    0    0 -0.64013868881E-02  0.15807386417E-01 -0.16615810103E-01  0.23810425549E-01  0.00000000000E+00 0. -1.
     999901    1    3    3    0    0 -0.11043143386E+00  0.17942106111E-01 -0.31891111047E-01  0.88765650097E+00  0.88000000000E+00 0.  1.
        -11    1    4    4    0    0  0.54689029095E-01 -0.21038832111E-01  0.13981348472E-01  0.60243353044E-01  0.51100000000E-03 0.  1.
         11    1    4    4    0    0  0.62143791656E-01 -0.12710660418E-01  0.34525572678E-01  0.72219720433E-01  0.51100000000E-03 0. -1.
</event>
<event>
 8    1  0.1060404E+005  0.1043930E+01  0.7957747E-01            NaN
         13   -1    0    0    0    0  0.00000000000E+00  0.00000000000E+00  0.74505805969E-08  0.10566000000E+00  0.10566000000E+00 0. -1.
     999900   -1    0    0    0    0 -0.00000000000E+00 -0.00000000000E+00 -0.74505805969E-08  0.93827000000E+00  0.93827000000E+00 0.  1.
     999902    2    1    2    0    0  0.17706135676E-01 -0.33900927084E-02 -0.15248679323E-01  0.10203180922E+01  0.10200448456E+01 0.  0.
     999903    2    3    3    0    0 -0.73253580101E-01 -0.98471628689E-01  0.34694096629E-01  0.12913435735E+00  0.20230008735E-01 0.  0.
         14    1    1    2    0    0 -0.17706135676E-01  0.33900927084E-02  0.15248679323E-01  0.23611907805E-01  0.00000000000E+00 0. -1.
     999901    1    3    3    0    0  0.90959715777E-01  0.95081535981E-01 -0.49942775951E-01  0.89118373484E+00  0.88000000000E+00 0.  1.
        -11    1    4    4    0    0 -0.17763074871E-01 -0.39429579179E-01  0.94944997358E-02  0.44278947473E-01  0.51100000000E-03 0.  1.
         11    1    4    4    0    0 -0.55490505230E-01 -0.59042049510E-01  0.25199596893E-01  0.84855409878E-01  0.51100000000E-03 0. -1.
</event>
<event>
 8    1  0.1060404E+005  0.1043930E+01  0.7957747E-01            NaN
         13   -1    0    0    0    0  0.00000000000E+00  0.00000000000E+00  0.74505805969E-08  0.10566000000E+00  0.10566000000E+00 0.  1.
     999900   -1    0    0    0    0 -0.00000000000E+00 -0.00000000000E+00 -0.74505805969E-08  0.93827000000E+00  0.93827000000E+00 0. -1.
     999902    2    1    2    0    0 -0.20193323519E-01 -0.25790030089E-02  0.18836798709E-01  0.10161947056E+01  0.10158161414E+01 0.  0.
     999903    2    3    3    0    0 -0.45860270057E-01 -0.11449493542E+00  0.28611661120E-01  0.12868159806E+00  0.22979815491E-01 0.  0.
         14    1    1    2    0    0  0.20193323519E-01  0.25790030089E-02 -0.18836798709E-01  0.27735294425E-01  0.00000000000E+00 0. -1.
     999901    1    3    3    0    0  0.25666946538E-01  0.11191593242E+00 -0.97748624113E-02  0.88751310751E+00  0.88000000000E+00 0. -1.
        -11    1    4    4    0    0 -0.32312633241E-01 -0.10208785557E+00  0.24157884095E-01  0.10977204109E+00  0.51100000000E-03 0. -1.
         11    1    4    4    0    0 -0.13547636816E-01 -0.12407079859E-01  0.44537770248E-02  0.18909556968E-01  0.51100000000E-03 0.  1.
</event>
<event>
 8    1  0.1060404E+005  0.1043930E+01  0.7957747E-01            NaN
         13   -1    0    0    0    0  0.00000000000E+00  0.00000000000E+00  0.74505805969E-08  0.10566000000E+00  0.10566000000E+00 0. -1.
     999900   -1    0    0    0    0 -0.00000000000E+00 -0.00000000000E+00 -0.74505805969E-08  0.93827000000E+00  0.93827000000E+00 0. -1.
     999902    2    1    2    0    0 -0.21254296607E-01 -0.11763677498E-02 -0.10259639650E-01  0.10202997404E+01  0.10200260639E+01 0.  0.
     999903    2    3    3    0    0  0.10513967604E+00 -0.58963228451E-01  0.38148459871E-01  0.12807885868E+00  0.20441997543E-01 0.  0.
         14    1    1    2    0    0  0.21254296607E-01  0.11763677498E-02  0.10259639650E-01  0.23630259649E-01  0.00000000000E+00 0. -1.
     999901    1    3    3    0    0 -0.12639397264E+00  0.57786860701E-01 -0.48408099521E-01  0.89222088167E+00  0.88000000000E+00 0. -1.
        -11    1    4    4    0    0  0.53908939783E-01 -0.23558436157E-01  0.27321503942E-01  0.64868323559E-01  0.51100000000E-03 0. -1.
         11    1    4    4    0    0  0.51230736255E-01 -0.35404792294E-01  0.10826955929E-01  0.63210535121E-01  0.51100000000E-03 0.  1.
</event>
<event>
 8    1  0.1060404E+005  0.1043930E+01  0.7957747E-01            NaN
         13   -1    0    0    0    0  0.00000000000E+00  0.00000000000E+00  0.74505805969E-08  0.10566000000E+00  0.10566000000E+00 0.  1.
     999900   -1    0    0    0    0 -0.00000000000E+00 -0.00000000000E+00 -0.74505805969E-08  0.93827000000E+00  0.93827000000E+00 0.  1.
     999902    2    1    2    0    0 -0.51703389978E-02  0.22322202309E-01  0.69060916439E-02  0.10199986978E+01  0.10197179200E+01 0.  0.
     999903    2    3    3    0    0  0.10400055958E+00 -0.54168858539E-01 -0.47892925358E-01  0.12827446931E+00  0.20254025507E-01 0.  0.
         14    1    1    2    0    0  0.51703389978E-02 -0.22322202309E-01 -0.69060916439E-02  0.23931302160E-01  0.00000000000E+00 0. -1.
     999901    1    3    3    0    0 -0.10917089857E+00  0.76491060848E-01  0.54799017002E-01  0.89172422853E+00  0.88000000000E+00 0.  1.
        -11    1    4    4    0    0  0.83774523000E-01 -0.39011944510E-01 -0.45126531405E-01  0.10284341241E+00  0.51100000000E-03 0. -1.
         11    1    4    4    0    0  0.20226036577E-01 -0.15156914029E-01 -0.27663939529E-02  0.25431056899E-01  0.51100000000E-03 0.  1.
</event>
<event>
 8    1  0.1060404E+005  0.1043930E+01  0.7957747E-01            NaN
         13   -1    0    0    0    0  0.00000000000E+00  0.00000000000E+00  0.74505805969E-08  0.10566000000E+00  0.10566000000E+00 0.  1.
     999900   -1    0    0    0    0 -0.00000000000E+00 -0.00000000000E+00 -0.74505805969E-08  0.93827000000E+00  0.93827000000E+00 0.  1.
     999902    2    1    2    0    0 -0.14929724670E-01  0.25252765716E-01  0.47313923228E-02  0.10142149377E+01  0.10137795396E+01 0.  0.
     999903    2    3    3    0    0  0.79526511352E-01  0.67721580366E-01 -0.66288097625E-01  0.12530023498E+00  0.19883625001E-01 0.  0.
         14    1    1    2    0    0  0.14929724670E-01 -0.25252765716E-01 -0.47313923228E-02  0.29715062314E-01  0.00000000000E+00 0. -1.
     999901    1    3    3    0    0 -0.94456236023E-01 -0.42468814650E-01  0.71019489948E-01  0.88891470271E+00  0.88000000000E+00 0. -1.
        -11    1    4    4    0    0  0.43879372513E-01  0.49474411820E-01 -0.44478328148E-01  0.79697550483E-01  0.51100000000E-03 0. -1.
         11    1    4    4    0    0  0.35647138839E-01  0.18247168546E-01 -0.21809769477E-01  0.45602684493E-01  0.51100000000E-03 0.  1.
</event>
<event>
 8    1  0.1060404E+005  0.1043930E+01  0.7957747E-01            NaN
         13   -1    0    0    0    0  0.00000000000E+00  0.00000000000E+00  0.74505805969E-08  0.10566000000E+00  0.10566000000E+00 0. -1.
     999900   -1    0    0    0    0 -0.00000000000E+00 -0.00000000000E+00 -0.74505805969E-08  0.93827000000E+00  0.93827000000E+00 0. -1.
     999902    2    1    2    0    0  0.22022835390E-02  0.15301817819E-01 -0.16057480924E-01  0.10216401284E+01  0.10213969422E+01 0.  0.
     999903    2    3    3    0    0 -0.27002973292E-01 -0.10174856503E+00 -0.76129233120E-01  0.13138041656E+00  0.19576073862E-01 0.  0.
         14    1    1    2    0    0 -0.22022835390E-02 -0.15301817819E-01  0.16057480924E-01  0.22289871578E-01  0.00000000000E+00 0. -1.
     999901    1    3    3    0    0  0.29205256831E-01  0.11705038285E+00  0.60071752197E-01  0.89025971186E+00  0.88000000000E+00 0. -1.
        -11    1    4    4    0    0 -0.19824518716E-01 -0.83092284890E-01 -0.51862965223E-01  0.99936818207E-01  0.51100000000E-03 0. -1.
         11    1    4    4    0    0 -0.71784545761E-02 -0.18656280139E-01 -0.24266267897E-01  0.31443598353E-01  0.51100000000E-03 0.  1.
</event>
<event>
 8    1  0.1060404E+005  0.1043930E+01  0.7957747E-01            NaN
         13   -1    0    0    0    0  0.00000000000E+00  0.00000000000E+00  0.74505805969E-08  0.10566000000E+00  0.10566000000E+00 0. -1.
     999900   -1    0    0    0    0 -0.00000000000E+00 -0.00000000000E+00 -0.74505805969E-08  0.93827000000E+00  0.93827000000E+00 0. -1.
     999902    2    1    2    0    0  0.22618296066E-01 -0.72334837301E-05 -0.71596730501E-02  0.10202055761E+01  0.10199296884E+01 0.  0.
     999903    2    3    3    0    0  0.98840540690E-01 -0.39412185698E-01  0.75869205476E-01  0.13214230390E+00  0.19562189939E-01 0.  0.
         14    1    1    2    0    0 -0.22618296066E-01  0.72334837301E-05  0.71596730501E-02  0.23724423859E-01  0.00000000000E+00 0.  1.
     999901    1    3    3    0    0 -0.76222244624E-01  0.39404952214E-01 -0.83028878526E-01  0.88806327224E+00  0.88000000000E+00 0.  1.
        -11    1    4    4    0    0  0.71687620358E-01 -0.35962734853E-01  0.50229795917E-01  0.94634701508E-01  0.51100000000E-03 0. -1.
         11    1    4    4    0    0  0.27152920332E-01 -0.34494508451E-02  0.25639409559E-01  0.37507602392E-01  0.51100000000E-03 0.  1.
</event>
<event>
 8    1  0.1060404E+005  0.1043930E+01  0.7957747E-01            NaN
         13   -1    0    0    0    0  0.00000000000E+00  0.00000000000E+00  0.74505805969E-08  0.10566000000E+00  0.10566000000E+00 0. -1.
     999900   -1    0    0    0    0 -0.00000000000E+00 -0.00000000000E+00 -0.74505805969E-08  0.93827000000E+00  0.93827000000E+00 0.  1.
     999902    2    1    2    0    0  0.35362168498E-02  0.49796557207E-02 -0.23178518720E-01  0.10199603206E+01  0.10196786308E+01 0.  0.
     999903    2    3    3    0    0 -0.59428473692E-01  0.10286540397E+00  0.47520134702E-01  0.12948602475E+00  0.19885486753E-01 0.  0.
         14    1    1    2    0    0 -0.35362168498E-02 -0.49796557207E-02  0.23178518720E-01  0.23969679405E-01  0.00000000000E+00 0. -1.
     999901    1    3    3    0    0  0.62964690541E-01 -0.97885748253E-01 -0.70698653422E-01  0.89047429585E+00  0.88000000000E+00 0.  1.
        -11    1    4    4    0    0 -0.36854441532E-01  0.65776055102E-01  0.40217169984E-01  0.85454205093E-01  0.51100000000E-03 0. -1.
         11    1    4    4    0    0 -0.22574032159E-01  0.37089348872E-01  0.73029647176E-02  0.44031819657E-01  0.51100000000E-03 0.  1.
</event>
<event>
 8    1  0.1060404E+005  0.1043930E+01  0.7957747E-01            NaN
         13   -1    0    0    0    0  0.00000000000E+00  0.00000000000E+00  0.74505805969E-08  0.10566000000E+00  0.10566000000E+00 0. -1.
     999900   -1    0    0    0    0 -0.00000000000E+00 -0.00000000000E+00 -0.74505805969E-08  0.93827000000E+00  0.93827000000E+00 0. -1.
     999902    2    1    2    0    0 -0.42054075333E-03 -0.23637743854E-01  0.42919629038E-03  0.10202846199E+01  0.10200105890E+01 0.  0.
     999903    2    3    3    0    0  0.84124798534E-01  0.72161143521E-01  0.62570498414E-01  0.12888858974E+00  0.20322129087E-01 0.  0.
         14    1    1    2    0    0  0.42054075333E-03  0.23637743854E-01 -0.42919629038E-03  0.23645380066E-01  0.00000000000E+00 0.  1.
     999901    1    3    3    0    0 -0.84545339287E-01 -0.95798887374E-01 -0.62141302124E-01  0.89139603019E+00  0.88000000000E+00 0. -1.
        -11    1    4    4    0    0  0.55124744420E-01  0.58250814019E-01  0.48929180295E-01  0.93947967443E-01  0.51100000000E-03 0.  1.
         11    1    4    4    0    0  0.29000054114E-01  0.13910329501E-01  0.13641318119E-01  0.34940622296E-01  0.51100000000E-03 0. -1.
</event>
<event>
 8    1  0.1060404E+005  0.1043930E+01  0.7957747E-01            NaN
         13   -1    0    0    0    0  0.00000000000E+00  0.00000000000E+00  0.74505805969E-08  0.10566000000E+00  0.10566000000E+00 0. -1.
     999900   -1    0    0    0    0 -0.00000000000E+00 -0.00000000000E+00 -0.74505805969E-08  0.93827000000E+00  0.93827000000E+00 0. -1.
     999902    2    1    2    0    0  0.20278821060E-01  0.92557193727E-02  0.84436730811E-02  0.10200931684E+01  0.10198146291E+01 0.  0.
     999903    2    3    3    0    0 -0.52461837441E-03  0.67781437492E-02 -0.12775650064E+00  0.12936907601E+00  0.19194163592E-01 0.  0.
         14    1    1    2    0    0 -0.20278821060E-01 -0.92557193727E-02 -0.84436730811E-02  0.23836831581E-01  0.00000000000E+00 0.  1.
     999901    1    3    3    0    0  0.20803439435E-01  0.24775756235E-02  0.13620017372E+00  0.89072409241E+00  0.88000000000E+00 0.  1.
        -11    1    4    4    0    0  0.55664341502E-02 -0.12872142632E-02 -0.13537315395E-01  0.14702453496E-01  0.51100000000E-03 0. -1.
         11    1    4    4    0    0 -0.60910525246E-02  0.80653580124E-02 -0.11421918524E+00  0.11466662252E+00  0.51100000000E-03 0.  1.
</event>
<event>
 7    1  0.1060404E+005  0.1043930E+01  0.7957747E-01            NaN
         13   -1    0    0    0    0  0.00000000000E+00  0.00000000000E+00  0.74505805969E-08  0.10566000000E+00  0.10566000000E+00 0. -1.
     999900   -1    0    0    0    0 -0.00000000000E+00 -0.00000000000E+00 -0.74505805969E-08  0.93827000000E+00  0.93827000000E+00 0.  1.
     999903    2    1    2    0    0 -0.60804596409E-01 -0.13202597320E-01 -0.32942145094E-01  0.73540177201E-01  0.21247710910E-01 0.  0.
         14    1    1    2    0    0 -0.72632559037E-01  0.32172088577E-01  0.70656306070E-02  0.79752461100E-01  0.00000000000E+00 0. -1.
     999901    1    1    2    0    0  0.13343715545E+00 -0.18969491257E-01  0.25876514487E-01  0.89063736170E+00  0.88000000000E+00 0. -1.
        -11    1    3    3    0    0 -0.38656805141E-01 -0.23713239238E-03 -0.27105164017E-01  0.47216055032E-01  0.51100000000E-03 0.  1.
         11    1    3    3    0    0 -0.22147791269E-01 -0.12965464927E-01 -0.58369810771E-02  0.26324122169E-01  0.51100000000E-03 0. -1.
</event>
<event>
 8    1  0.1060404E+005  0.1043930E+01  0.7957747E-01            NaN
         13   -1    0    0    0    0  0.00000000000E+00  0.00000000000E+00  0.74505805969E-08  0.10566000000E+00  0.10566000000E+00 0.  1.
     999900   -1    0    0    0    0 -0.00000000000E+00 -0.00000000000E+00 -0.74505805969E-08  0.93827000000E+00  0.93827000000E+00 0.  1.
     999902    2    1    2    0    0 -0.14658980832E-01  0.15140860404E-01 -0.10470985493E-01  0.10203976200E+01  0.10201262323E+01 0.  0.
     999903    2    3    3    0    0  0.19088360674E-01 -0.10571636763E+00 -0.69422798364E-01  0.12954372125E+00  0.20536184717E-01 0.  0.
         14    1    1    2    0    0  0.14658980832E-01 -0.15140860404E-01  0.10470985493E-01  0.23532380033E-01  0.00000000000E+00 0.  1.
     999901    1    3    3    0    0 -0.33747341506E-01  0.12085722804E+00  0.58951812871E-01  0.89085389872E+00  0.88000000000E+00 0. -1.
        -11    1    4    4    0    0 -0.92753939158E-03 -0.37411029699E-01 -0.16796549729E-01  0.41022319245E-01  0.51100000000E-03 0.  1.
         11    1    4    4    0    0  0.20015900066E-01 -0.68305337934E-01 -0.52626248634E-01  0.88521402000E-01  0.51100000000E-03 0. -1.
</event>
<event>
 8    1  0.1060404E+005  0.1043930E+01  0.7957747E-01            NaN
         13   -1    0    0    0    0  0.00000000000E+00  0.00000000000E+00  0.74505805969E-08  0.10566000000E+00  0.10566000000E+00 0. -1.
     999900   -1    0    0    0    0 -0.00000000000E+00 -0.00000000000E+00 -0.74505805969E-08  0.93827000000E+00  0.93827000000E+00 0.  1.
     999902    2    1    2    0    0 -0.58775817782E-02  0.19532732390E-01 -0.12418613156E-01  0.10200491383E+01  0.10197695568E+01 0.  0.
     999903    2    3    3    0    0  0.11505088704E+00  0.36452959897E-01  0.43527405190E-01  0.12985817810E+00  0.20074524245E-01 0.  0.
         14    1    1    2    0    0  0.58775817782E-02 -0.19532732390E-01  0.12418613156E-01  0.23880861687E-01  0.00000000000E+00 0. -1.
     999901    1    3    3    0    0 -0.12092846882E+00 -0.16920227506E-01 -0.55946018347E-01  0.89019096021E+00  0.88000000000E+00 0.  1.
        -11    1    4    4    0    0  0.22310023633E-01 -0.61200994314E-04  0.41960013428E-02  0.22707013197E-01  0.51100000000E-03 0. -1.
         11    1    4    4    0    0  0.92740863408E-01  0.36514160891E-01  0.39331403847E-01  0.10715116491E+00  0.51100000000E-03 0.  1.
</event>
<event>
 8    1  0.1060404E+005  0.1043930E+01  0.7957747E-01            NaN
         13   -1    0    0    0    0  0.00000000000E+00  0.00000000000E+00  0.74505805969E-08  0.10566000000E+00  0.10566000000E+00 0. -1.
     999900   -1    0    0    0    0 -0.00000000000E+00 -0.00000000000E+00 -0.74505805969E-08  0.93827000000E+00  0.93827000000E+00 0. -1.
     999902    2    1    2    0    0  0.98937463583E-02  0.14094580636E-01  0.15071515624E-01  0.10210456385E+01  0.10207891564E+01 0.  0.
     999903    2    3    3    0    0 -0.11476604382E+00  0.56856949306E-01 -0.16825006354E-01  0.13066028840E+00  0.19623267505E-01 0.  0.
         14    1    1    2    0    0 -0.98937463583E-02 -0.14094580636E-01 -0.15071515624E-01  0.22884361549E-01  0.00000000000E+00 0.  1.
     999901    1    3    3    0    0  0.12465979018E+00 -0.42762368670E-01  0.31896521978E-01  0.89038535005E+00  0.88000000000E+00 0. -1.
        -11    1    4    4    0    0 -0.45746385605E-01  0.20205570078E-01  0.27790051421E-02  0.50089727976E-01  0.51100000000E-03 0. -1.
         11    1    4    4    0    0 -0.69019658219E-01  0.36651379228E-01 -0.19604011496E-01  0.80570560429E-01  0.51100000000E-03 0.  1.
</event>
<event>
 8    1  0.1060404E+005  0.1043930E+01  0.7957747E-01            NaN
         13   -1    0    0    0    0  0.00000000000E+00  0.00000000000E+00  0.74505805969E-08  0.10566000000E+00  0.10566000000E+00 0. -1.
     999900   -1    0    0    0    0 -0.00000000000E+00 -0.00000000000E+00 -0.74505805969E-08  0.93827000000E+00  0.93827000000E+00 0.  1.
     999902    2    1    2    0    0 -0.69126868123E-02 -0.13965117739E-01 -0.20100645806E-01  0.10184968383E+01  0.10181792396E+01 0.  0.
     999903    2    3    3    0    0 -0.71781131597E-02  0.12527136162E+00  0.39924884537E-02  0.12722395822E+00  0.20629014300E-01 0.  0.
         14    1    1    2    0    0  0.69126868123E-02  0.13965117739E-01  0.20100645806E-01  0.25433161704E-01  0.00000000000E+00 0. -1.
     999901    1    3    3    0    0  0.26542634733E-03 -0.13923647936E+00 -0.24093134259E-01  0.89127288007E+00  0.88000000000E+00 0.  1.
        -11    1    4    4    0    0 -0.42584000817E-03  0.11381974277E+00  0.44970315810E-02  0.11391048941E+00  0.51100000000E-03 0. -1.
         11    1    4    4    0    0 -0.67522731515E-02  0.11451618848E-01 -0.50454312728E-03  0.13313468809E-01  0.51100000000E-03 0.  1.
</event>
<event>
 8    1  0.1060404E+005  0.1043930E+01  0.7957747E-01            NaN
         13   -1    0    0    0    0  0.00000000000E+00  0.00000000000E+00  0.74505805969E-08  0.10566000000E+00  0.10566000000E+00 0. -1.
     999900   -1    0    0    0    0 -0.00000000000E+00 -0.00000000000E+00 -0.74505805969E-08  0.93827000000E+00  0.93827000000E+00 0.  1.
     999902    2    1    2    0    0 -0.11454349913E-01 -0.18778138980E-01 -0.68772601867E-02  0.10208840168E+01  0.10206238574E+01 0.  0.
     999903    2    3    3    0    0 -0.39706729313E-01 -0.95971133888E-01  0.80207930485E-01  0.13277322084E+00  0.20207255320E-01 0.  0.
         14    1    1    2    0    0  0.11454349913E-01  0.18778138980E-01  0.68772601867E-02  0.23045983232E-01  0.00000000000E+00 0.  1.
     999901    1    3    3    0    0  0.28252379401E-01  0.77192994908E-01 -0.87085190672E-01  0.88811079593E+00  0.88000000000E+00 0.  1.
        -11    1    4    4    0    0 -0.21386624512E-02 -0.21743828668E-01  0.23489998586E-01  0.32084406131E-01  0.51100000000E-03 0. -1.
         11    1    4    4    0    0 -0.37568066862E-01 -0.74227305220E-01  0.56717931900E-01  0.10068881471E+00  0.51100000000E-03 0.  1.
</event>
<event>
 8    1  0.1060404E+005  0.1043930E+01  0.7957747E-01            NaN
         13   -1    0    0    0    0  0.00000000000E+00  0.00000000000E+00  0.74505805969E-08  0.10566000000E+00  0.10566000000E+00 0. -1.
     999900   -1    0    0    0    0 -0.00000000000E+00 -0.00000000000E+00 -0.74505805969E-08  0.93827000000E+00  0.93827000000E+00 0. -1.
     999902    2    1    2    0    0  0.60541190276E-02  0.21687319262E-01 -0.10160106859E-01  0.10192273697E+01  0.10189279715E+01 0.  0.
     999903    2    3    3    0    0 -0.11976491621E+00  0.17120188182E-01  0.39644502207E-01  0.12887250367E+00  0.19992489811E-01 0.  0.
         14    1    1    2    0    0 -0.60541190276E-02 -0.21687319262E-01  0.10160106859E-01  0.24702630333E-01  0.00000000000E+00 0. -1.
     999901    1    3    3    0    0  0.12581903524E+00  0.45671310800E-02 -0.49804609066E-01  0.89035486599E+00  0.88000000000E+00 0. -1.
        -11    1    4    4    0    0 -0.21521931441E-01  0.66698961455E-02  0.14915447235E-01  0.27026149092E-01  0.51100000000E-03 0.  1.
         11    1    4    4    0    0 -0.98242984772E-01  0.10450292037E-01  0.24729054972E-01  0.10184635458E+00  0.51100000000E-03 0. -1.
</event>
<event>
 8    1  0.1060404E+005  0.1043930E+01  0.7957747E-01            NaN
         13   -1    0    0    0    0  0.00000000000E+00  0.00000000000E+00  0.74505805969E-08  0.10566000000E+00  0.10566000000E+00 0.  1.
     999900   -1    0    0    0    0 -0.00000000000E+00 -0.00000000000E+00 -0.74505805969E-08  0.93827000000E+00  0.93827000000E+00 0.  1.
     999902    2    1    2    0    0  0.18370385346E-01  0.11041811134E-01  0.10698257548E-01  0.10199749303E+01  0.10196935878E+01 0.  0.
     999903    2    3    3    0    0  0.39256903942E-01 -0.86585719271E-01 -0.85139586709E-01  0.12915941978E+00  0.19880020216E-01 0.  0.
         14    1    1    2    0    0 -0.18370385346E-01 -0.11041811134E-01 -0.10698257548E-01  0.23955069723E-01  0.00000000000E+00 0.  1.
     999901    1    3    3    0    0 -0.20886518596E-01  0.97627530405E-01  0.95837844257E-01  0.89081551050E+00  0.88000000000E+00 0. -1.
        -11    1    4    4    0    0  0.49198139363E-02 -0.33715289974E-01 -0.29231452258E-01  0.44896149828E-01  0.51100000000E-03 0.  1.
         11    1    4    4    0    0  0.34337090005E-01 -0.52870429297E-01 -0.55908134451E-01  0.84263269951E-01  0.51100000000E-03 0. -1.
</event>
<event>
 8    1  0.1060404E+005  0.1043930E+01  0.7957747E-01            NaN
         13   -1    0    0    0    0  0.00000000000E+00  0.00000000000E+00  0.74505805969E-08  0.10566000000E+00  0.10566000000E+00 0. -1.
     999900   -1    0    0    0    0 -0.00000000000E+00 -0.00000000000E+00 -0.74505805969E-08  0.93827000000E+00  0.93827000000E+00 0. -1.
     999902    2    1    2    0    0 -0.17612412961E-01  0.14651731232E-02  0.18154810839E-01  0.10185934458E+01  0.10182782856E+01 0.  0.
     999903    2    3    3    0    0 -0.45147422038E-01  0.11556002085E+00  0.35549156578E-01  0.13063039799E+00  0.20202727750E-01 0.  0.
         14    1    1    2    0    0  0.17612412961E-01 -0.14651731232E-02 -0.18154810839E-01  0.25336554210E-01  0.00000000000E+00 0.  1.
     999901    1    3    3    0    0  0.27535009077E-01 -0.11409484773E+00 -0.17394345739E-01  0.88796304780E+00  0.88000000000E+00 0. -1.
        -11    1    4    4    0    0 -0.16185833103E-01  0.61449887102E-01  0.25329795548E-01  0.68410010098E-01  0.51100000000E-03 0. -1.
         11    1    4    4    0    0 -0.28961588935E-01  0.54110133749E-01  0.10219361030E-01  0.62220387888E-01  0.51100000000E-03 0.  1.
</event>
<event>
 8    1  0.1060404E+005  0.1043930E+01  0.7957747E-01            NaN
         13   -1    0    0    0    0  0.00000000000E+00  0.00000000000E+00  0.74505805969E-08  0.10566000000E+00  0.10566000000E+00 0.  1.
     999900   -1    0    0    0    0 -0.00000000000E+00 -0.00000000000E+00 -0.74505805969E-08  0.93827000000E+00  0.93827000000E+00 0. -1.
     999902    2    1    2    0    0 -0.62031783158E-02  0.18515028981E-01 -0.12445960500E-01  0.10207742739E+01  0.10205116024E+01 0.  0.
     999903    2    3    3    0    0  0.21584616317E-02 -0.91967730322E-01 -0.90113162860E-01  0.13043245668E+00  0.20724894660E-01 0.  0.
         14    1    1    2    0    0  0.62031783158E-02 -0.18515028981E-01  0.12445960500E-01  0.23155726120E-01  0.00000000000E+00 0. -1.
     999901    1    3    3    0    0 -0.83616399475E-02  0.11048275930E+00  0.77667202360E-01  0.89034181720E+00  0.88000000000E+00 0.  1.
        -11    1    4    4    0    0  0.60354206713E-02 -0.80824215318E-01 -0.69933529686E-01  0.10705110826E+00  0.51100000000E-03 0.  1.
         11    1    4    4    0    0 -0.38769590396E-02 -0.11143515004E-01 -0.20179633175E-01  0.23381348423E-01  0.51100000000E-03 0. -1.
</event>
<event>
 8    1  0.1060404E+005  0.1043930E+01  0.7957747E-01            NaN
         13   -1    0    0    0    0  0.00000000000E+00  0.00000000000E+00  0.74505805969E-08  0.10566000000E+00  0.10566000000E+00 0.  1.
     999900   -1    0    0    0    0 -0.00000000000E+00 -0.00000000000E+00 -0.74505805969E-08  0.93827000000E+00  0.93827000000E+00 0. -1.
     999902    2    1    2    0    0  0.65230091985E-02 -0.68177577159E-02 -0.21757529567E-01  0.10202145712E+01  0.10199388951E+01 0.  0.
     999903    2    3    3    0    0  0.59170084930E-01  0.88854363073E-01 -0.74849045649E-01  0.13187703494E+00  0.19823620341E-01 0.  0.
         14    1    1    2    0    0 -0.65230091985E-02  0.68177577159E-02  0.21757529567E-01  0.23715428778E-01  0.00000000000E+00 0.  1.
     999901    1    3    3    0    0 -0.52647075731E-01 -0.95672120789E-01  0.53091516083E-01  0.88833753628E+00  0.88000000000E+00 0. -1.
        -11    1    4    4    0    0  0.81912237962E-02  0.13067574383E-01 -0.20265196774E-01  0.25471493259E-01  0.51100000000E-03 0. -1.
         11    1    4    4    0    0  0.50978861133E-01  0.75786788690E-01 -0.54583848875E-01  0.10640554169E+00  0.51100000000E-03 0.  1.
</event>
<event>
 8    1  0.1060404E+005  0.1043930E+01  0.7957747E-01            NaN
         13   -1    0    0    0    0  0.00000000000E+00  0.00000000000E+00  0.74505805969E-08  0.10566000000E+00  0.10566000000E+00 0.  1.
     999900   -1    0    0    0    0 -0.00000000000E+00 -0.00000000000E+00 -0.74505805969E-08  0.93827000000E+00  0.93827000000E+00 0.  1.
     999902    2    1    2    0    0  0.78738232031E-02 -0.30949016001E-02  0.22298193315E-01  0.10200807876E+01  0.10198019554E+01 0.  0.
     999903    2    3    3    0    0 -0.81613860617E-01 -0.33236670923E-01 -0.90575022529E-01  0.12786055991E+00  0.19467653578E-01 0.  0.
         14    1    1    2    0    0 -0.78738232031E-02  0.30949016001E-02 -0.22298193315E-01  0.23849212416E-01  0.00000000000E+00 0. -1.
     999901    1    3    3    0    0  0.89487683820E-01  0.30141769323E-01  0.11287321584E+00  0.89222022767E+00  0.88000000000E+00 0. -1.
        -11    1    4    4    0    0 -0.32543988638E-01 -0.32660539508E-02 -0.34551531631E-01  0.47579909246E-01  0.51100000000E-03 0.  1.
         11    1    4    4    0    0 -0.49069871979E-01 -0.29970616972E-01 -0.56023490899E-01  0.80280650665E-01  0.51100000000E-03 0. -1.
</event>
<event>
 8    1  0.1060404E+005  0.1043930E+01  0.7957747E-01            NaN
         13   -1    0    0    0    0  0.00000000000E+00  0.00000000000E+00  0.74505805969E-08  0.10566000000E+00  0.10566000000E+00 0.  1.
     999900   -1    0    0    0    0 -0.00000000000E+00 -0.00000000000E+00 -0.74505805969E-08  0.93827000000E+00  0.93827000000E+00 0. -1.
     999902    2    1    2    0    0 -0.13434552502E-01  0.10249840655E-01 -0.15805633104E-01  0.10207920556E+01  0.10205297919E+01 0.  0.
     999903    2    3    3    0    0 -0.10318640636E+00 -0.46834557454E-01 -0.66529952130E-01  0.13293678566E+00  0.20125710436E-01 0.  0.
         14    1    1    2    0    0  0.13434552502E-01 -0.10249840655E-01  0.15805633104E-01  0.23137944424E-01  0.00000000000E+00 0.  1.
     999901    1    3    3    0    0  0.89751853862E-01  0.57084398108E-01  0.50724319026E-01  0.88785526992E+00  0.88000000000E+00 0. -1.
        -11    1    4    4    0    0 -0.53090412737E-01 -0.30530503497E-01 -0.26322507930E-01  0.66662126527E-01  0.51100000000E-03 0.  1.
         11    1    4    4    0    0 -0.50095993627E-01 -0.16304053957E-01 -0.40207444200E-01  0.66274659131E-01  0.51100000000E-03 0. -1.
</event>
<event>
 8    1  0.1060404E+005  0.1043930E+01  0.7957747E-01            NaN
         13   -1    0    0    0    0  0.00000000000E+00  0.00000000000E+00  0.74505805969E-08  0.10566000000E+00  0.10566000000E+00 0.  1.
     999900   -1    0    0    0    0 -0.00000000000E+00 -0.00000000000E+00 -0.74505805969E-08  0.93827000000E+00  0.93827000000E+00 0.  1.
     999902    2    1    2    0    0  0.60879036577E-02  0.21932727485E-01  0.59101333924E-03  0.10211603623E+01  0.10209064742E+01 0.  0.
     999903    2    3    3    0    0 -0.10204986078E+00 -0.74644977843E-01  0.17362897459E-01  0.12913887970E+00  0.19731529047E-01 0.  0.
         14    1    1    2    0    0 -0.60879036577E-02 -0.21932727485E-01 -0.59101333924E-03  0.22769637737E-01  0.00000000000E+00 0.  1.
     999901    1    3    3    0    0  0.10813776444E+00  0.96577705328E-01 -0.16771884120E-01  0.89202148257E+00  0.88000000000E+00 0.  1.
        -11    1    4    4    0    0 -0.29337874360E-01 -0.26606685608E-01  0.13704410719E-01  0.41912988263E-01  0.51100000000E-03 0.  1.
         11    1    4    4    0    0 -0.72711986420E-01 -0.48038292236E-01  0.36584867403E-02  0.87225891433E-01  0.51100000000E-03 0. -1.
</event>
<event>
 8    1  0.1060404E+005  0.1043930E+01  0.7957747E-01            NaN
         13   -1    0    0    0    0  0.00000000000E+00  0.00000000000E+00  0.74505805969E-08  0.10566000000E+00  0.10566000000E+00 0.  1.
     999900   -1    0    0    0    0 -0.00000000000E+00 -0.00000000000E+00 -0.74505805969E-08  0.93827000000E+00  0.93827000000E+00 0. -1.
     999902    2    1    2    0    0  0.17997999299E-01 -0.12919933281E-02  0.14698525321E-01  0.10206567563E+01  0.10203913809E+01 0.  0.
     999903    2    3    3    0    0  0.84168923473E-01 -0.54586810645E-01 -0.82360086639E-01  0.13125285317E+00  0.19493589163E-01 0.  0.
         14    1    1    2    0    0 -0.17997999299E-01  0.12919933281E-02 -0.14698525321E-01  0.23273243696E-01  0.00000000000E+00 0. -1.
     999901    1    3    3    0    0 -0.66170924174E-01  0.53294817317E-01  0.97058611960E-01  0.88940390314E+00  0.88000000000E+00 0.  1.
        -11    1    4    4    0    0  0.55540107674E-01 -0.46371847959E-01 -0.56410788386E-01  0.91746880115E-01  0.51100000000E-03 0.  1.
         11    1    4    4    0    0  0.28628815799E-01 -0.82149626860E-02 -0.25949298252E-01  0.39505973052E-01  0.51100000000E-03 0. -1.
</event>
<event>
 8    1  0.1060404E+005  0.1043930E+01  0.7957747E-01            NaN
         13   -1    0    0    0    0  0.00000000000E+00  0.00000000000E+00  0.74505805969E-08  0.10566000000E+00  0.10566000000E+00 0. -1.
     999900   -1    0    0    0    0 -0.00000000000E+00 -0.00000000000E+00 -0.74505805969E-08  0.93827000000E+00  0.93827000000E+00 0.  1.
     999902    2    1    2    0    0 -0.38048032242E-02 -0.18367795616E-01  0.12828532799E-01  0.10212050424E+01  0.10209521610E+01 0.  0.
     999903    2    3    3    0    0  0.31456398035E-02  0.53374119195E-01  0.11887552315E+00  0.13191252858E+00  0.20269029142E-01 0.  0.
         14    1    1    2    0    0  0.38048032242E-02  0.18367795616E-01 -0.12828532799E-01  0.22724957583E-01  0.00000000000E+00 0.  1.
     999901    1    3    3    0    0 -0.69504430277E-02 -0.71741914811E-01 -0.10604699035E+00  0.88929251383E+00  0.88000000000E+00 0. -1.
        -11    1    4    4    0    0  0.94947777648E-02  0.14736334454E-01  0.45069508295E-01  0.48361472857E-01  0.51100000000E-03 0. -1.
         11    1    4    4    0    0 -0.63491379612E-02  0.38637784741E-01  0.73806014858E-01  0.83551055725E-01  0.51100000000E-03 0.  1.
</event>
<event>
 8    1  0.1060404E+005  0.1043930E+01  0.7957747E-01            NaN
         13   -1    0    0    0    0  0.00000000000E+00  0.00000000000E+00  0.74505805969E-08  0.10566000000E+00  0.10566000000E+00 0.  1.
     999900   -1    0    0    0    0 -0.00000000000E+00 -0.00000000000E+00 -0.74505805969E-08  0.93827000000E+00  0.93827000000E+00 0. -1.
     999902    2    1    2    0    0 -0.19660309105E-01 -0.23711711990E-01  0.46090656939E-02  0.10127849117E+01  0.10123059127E+01 0.  0.
     999903    2    3    3    0    0  0.51618718947E-01  0.95192590338E-01 -0.48593018686E-01  0.12034477659E+00  0.19886236083E-01 0.  0.
         14    1    1    2    0    0  0.19660309105E-01  0.23711711990E-01 -0.46090656939E-02  0.31145088315E-01  0.00000000000E+00 0.  1.
     999901    1    3    3    0    0 -0.71279028052E-01 -0.11890430233E+00  0.53202084380E-01  0.89244013510E+00  0.88000000000E+00 0. -1.
        -11    1    4    4    0    0  0.26937984635E-01  0.46203574459E-01 -0.34699869414E-01  0.63755528132E-01  0.51100000000E-03 0.  1.
         11    1    4    4    0    0  0.24680734312E-01  0.48989015879E-01 -0.13893149273E-01  0.56589248455E-01  0.51100000000E-03 0. -1.
</event>
<event>
 8    1  0.1060404E+005  0.1043930E+01  0.7957747E-01            NaN
         13   -1    0    0    0    0  0.00000000000E+00  0.00000000000E+00  0.74505805969E-08  0.10566000000E+00  0.10566000000E+00 0. -1.
     999900   -1    0    0    0    0 -0.00000000000E+00 -0.00000000000E+00 -0.74505805969E-08  0.93827000000E+00  0.93827000000E+00 0. -1.
     999902    2    1    2    0    0  0.40129979551E-02 -0.31603318452E-02  0.22162099551E-01  0.10211868580E+01  0.10209335671E+01 0.  0.
     999903    2    3    3    0    0 -0.47968444359E-02 -0.18768783398E-01  0.13137175662E+00  0.13425507583E+00  0.19763855997E-01 0.  0.
         14    1    1    2    0    0 -0.40129979551E-02  0.31603318452E-02 -0.22162099551E-01  0.22743141966E-01  0.00000000000E+00 0.  1.
     999901    1    3    3    0    0  0.88098423910E-02  0.15608451552E-01 -0.10920965706E+00  0.88693178220E+00  0.88000000000E+00 0. -1.
        -11    1    4    4    0    0  0.36104674997E-02 -0.18829526309E-01  0.86682690749E-01  0.88779144697E-01  0.51100000000E-03 0. -1.
         11    1    4    4    0    0 -0.84073119355E-02  0.60742910983E-04  0.44689065866E-01  0.45475931136E-01  0.51100000000E-03 0.  1.
</event>
<event>
 8    1  0.1060404E+005  0.1043930E+01  0.7957747E-01            NaN
         13   -1    0    0    0    0  0.00000000000E+00  0.00000000000E+00  0.74505805969E-08  0.10566000000E+00  0.10566000000E+00 0. -1.
     999900   -1    0    0    0    0 -0.00000000000E+00 -0.00000000000E+00 -0.74505805969E-08  0.93827000000E+00  0.93827000000E+00 0. -1.
     999902    2    1    2    0    0  0.30210029839E-02 -0.14352333710E-01 -0.18490164007E-01  0.10203291079E+01  0.10200561192E+01 0.  0.
     999903    2    3    3    0    0 -0.10763467322E+00  0.41811748944E-01 -0.58090683901E-01  0.13074084134E+00  0.19626380460E-01 0.  0.
         14    1    1    2    0    0 -0.30210029839E-02  0.14352333710E-01  0.18490164007E-01  0.23600892080E-01  0.00000000000E+00 0. -1.
     999901    1    3    3    0    0  0.11065567620E+00 -0.56164082655E-01  0.39600519895E-01  0.88958826658E+00  0.88000000000E+00 0. -1.
        -11    1    4    4    0    0 -0.36534749629E-01  0.11252999539E-01 -0.29301195060E-01  0.48168860086E-01  0.51100000000E-03 0. -1.
         11    1    4    4    0    0 -0.71099923591E-01  0.30558749405E-01 -0.28789488841E-01  0.82571981256E-01  0.51100000000E-03 0.  1.
</event>
<event>
 8    1  0.1060404E+005  0.1043930E+01  0.7957747E-01            NaN
         13   -1    0    0    0    0  0.00000000000E+00  0.00000000000E+00  0.74505805969E-08  0.10566000000E+00  0.10566000000E+00 0.  1.
     999900   -1    0    0    0    0 -0.00000000000E+00 -0.00000000000E+00 -0.74505805969E-08  0.93827000000E+00  0.93827000000E+00 0.  1.
     999902    2    1    2    0    0 -0.32367452060E-03  0.21216303908E-01  0.96298575135E-02  0.10206282732E+01  0.10203622404E+01 0.  0.
     999903    2    3    3    0    0 -0.50225180017E-01  0.86247011151E-01  0.86322124179E-01  0.13349758558E+00  0.20223268574E-01 0.  0.
         14    1    1    2    0    0  0.32367452060E-03 -0.21216303908E-01 -0.96298575135E-02  0.23301726813E-01  0.00000000000E+00 0.  1.
     999901    1    3    3    0    0  0.49901505496E-01 -0.65030707242E-01 -0.76692266665E-01  0.88713068761E+00  0.88000000000E+00 0.  1.
        -11    1    4    4    0    0 -0.40746011649E-01  0.65365404777E-01  0.76449985788E-01  0.10852527381E+00  0.51100000000E-03 0.  1.
         11    1    4    4    0    0 -0.94791683683E-02  0.20881606373E-01  0.98721383911E-02  0.24972311769E-01  0.51100000000E-03 0. -1.
</event>
<event>
 8    1  0.1060404E+005  0.1043930E+01  0.7957747E-01            NaN
         13   -1    0    0    0    0  0.00000000000E+00  0.00000000000E+00  0.74505805969E-08  0.10566000000E+00  0.10566000000E+00 0.  1.
     999900   -1    0    0    0    0 -0.00000000000E+00 -0.00000000000E+00 -0.74505805969E-08  0.93827000000E+00  0.93827000000E+00 0.  1.
     999902    2    1    2    0    0  0.21375143936E-01  0.10460205892E-01 -0.13503713115E-02  0.10200943924E+01  0.10198158820E+01 0.  0.
     999903    2    3    3    0    0 -0.96088642913E-02  0.11554599830E+00  0.58711793077E-01  0.13126904619E+00  0.18473760966E-01 0.  0.
         14    1    1    2    0    0 -0.21375143936E-01 -0.10460205892E-01  0.13503713115E-02  0.23835607570E-01  0.00000000000E+00 0.  1.
     999901    1    3    3    0    0  0.30984008227E-01 -0.10508579241E+00 -0.60062164388E-01  0.88882534624E+00  0.88000000000E+00 0.  1.
        -11    1    4    4    0    0 -0.12620803731E-01  0.58938353556E-01  0.24570576457E-01  0.65092154328E-01  0.51100000000E-03 0. -1.
         11    1    4    4    0    0  0.30119394398E-02  0.56607644745E-01  0.34141216620E-01  0.66176891859E-01  0.51100000000E-03 0.  1.
</event>
<event>
 8    1  0.1060404E+005  0.1043930E+01  0.7957747E-01            NaN
         13   -1    0    0    0    0  0.00000000000E+00  0.00000000000E+00  0.74505805969E-08  0.10566000000E+00  0.10566000000E+00 0.  1.
     999900   -1    0    0    0    0 -0.00000000000E+00 -0.00000000000E+00 -0.74505805969E-08  0.93827000000E+00  0.93827000000E+00 0. -1.
     999902    2    1    2    0    0 -0.21836096056E-01  0.10621188823E-01  0.14180990459E-02  0.10196064364E+01  0.10193162656E+01 0.  0.
     999903    2    3    3    0    0 -0.10668605329E+00 -0.28567964501E-01  0.69570531700E-01  0.13203668753E+00  0.19889329050E-01 0.  0.
         14    1    1    2    0    0  0.21836096056E-01 -0.10621188823E-01 -0.14180990459E-02  0.24323563634E-01  0.00000000000E+00 0. -1.
     999901    1    3    3    0    0  0.84849957231E-01  0.39189153324E-01 -0.68152432654E-01  0.88756974884E+00  0.88000000000E+00 0. -1.
        -11    1    4    4    0    0 -0.15910943264E-01 -0.25065200937E-02  0.27578505936E-02  0.16349544930E-01  0.51100000000E-03 0.  1.
         11    1    4    4    0    0 -0.90775110023E-01 -0.26061444407E-01  0.66812681106E-01  0.11568714260E+00  0.51100000000E-03 0. -1.
</event>
<event>
 8    1  0.1060404E+005  0.1043930E+01  0.7957747E-01            NaN
         13   -1    0    0    0    0  0.00000000000E+00  0.00000000000E+00  0.74505805969E-08  0.10566000000E+00  0.10566000000E+00 0. -1.
     999900   -1    0    0    0    0 -0.00000000000E+00 -0.00000000000E+00 -0.74505805969E-08  0.93827000000E+00  0.93827000000E+00 0. -1.
     999902    2    1    2    0    0  0.87360516059E-02 -0.20434669174E-01 -0.45030956394E-02  0.10212546351E+01  0.10210028686E+01 0.  0.
     999903    2    3    3    0    0 -0.10695566219E+00  0.51282311896E-01 -0.49630591219E-01  0.12964688007E+00  0.16605081726E-01 0.  0.
         14    1    1    2    0    0 -0.87360516059E-02  0.20434669174E-01  0.45030956394E-02  0.22675364876E-01  0.00000000000E+00 0. -1.
     999901    1    3    3    0    0  0.11569171380E+00 -0.71716981070E-01  0.45127495580E-01  0.89160775505E+00  0.88000000000E+00 0.  1.
        -11    1    4    4    0    0 -0.29431667201E-01  0.20070320743E-01 -0.20722435503E-01  0.41215546377E-01  0.51100000000E-03 0. -1.
         11    1    4    4    0    0 -0.77523994989E-01  0.31211991153E-01 -0.28908155716E-01  0.88431333693E-01  0.51100000000E-03 0.  1.
</event>
<event>
 8    1  0.1060404E+005  0.1043930E+01  0.7957747E-01            NaN
         13   -1    0    0    0    0  0.00000000000E+00  0.00000000000E+00  0.74505805969E-08  0.10566000000E+00  0.10566000000E+00 0.  1.
     999900   -1    0    0    0    0 -0.00000000000E+00 -0.00000000000E+00 -0.74505805969E-08  0.93827000000E+00  0.93827000000E+00 0. -1.
     999902    2    1    2    0    0  0.10708060646E-01 -0.20643435720E-01 -0.30652473557E-02  0.10204734499E+01  0.10202038288E+01 0.  0.
     999903    2    3    3    0    0  0.10144511722E+00 -0.79488217409E-01  0.27920349555E-01  0.13331166703E+00  0.19569520543E-01 0.  0.
         14    1    1    2    0    0 -0.10708060646E-01  0.20643435720E-01  0.30652473557E-02  0.23456550098E-01  0.00000000000E+00 0. -1.
     999901    1    3    3    0    0 -0.90737056570E-01  0.58844781689E-01 -0.30985596911E-01  0.88716178287E+00  0.88000000000E+00 0.  1.
        -11    1    4    4    0    0  0.86989500288E-01 -0.60541741807E-01  0.18043333521E-01  0.10750952826E+00  0.51100000000E-03 0.  1.
         11    1    4    4    0    0  0.14455616927E-01 -0.18946475602E-01  0.98770160342E-02  0.25802138773E-01  0.51100000000E-03 0. -1.
</event>
<event>
 8    1  0.1060404E+005  0.1043930E+01  0.7957747E-01            NaN
         13   -1    0    0    0    0  0.00000000000E+00  0.00000000000E+00  0.74505805969E-08  0.10566000000E+00  0.10566000000E+00 0. -1.
     999900   -1    0    0    0    0 -0.00000000000E+00 -0.00000000000E+00 -0.74505805969E-08  0.93827000000E+00  0.93827000000E+00 0.  1.
     999902    2    1    2    0    0 -0.67040121147E-02 -0.21251130587E-01 -0.32000195024E-02  0.10214179043E+01  0.10211697903E+01 0.  0.
     999903    2    3    3    0    0 -0.10747916115E+00  0.44761495712E-01  0.57378382226E-01  0.13114657470E+00  0.18755898501E-01 0.  0.
         14    1    1    2    0    0  0.67040121147E-02  0.21251130587E-01  0.32000195024E-02  0.22512095737E-01  0.00000000000E+00 0.  1.
     999901    1    3    3    0    0  0.10077514903E+00 -0.66012626299E-01 -0.60578401728E-01  0.89027132957E+00  0.88000000000E+00 0.  1.
        -11    1    4    4    0    0 -0.27819037230E-01  0.87131023858E-02  0.23220934023E-01  0.37273179144E-01  0.51100000000E-03 0. -1.
         11    1    4    4    0    0 -0.79660123916E-01  0.36048393326E-01  0.34157448202E-01  0.93873395551E-01  0.51100000000E-03 0.  1.
</event>
<event>
 8    1  0.1060404E+005  0.1043930E+01  0.7957747E-01            NaN
         13   -1    0    0    0    0  0.00000000000E+00  0.00000000000E+00  0.74505805969E-08  0.10566000000E+00  0.10566000000E+00 0. -1.
     999900   -1    0    0    0    0 -0.00000000000E+00 -0.00000000000E+00 -0.74505805969E-08  0.93827000000E+00  0.93827000000E+00 0.  1.
     999902    2    1    2    0    0 -0.60417868557E-02  0.71413865125E-02 -0.21804343734E-01  0.10202038120E+01  0.10199278828E+01 0.  0.
     999903    2    3    3    0    0 -0.10183706300E+00  0.36421729200E-01  0.68604886474E-01  0.12991851938E+00  0.21791316451E-01 0.  0.
         14    1    1    2    0    0  0.60417868557E-02 -0.71413865125E-02  0.21804343734E-01  0.23726187966E-01  0.00000000000E+00 0. -1.
     999901    1    3    3    0    0  0.95795276145E-01 -0.29280342687E-01 -0.90409230208E-01  0.89028529265E+00  0.88000000000E+00 0.  1.
        -11    1    4    4    0    0 -0.62193934675E-01  0.14555217263E-01  0.49341609185E-01  0.80714282367E-01  0.51100000000E-03 0. -1.
         11    1    4    4    0    0 -0.39643128325E-01  0.21866511936E-01  0.19263277289E-01  0.49204237018E-01  0.51100000000E-03 0.  1.
</event>
<event>
 8    1  0.1121808E+005  0.1043930E+01  0.7957747E-01            NaN
         13   -1    0    0    0    0  0.00000000000E+00  0.00000000000E+00  0.74505805969E-08  0.10566000000E+00  0.10566000000E+00 0.  1.
     999900   -1    0    0    0    0 -0.00000000000E+00 -0.00000000000E+00 -0.74505805969E-08  0.93827000000E+00  0.93827000000E+00 0. -1.
     999902    2    1    2    0    0 -0.11007094497E-02  0.14244802294E-01 -0.19996436273E-01  0.10193539259E+01  0.10190576249E+01 0.  0.
     999903    2    3    3    0    0 -0.63909828689E-01 -0.74734531030E-01  0.78379276070E-01  0.12719918149E+00  0.19146919444E-01 0.  0.
         14    1    1    2    0    0  0.11007094497E-02 -0.14244802294E-01  0.19996436273E-01  0.24576074082E-01  0.00000000000E+00 0.  1.
     999901    1    3    3    0    0  0.62809119239E-01  0.88979333324E-01 -0.98375712343E-01  0.89215474442E+00  0.88000000000E+00 0. -1.
        -11    1    4    4    0    0 -0.30333366244E-01 -0.21318338153E-01  0.29785647017E-01  0.47560808850E-01  0.51100000000E-03 0.  1.
         11    1    4    4    0    0 -0.33576462445E-01 -0.53416192877E-01  0.48593629054E-01  0.79638372644E-01  0.51100000000E-03 0. -1.
</event>
<event>
 8    1  0.1060404E+005  0.1043930E+01  0.7957747E-01            NaN
         13   -1    0    0    0    0  0.00000000000E+00  0.00000000000E+00  0.74505805969E-08  0.10566000000E+00  0.10566000000E+00 0.  1.
     999900   -1    0    0    0    0 -0.00000000000E+00 -0.00000000000E+00 -0.74505805969E-08  0.93827000000E+00  0.93827000000E+00 0. -1.
     999902    2    1    2    0    0 -0.20290566406E-01  0.14558521351E-01 -0.15259758565E-02  0.10189102831E+01  0.10186030527E+01 0.  0.
     999903    2    3    3    0    0  0.37654311493E-02  0.12294231791E+00  0.40209127447E-01  0.13095332630E+00  0.20075052518E-01 0.  0.
         14    1    1    2    0    0  0.20290566406E-01 -0.14558521351E-01  0.15259758565E-02  0.25019716852E-01  0.00000000000E+00 0.  1.
     999901    1    3    3    0    0 -0.24055997555E-01 -0.10838379656E+00 -0.41735103303E-01  0.88795695685E+00  0.88000000000E+00 0. -1.
        -11    1    4    4    0    0  0.10519003011E-01  0.81937772065E-01  0.21421794138E-01  0.85344023226E-01  0.51100000000E-03 0. -1.
         11    1    4    4    0    0 -0.67535718614E-02  0.41004545843E-01  0.18787333308E-01  0.45609303070E-01  0.51100000000E-03 0.  1.
</event>
<event>
 8    1  0.1060404E+005  0.1043930E+01  0.7957747E-01            NaN
         13   -1    0    0    0    0  0.00000000000E+00  0.00000000000E+00  0.74505805969E-08  0.10566000000E+00  0.10566000000E+00 0. -1.
     999900   -1    0    0    0    0 -0.00000000000E+00 -0.00000000000E+00 -0.74505805969E-08  0.93827000000E+00  0.93827000000E+00 0. -1.
     999902    2    1    2    0    0 -0.17342687512E-01  0.88034152037E-02  0.16280136255E-01  0.10185664087E+01  0.10182505669E+01 0.  0.
     999903    2    3    3    0    0  0.10809180557E+00  0.45560591392E-01 -0.43782335189E-01  0.12688686839E+00  0.20585882904E-01 0.  0.
         14    1    1    2    0    0  0.17342687512E-01 -0.88034152037E-02 -0.16280136255E-01  0.25363591344E-01  0.00000000000E+00 0.  1.
     999901    1    3    3    0    0 -0.12543449308E+00 -0.36757176188E-01  0.60062471444E-01  0.89167954027E+00  0.88000000000E+00 0.  1.
        -11    1    4    4    0    0  0.11345490369E-01  0.76909231922E-02  0.99719572756E-03  0.13752307864E-01  0.51100000000E-03 0. -1.
         11    1    4    4    0    0  0.96746315203E-01  0.37869668199E-01 -0.44779530917E-01  0.11313456052E+00  0.51100000000E-03 0.  1.
</event>
<event>
 8    1  0.1060404E+005  0.1043930E+01  0.7957747E-01            NaN
         13   -1    0    0    0    0  0.00000000000E+00  0.00000000000E+00  0.74505805969E-08  0.10566000000E+00  0.10566000000E+00 0. -1.
     999900   -1    0    0    0    0 -0.00000000000E+00 -0.00000000000E+00 -0.74505805969E-08  0.93827000000E+00  0.93827000000E+00 0. -1.
     999902    2    1    2    0    0  0.11012956930E-02  0.22506313821E-01  0.24641300630E-03  0.10213954103E+01  0.10211467948E+01 0.  0.
     999903    2    3    3    0    0 -0.11130539583E+00  0.66005659650E-01  0.22729605890E-01  0.13289501561E+00  0.19970276496E-01 0.  0.
         14    1    1    2    0    0 -0.11012956930E-02 -0.22506313821E-01 -0.24641300630E-03  0.22534589709E-01  0.00000000000E+00 0. -1.
     999901    1    3    3    0    0  0.11240669152E+00 -0.43499345830E-01 -0.22483192884E-01  0.88850039468E+00  0.88000000000E+00 0.  1.
        -11    1    4    4    0    0 -0.77374263656E-01  0.42116391395E-01  0.24231931657E-01  0.91367470870E-01  0.51100000000E-03 0.  1.
         11    1    4    4    0    0 -0.33931132173E-01  0.23889268255E-01 -0.15023257669E-02  0.41527544739E-01  0.51100000000E-03 0. -1.
</event>
<event>
 8    1  0.1060404E+005  0.1043930E+01  0.7957747E-01            NaN
         13   -1    0    0    0    0  0.00000000000E+00  0.00000000000E+00  0.74505805969E-08  0.10566000000E+00  0.10566000000E+00 0. -1.
     999900   -1    0    0    0    0 -0.00000000000E+00 -0.00000000000E+00 -0.74505805969E-08  0.93827000000E+00  0.93827000000E+00 0. -1.
     999902    2    1    2    0    0  0.20721523959E-01 -0.45752857550E-03  0.11458619757E-01  0.10202468656E+01  0.10199719486E+01 0.  0.
     999903    2    3    3    0    0  0.10816021257E+00 -0.56325452530E-02 -0.74684853274E-01  0.13171267775E+00  0.63281136304E-02 0.  0.
         14    1    1    2    0    0 -0.20721523959E-01  0.45752857550E-03 -0.11458619757E-01  0.23683134385E-01  0.00000000000E+00 0.  1.
     999901    1    3    3    0    0 -0.87438688609E-01  0.51750166775E-02  0.86143473030E-01  0.88853418787E+00  0.88000000000E+00 0.  1.
        -11    1    4    4    0    0  0.32184589700E-01 -0.42640866356E-02 -0.23831781840E-01  0.40277105105E-01  0.51100000000E-03 0.  1.
         11    1    4    4    0    0  0.75975622868E-01 -0.13684586174E-02 -0.50853071434E-01  0.91435572643E-01  0.51100000000E-03 0. -1.
</event>
<event>
 8    1  0.1060404E+005  0.1043930E+01  0.7957747E-01            NaN
         13   -1    0    0    0    0  0.00000000000E+00  0.00000000000E+00  0.74505805969E-08  0.10566000000E+00  0.10566000000E+00 0.  1.
     999900   -1    0    0    0    0 -0.00000000000E+00 -0.00000000000E+00 -0.74505805969E-08  0.93827000000E+00  0.93827000000E+00 0. -1.
     999902    2    1    2    0    0 -0.23554566371E-02  0.83967667130E-02  0.20020625802E-01  0.10220924332E+01  0.10218591207E+01 0.  0.
     999903    2    3    3    0    0  0.41969161739E-01  0.11030986664E+00  0.60966423176E-01  0.13415802679E+00  0.18756177157E-01 0.  0.
         14    1    1    2    0    0  0.23554566371E-02 -0.83967667130E-02 -0.20020625802E-01  0.21837566822E-01  0.00000000000E+00 0. -1.
     999901    1    3    3    0    0 -0.44324618376E-01 -0.10191309993E+00 -0.40945797374E-01  0.88793440639E+00  0.88000000000E+00 0. -1.
        -11    1    4    4    0    0  0.52930497485E-02  0.24831116274E-01  0.20861367743E-01  0.32864243429E-01  0.51100000000E-03 0. -1.
         11    1    4    4    0    0  0.36676111990E-01  0.85478750365E-01  0.40105055433E-01  0.10129378336E+00  0.51100000000E-03 0.  1.
</event>
<event>
 8    1  0.1060404E+005  0.1043930E+01  0.7957747E-01            NaN
         13   -1    0    0    0    0  0.00000000000E+00  0.00000000000E+00  0.74505805969E-08  0.10566000000E+00  0.10566000000E+00 0.  1.
     999900   -1    0    0    0    0 -0.00000000000E+00 -0.00000000000E+00 -0.74505805969E-08  0.93827000000E+00  0.93827000000E+00 0. -1.
     999902    2    1    2    0    0  0.11061464407E-01  0.10882859433E-01 -0.17773246389E-01  0.10203359136E+01  0.10200630842E+01 0.  0.
     999903    2    3    3    0    0  0.86812997706E-01 -0.64806959311E-01 -0.73734404744E-01  0.13207981616E+00  0.16488688465E-01 0.  0.
         14    1    1    2    0    0 -0.11061464407E-01 -0.10882859433E-01  0.17773246389E-01  0.23594086367E-01  0.00000000000E+00 0.  1.
     999901    1    3    3    0    0 -0.75751533299E-01  0.75689818745E-01  0.55961158354E-01  0.88825609748E+00  0.88000000000E+00 0.  1.
        -11    1    4    4    0    0  0.51100960598E-01 -0.30744881490E-01 -0.47117750710E-01  0.76005917302E-01  0.51100000000E-03 0.  1.
         11    1    4    4    0    0  0.35712037108E-01 -0.34062077821E-01 -0.26616654034E-01  0.56073898855E-01  0.51100000000E-03 0. -1.
</event>
<event>
 8    1  0.1060404E+005  0.1043930E+01  0.7957747E-01            NaN
         13   -1    0    0    0    0  0.00000000000E+00  0.00000000000E+00  0.74505805969E-08  0.10566000000E+00  0.10566000000E+00 0.  1.
     999900   -1    0    0    0    0 -0.00000000000E+00 -0.00000000000E+00 -0.74505805969E-08  0.93827000000E+00  0.93827000000E+00 0.  1.
     999902    2    1    2    0    0  0.65938617711E-02 -0.20982278428E-01  0.10065006177E-01  0.10197424129E+01  0.10194555161E+01 0.  0.
     999903    2    3    3    0    0 -0.69134157811E-01  0.33193640097E-01  0.10377130488E+00  0.12988251744E+00  0.14820091197E-01 0.  0.
         14    1    1    2    0    0 -0.65938617711E-02  0.20982278428E-01 -0.10065006177E-01  0.24187587115E-01  0.00000000000E+00 0. -1.
     999901    1    3    3    0    0  0.75728019582E-01 -0.54175918525E-01 -0.93706298699E-01  0.88985989544E+00  0.88000000000E+00 0.  1.
        -11    1    4    4    0    0 -0.24649301350E-01  0.16885597599E-01  0.49662572058E-01  0.57959845132E-01  0.51100000000E-03 0. -1.
         11    1    4    4    0    0 -0.44484856461E-01  0.16308042498E-01  0.54108732818E-01  0.71922672313E-01  0.51100000000E-03 0.  1.
</event>
<event>
 8    1  0.1060404E+005  0.1043930E+01  0.7957747E-01            NaN
         13   -1    0    0    0    0  0.00000000000E+00  0.00000000000E+00  0.74505805969E-08  0.10566000000E+00  0.10566000000E+00 0.  1.
     999900   -1    0    0    0    0 -0.00000000000E+00 -0.00000000000E+00 -0.74505805969E-08  0.93827000000E+00  0.93827000000E+00 0. -1.
     999902    2    1    2    0    0  0.38683688012E-02  0.21797266273E-01 -0.11020091564E-01  0.10192009177E+01  0.10189008701E+01 0.  0.
     999903    2    3    3    0    0  0.37004608990E-01  0.12581175492E+00  0.22109819276E-02  0.13235702749E+00  0.17763882520E-01 0.  0.
         14    1    1    2    0    0 -0.38683688012E-02 -0.21797266273E-01  0.11020091564E-01  0.24729082317E-01  0.00000000000E+00 0.  1.
     999901    1    3    3    0    0 -0.33136240189E-01 -0.10401448865E+00 -0.13231073492E-01  0.88684389019E+00  0.88000000000E+00 0. -1.
        -11    1    4    4    0    0  0.14879321226E-01  0.80528904362E-01  0.30130719561E-02  0.81948998539E-01  0.51100000000E-03 0.  1.
         11    1    4    4    0    0  0.22125287764E-01  0.45282850561E-01 -0.80209002850E-03  0.50408028954E-01  0.51100000000E-03 0. -1.
</event>
<event>
 8    1  0.1060404E+005  0.1043930E+01  0.7957747E-01            NaN
         13   -1    0    0    0    0  0.00000000000E+00  0.00000000000E+00  0.74505805969E-08  0.10566000000E+00  0.10566000000E+00 0. -1.
     999900   -1    0    0    0    0 -0.00000000000E+00 -0.00000000000E+00 -0.74505805969E-08  0.93827000000E+00  0.93827000000E+00 0.  1.
     999902    2    1    2    0    0  0.20953173174E-01 -0.72031595633E-02 -0.72894566605E-02  0.10206049673E+01  0.10203383959E+01 0.  0.
     999903    2    3    3    0    0  0.55207481259E-01 -0.91328314140E-01 -0.77022511524E-01  0.13318561983E+00  0.20425843874E-01 0.  0.
         14    1    1    2    0    0 -0.20953173174E-01  0.72031595633E-02  0.72894566605E-02  0.23325032737E-01  0.00000000000E+00 0.  1.
     999901    1    3    3    0    0 -0.34254308084E-01  0.84125154577E-01  0.69733054864E-01  0.88741934743E+00  0.88000000000E+00 0. -1.
        -11    1    4    4    0    0  0.29654545472E-01 -0.67254455557E-01 -0.50411927146E-01  0.89130114883E-01  0.51100000000E-03 0.  1.
         11    1    4    4    0    0  0.25552935786E-01 -0.24073858583E-01 -0.26610584378E-01  0.44055504949E-01  0.51100000000E-03 0. -1.
</event>
<event>
 8    1  0.1060404E+005  0.1043930E+01  0.7957747E-01            NaN
         13   -1    0    0    0    0  0.00000000000E+00  0.00000000000E+00  0.74505805969E-08  0.10566000000E+00  0.10566000000E+00 0. -1.
     999900   -1    0    0    0    0 -0.00000000000E+00 -0.00000000000E+00 -0.74505805969E-08  0.93827000000E+00  0.93827000000E+00 0.  1.
     999902    2    1    2    0    0  0.17403860946E-01  0.89512835152E-02  0.43894074384E-02  0.10238729127E+01  0.10236764404E+01 0.  0.
     999903    2    3    3    0    0 -0.12194053220E+00 -0.22277932804E-03  0.46771753730E-01  0.13185425450E+00  0.18121933113E-01 0.  0.
         14    1    1    2    0    0 -0.17403860946E-01 -0.89512835152E-02 -0.43894074384E-02  0.20057087278E-01  0.00000000000E+00 0.  1.
     999901    1    3    3    0    0  0.13934439315E+00  0.91740628432E-02 -0.42382346291E-01  0.89201865822E+00  0.88000000000E+00 0.  1.
        -11    1    4    4    0    0 -0.56132574025E-01 -0.11447960671E-02  0.11989932466E-01  0.57412507577E-01  0.51100000000E-03 0. -1.
         11    1    4    4    0    0 -0.65807958177E-01  0.92201673909E-03  0.34781821264E-01  0.74441746928E-01  0.51100000000E-03 0.  1.
</event>
<event>
 8    1  0.1060404E+005  0.1043930E+01  0.7957747E-01            NaN
         13   -1    0    0    0    0  0.00000000000E+00  0.00000000000E+00  0.74505805969E-08  0.10566000000E+00  0.10566000000E+00 0. -1.
     999900   -1    0    0    0    0 -0.00000000000E+00 -0.00000000000E+00 -0.74505805969E-08  0.93827000000E+00  0.93827000000E+00 0.  1.
     999902    2    1    2    0    0  0.18670313321E-02  0.15106331417E-01 -0.18768500338E-01  0.10197650738E+01  0.10194787207E+01 0.  0.
     999903    2    3    3    0    0  0.21276656477E-01 -0.12438614251E+00 -0.14567163425E-01  0.12855660485E+00  0.19748160469E-01 0.  0.
         14    1    1    2    0    0 -0.18670313321E-02 -0.15106331417E-01  0.18768500338E-01  0.24164926232E-01  0.00000000000E+00 0. -1.
     999901    1    3    3    0    0 -0.19409625145E-01  0.13949247393E+00 -0.42013369127E-02  0.89120846891E+00  0.88000000000E+00 0. -1.
        -11    1    4    4    0    0  0.33891006567E-02 -0.33952788613E-01 -0.12512152241E-01  0.36346842126E-01  0.51100000000E-03 0. -1.
         11    1    4    4    0    0  0.17887555820E-01 -0.90433353898E-01 -0.20550111842E-02  0.92209762728E-01  0.51100000000E-03 0.  1.
</event>
<event>
 8    1  0.1060404E+005  0.1043930E+01  0.7957747E-01            NaN
         13   -1    0    0    0    0  0.00000000000E+00  0.00000000000E+00  0.74505805969E-08  0.10566000000E+00  0.10566000000E+00 0. -1.
     999900   -1    0    0    0    0 -0.00000000000E+00 -0.00000000000E+00 -0.74505805969E-08  0.93827000000E+00  0.93827000000E+00 0. -1.
     999902    2    1    2    0    0  0.18697944483E-01  0.10374495490E-01  0.90360985523E-02  0.10207159017E+01  0.10204518889E+01 0.  0.
     999903    2    3    3    0    0 -0.89652062872E-01 -0.44055133561E-01  0.80191454844E-01  0.12955632373E+00  0.19386191425E-01 0.  0.
         14    1    1    2    0    0 -0.18697944483E-01 -0.10374495490E-01 -0.90360985523E-02  0.23214098337E-01  0.00000000000E+00 0.  1.
     999901    1    3    3    0    0  0.10835000736E+00  0.54429629051E-01 -0.71155356292E-01  0.89115957793E+00  0.88000000000E+00 0. -1.
        -11    1    4    4    0    0 -0.66475613504E-01 -0.30566826378E-01  0.47342409439E-01  0.87148740197E-01  0.51100000000E-03 0.  1.
         11    1    4    4    0    0 -0.23176449369E-01 -0.13488307183E-01  0.32849045406E-01  0.42407583533E-01  0.51100000000E-03 0. -1.
</event>
<event>
 8    1  0.1060404E+005  0.1043930E+01  0.7957747E-01            NaN
         13   -1    0    0    0    0  0.00000000000E+00  0.00000000000E+00  0.74505805969E-08  0.10566000000E+00  0.10566000000E+00 0. -1.
     999900   -1    0    0    0    0 -0.00000000000E+00 -0.00000000000E+00 -0.74505805969E-08  0.93827000000E+00  0.93827000000E+00 0.  1.
     999902    2    1    2    0    0  0.20805246339E-01 -0.87317412654E-02 -0.88156402805E-02  0.10197056921E+01  0.10194179130E+01 0.  0.
     999903    2    3    3    0    0 -0.42161301795E-01  0.10498585728E+00  0.55985095483E-01  0.12780008398E+00  0.19973105697E-01 0.  0.
         14    1    1    2    0    0 -0.20805246339E-01  0.87317412654E-02  0.88156402805E-02  0.24224307922E-01  0.00000000000E+00 0.  1.
     999901    1    3    3    0    0  0.62966548134E-01 -0.11371759854E+00 -0.64800735763E-01  0.89190560810E+00  0.88000000000E+00 0.  1.
        -11    1    4    4    0    0 -0.57902054205E-02  0.35856030296E-01  0.12614736351E-01  0.38452231165E-01  0.51100000000E-03 0. -1.
         11    1    4    4    0    0 -0.36371096375E-01  0.69129826984E-01  0.43370359132E-01  0.89347852814E-01  0.51100000000E-03 0.  1.
</event>
<event>
 8    1  0.1060404E+005  0.1043930E+01  0.7957747E-01            NaN
         13   -1    0    0    0    0  0.00000000000E+00  0.00000000000E+00  0.74505805969E-08  0.10566000000E+00  0.10566000000E+00 0.  1.
     999900   -1    0    0    0    0 -0.00000000000E+00 -0.00000000000E+00 -0.74505805969E-08  0.93827000000E+00  0.93827000000E+00 0. -1.
     999902    2    1    2    0    0  0.97798004302E-02 -0.22787094412E-01  0.45618755683E-02  0.10187167718E+01  0.10184047104E+01 0.  0.
     999903    2    3    3    0    0 -0.77400583987E-01  0.45431229437E-01  0.88678586141E-01  0.12780163546E+00  0.20359748947E-01 0.  0.
         14    1    1    2    0    0 -0.97798004302E-02  0.22787094412E-01 -0.45618755683E-02  0.25213228213E-01  0.00000000000E+00 0.  1.
     999901    1    3    3    0    0  0.87180384417E-01 -0.68218323849E-01 -0.84116710573E-01  0.89091513633E+00  0.88000000000E+00 0.  1.
        -11    1    4    4    0    0 -0.18034518973E-01  0.22532894638E-02  0.12876835414E-01  0.22279928170E-01  0.51100000000E-03 0.  1.
         11    1    4    4    0    0 -0.59366065014E-01  0.43177939973E-01  0.75801750727E-01  0.10552170729E+00  0.51100000000E-03 0. -1.
</event>
<event>
 8    1  0.1060404E+005  0.1043930E+01  0.7957747E-01            NaN
         13   -1    0    0    0    0  0.00000000000E+00  0.00000000000E+00  0.74505805969E-08  0.10566000000E+00  0.10566000000E+00 0.  1.
     999900   -1    0    0    0    0 -0.00000000000E+00 -0.00000000000E+00 -0.74505805969E-08  0.93827000000E+00  0.93827000000E+00 0. -1.
     999902    2    1    2    0    0  0.18440313019E-01  0.13323963330E-01 -0.10809920960E-01  0.10187421550E+01  0.10184307296E+01 0.  0.
     999903    2    3    3    0    0  0.23376397791E-01 -0.28166054533E-02 -0.12723325017E+00  0.13091375130E+00  0.19892739634E-01 0.  0.
         14    1    1    2    0    0 -0.18440313019E-01 -0.13323963330E-01  0.10809920960E-01  0.25187844969E-01  0.00000000000E+00 0.  1.
     999901    1    3    3    0    0 -0.49360847716E-02  0.16140568783E-01  0.11642332921E+00  0.88782840373E+00  0.88000000000E+00 0.  1.
        -11    1    4    4    0    0  0.14744595084E-01 -0.38094376668E-03 -0.31790773807E-01  0.35049431130E-01  0.51100000000E-03 0. -1.
         11    1    4    4    0    0  0.86318027065E-02 -0.24356616867E-02 -0.95442476362E-01  0.95864320166E-01  0.51100000000E-03 0.  1.
</event>
<event>
 8    1  0.1060404E+005  0.1043930E+01  0.7957747E-01            NaN
         13   -1    0    0    0    0  0.00000000000E+00  0.00000000000E+00  0.74505805969E-08  0.10566000000E+00  0.10566000000E+00 0.  1.
     999900   -1    0    0    0    0 -0.00000000000E+00 -0.00000000000E+00 -0.74505805969E-08  0.93827000000E+00  0.93827000000E+00 0.  1.
     999902    2    1    2    0    0  0.19884643213E-01 -0.38643030744E-02  0.19173144682E-01  0.10160384000E+01  0.10156554972E+01 0.  0.
     999903    2    3    3    0    0  0.56227623251E-01  0.88894396524E-02 -0.11005833200E+00  0.12576639396E+00  0.21535590395E-01 0.  0.
         14    1    1    2    0    0 -0.19884643213E-01  0.38643030744E-02 -0.19173144682E-01  0.27891600007E-01  0.00000000000E+00 0. -1.
     999901    1    3    3    0    0 -0.36342980038E-01 -0.12753742727E-01  0.12923147669E+00  0.89027200603E+00  0.88000000000E+00 0. -1.
        -11    1    4    4    0    0  0.14385817314E-01  0.92234529987E-02 -0.47676627036E-01  0.50649241965E-01  0.51100000000E-03 0. -1.
         11    1    4    4    0    0  0.41841805937E-01 -0.33401334634E-03 -0.62381704966E-01  0.75117152000E-01  0.51100000000E-03 0.  1.
</event>
<event>
 8    1  0.1060404E+005  0.1043930E+01  0.7957747E-01            NaN
         13   -1    0    0    0    0  0.00000000000E+00  0.00000000000E+00  0.74505805969E-08  0.10566000000E+00  0.10566000000E+00 0.  1.
     999900   -1    0    0    0    0 -0.00000000000E+00 -0.00000000000E+00 -0.74505805969E-08  0.93827000000E+00  0.93827000000E+00 0.  1.
     999902    2    1    2    0    0  0.78721135167E-02 -0.20202928689E-01  0.85353275610E-02  0.10206280620E+01  0.10203620243E+01 0.  0.
     999903    2    3    3    0    0 -0.12470663757E+00  0.25663462636E-01 -0.10502734789E-01  0.12931257411E+00  0.20026872371E-01 0.  0.
         14    1    1    2    0    0 -0.78721135167E-02  0.20202928689E-01 -0.85353275610E-02  0.23301938018E-01  0.00000000000E+00 0. -1.
     999901    1    3    3    0    0  0.13257875109E+00 -0.45866391325E-01  0.19038062350E-01  0.89131548787E+00  0.88000000000E+00 0.  1.
        -11    1    4    4    0    0 -0.49092918824E-01  0.15847615030E-01  0.38121503308E-02  0.51730602084E-01  0.51100000000E-03 0. -1.
         11    1    4    4    0    0 -0.75613718748E-01  0.98158476063E-02 -0.14314885120E-01  0.77581972031E-01  0.51100000000E-03 0.  1.
</event>
<event>
 8    1  0.1060404E+005  0.1043930E+01  0.7957747E-01            NaN
         13   -1    0    0    0    0  0.00000000000E+00  0.00000000000E+00  0.74505805969E-08  0.10566000000E+00  0.10566000000E+00 0.  1.
     999900   -1    0    0    0    0 -0.00000000000E+00 -0.00000000000E+00 -0.74505805969E-08  0.93827000000E+00  0.93827000000E+00 0. -1.
     999902    2    1    2    0    0  0.12132552962E-01 -0.14746874492E-01  0.11369438265E-01  0.10217053903E+01  0.10214636417E+01 0.  0.
     999903    2    3    3    0    0  0.39164786073E-01 -0.12295542718E+00  0.30806424356E-01  0.13445253520E+00  0.21829587727E-01 0.  0.
         14    1    1    2    0    0 -0.12132552962E-01  0.14746874492E-01 -0.11369438265E-01  0.22224609673E-01  0.00000000000E+00 0.  1.
     999901    1    3    3    0    0 -0.27032233111E-01  0.10820855268E+00 -0.19436986091E-01  0.88725285513E+00  0.88000000000E+00 0.  1.
        -11    1    4    4    0    0  0.15593827443E-01 -0.25627574855E-01  0.13179116612E-01  0.32770265225E-01  0.51100000000E-03 0.  1.
         11    1    4    4    0    0  0.23570958630E-01 -0.97327852321E-01  0.17627307744E-01  0.10168226998E+00  0.51100000000E-03 0. -1.
</event>
<event>
 8    1  0.1060404E+005  0.1043930E+01  0.7957747E-01            NaN
         13   -1    0    0    0    0  0.00000000000E+00  0.00000000000E+00  0.74505805969E-08  0.10566000000E+00  0.10566000000E+00 0. -1.
     999900   -1    0    0    0    0 -0.00000000000E+00 -0.00000000000E+00 -0.74505805969E-08  0.93827000000E+00  0.93827000000E+00 0. -1.
     999902    2    1    2    0    0 -0.20508288921E-01 -0.26159380111E-02  0.11420671136E-01  0.10203108388E+01  0.10200374224E+01 0.  0.
     999903    2    3    3    0    0 -0.13097844050E+00  0.13889239966E-01  0.41370608450E-02  0.13322058057E+00  0.19553642922E-01 0.  0.
         14    1    1    2    0    0  0.20508288921E-01  0.26159380111E-02 -0.11420671136E-01  0.23619161191E-01  0.00000000000E+00 0.  1.
     999901    1    3    3    0    0  0.11047015158E+00 -0.16505177977E-01  0.72836102910E-02  0.88709025824E+00  0.88000000000E+00 0. -1.
        -11    1    4    4    0    0 -0.53046162068E-01  0.14858467865E-02 -0.69803384065E-02  0.53526528900E-01  0.51100000000E-03 0.  1.
         11    1    4    4    0    0 -0.77932278432E-01  0.12403393179E-01  0.11117399251E-01  0.79694051667E-01  0.51100000000E-03 0. -1.
</event>
<event>
 8    1  0.1060404E+005  0.1043930E+01  0.7957747E-01            NaN
         13   -1    0    0    0    0  0.00000000000E+00  0.00000000000E+00  0.74505805969E-08  0.10566000000E+00  0.10566000000E+00 0. -1.
     999900   -1    0    0    0    0 -0.00000000000E+00 -0.00000000000E+00 -0.74505805969E-08  0.93827000000E+00  0.93827000000E+00 0.  1.
     999902    2    1    2    0    0 -0.83825643956E-02 -0.21271548672E-01 -0.28597334942E-02  0.10208882066E+01  0.10206281429E+01 0.  0.
     999903    2    3    3    0    0  0.71132568945E-01 -0.40550614810E-01  0.10039756585E+00  0.13108125633E+00  0.19960706583E-01 0.  0.
         14    1    1    2    0    0  0.83825643956E-02  0.21271548672E-01  0.28597334942E-02  0.23041793429E-01  0.00000000000E+00 0. -1.
     999901    1    3    3    0    0 -0.79515133341E-01  0.19279066139E-01 -0.10325729935E+00  0.88980695024E+00  0.88000000000E+00 0.  1.
        -11    1    4    4    0    0  0.37930078029E-01 -0.31775925918E-01  0.65798717777E-01  0.82329415577E-01  0.51100000000E-03 0.  1.
         11    1    4    4    0    0  0.33202490916E-01 -0.87746888924E-02  0.34598848074E-01  0.48751840757E-01  0.51100000000E-03 0. -1.
</event>
<event>
 8    1  0.1145189E+005  0.1043930E+01  0.7957747E-01            NaN
         13   -1    0    0    0    0  0.00000000000E+00  0.00000000000E+00  0.74505805969E-08  0.10566000000E+00  0.10566000000E+00 0.  1.
     999900   -1    0    0    0    0 -0.00000000000E+00 -0.00000000000E+00 -0.74505805969E-08  0.93827000000E+00  0.93827000000E+00 0. -1.
     999902    2    1    2    0    0 -0.17763684316E-01 -0.10866781825E-01 -0.13370296703E-01  0.10191832778E+01  0.10188827967E+01 0.  0.
     999903    2    3    3    0    0 -0.69723658144E-01  0.72039321032E-01 -0.81447075837E-01  0.13114740651E+00  0.22692813662E-01 0.  0.
         14    1    1    2    0    0  0.17763684316E-01  0.10866781825E-01  0.13370296703E-01  0.24746722241E-01  0.00000000000E+00 0. -1.
     999901    1    3    3    0    0  0.51959973827E-01 -0.82906102858E-01  0.68076779134E-01  0.88803587125E+00  0.88000000000E+00 0.  1.
        -11    1    4    4    0    0 -0.53016488656E-01  0.40189354575E-01 -0.48081374182E-01  0.82085394284E-01  0.51100000000E-03 0.  1.
         11    1    4    4    0    0 -0.16707169488E-01  0.31849966457E-01 -0.33365701655E-01  0.49062012225E-01  0.51100000000E-03 0. -1.
</event>
<event>
 8    1  0.1060404E+005  0.1043930E+01  0.7957747E-01            NaN
         13   -1    0    0    0    0  0.00000000000E+00  0.00000000000E+00  0.74505805969E-08  0.10566000000E+00  0.10566000000E+00 0.  1.
     999900   -1    0    0    0    0 -0.00000000000E+00 -0.00000000000E+00 -0.74505805969E-08  0.93827000000E+00  0.93827000000E+00 0.  1.
     999902    2    1    2    0    0 -0.17894902372E-01 -0.13988592963E-01 -0.93289925604E-02  0.10193751967E+01  0.10190794146E+01 0.  0.
     999903    2    3    3    0    0 -0.79911895225E-01 -0.59068676937E-01  0.83269838202E-01  0.13120130333E+00  0.20122038828E-01 0.  0.
         14    1    1    2    0    0  0.17894902372E-01  0.13988592963E-01  0.93289925604E-02  0.24554803322E-01  0.00000000000E+00 0.  1.
     999901    1    3    3    0    0  0.62016992853E-01  0.45080083974E-01 -0.92598830762E-01  0.88817389335E+00  0.88000000000E+00 0.  1.
        -11    1    4    4    0    0 -0.39177350455E-01 -0.22144525390E-01  0.26772928550E-01  0.52366932482E-01  0.51100000000E-03 0. -1.
         11    1    4    4    0    0 -0.40734544770E-01 -0.36924151547E-01  0.56496909652E-01  0.78834370844E-01  0.51100000000E-03 0.  1.
</event>
<event>
 8    1  0.1060404E+005  0.1043930E+01  0.7957747E-01            NaN
         13   -1    0    0    0    0  0.00000000000E+00  0.00000000000E+00  0.74505805969E-08  0.10566000000E+00  0.10566000000E+00 0.  1.
     999900   -1    0    0    0    0 -0.00000000000E+00 -0.00000000000E+00 -0.74505805969E-08  0.93827000000E+00  0.93827000000E+00 0. -1.
     999902    2    1    2    0    0  0.10089228733E-01 -0.47264718983E-02 -0.22425773331E-01  0.10188890858E+01  0.10185813280E+01 0.  0.
     999903    2    3    3    0    0  0.12069442720E+00 -0.26595549028E-01  0.34350883291E-01  0.12988101207E+00  0.20362370438E-01 0.  0.
         14    1    1    2    0    0 -0.10089228733E-01  0.47264718983E-02  0.22425773331E-01  0.25040914171E-01  0.00000000000E+00 0.  1.
     999901    1    3    3    0    0 -0.11060519847E+00  0.21869077130E-01 -0.56776656623E-01  0.88900807375E+00  0.88000000000E+00 0.  1.
        -11    1    4    4    0    0  0.86101733012E-01 -0.22998359343E-01  0.15974492368E-01  0.90542136531E-01  0.51100000000E-03 0. -1.
         11    1    4    4    0    0  0.34592694186E-01 -0.35971896847E-02  0.18376390924E-01  0.39338875544E-01  0.51100000000E-03 0.  1.
</event>
<event>
 7    1  0.1060404E+005  0.1043930E+01  0.7957747E-01            NaN
         13   -1    0    0    0    0  0.00000000000E+00  0.00000000000E+00  0.74505805969E-08  0.10566000000E+00  0.10566000000E+00 0.  1.
     999900   -1    0    0    0    0 -0.00000000000E+00 -0.00000000000E+00 -0.74505805969E-08  0.93827000000E+00  0.93827000000E+00 0. -1.
     999903    2    1    2    0    0 -0.16432888597E-01  0.40461279146E-01  0.10724118499E+00  0.11754328572E+00  0.20213790406E-01 0.  0.
         14    1    1    2    0    0 -0.25539185937E-01 -0.21665504112E-01 -0.24123594442E-01  0.41274591404E-01  0.00000000000E+00 0. -1.
     999901    1    1    2    0    0  0.41972074534E-01 -0.18795775034E-01 -0.83117590548E-01  0.88511212287E+00  0.88000000000E+00 0. -1.
        -11    1    3    3    0    0 -0.16345826702E-01  0.14341210638E-01  0.54679685265E-01  0.58847136505E-01  0.51100000000E-03 0.  1.
         11    1    3    3    0    0 -0.87061894699E-04  0.26120068508E-01  0.52561499725E-01  0.58696149217E-01  0.51100000000E-03 0. -1.
</event>
<event>
 8    1  0.1060404E+005  0.1043930E+01  0.7957747E-01            NaN
         13   -1    0    0    0    0  0.00000000000E+00  0.00000000000E+00  0.74505805969E-08  0.10566000000E+00  0.10566000000E+00 0.  1.
     999900   -1    0    0    0    0 -0.00000000000E+00 -0.00000000000E+00 -0.74505805969E-08  0.93827000000E+00  0.93827000000E+00 0.  1.
     999902    2    1    2    0    0 -0.36153678473E-02 -0.23200898371E-01 -0.53135494707E-02  0.10198553997E+01  0.10195712089E+01 0.  0.
     999903    2    3    3    0    0  0.59266527799E-01  0.11120477444E+00  0.17078895564E-02  0.12740466256E+00  0.18708500188E-01 0.  0.
         14    1    1    2    0    0  0.36153678473E-02  0.23200898371E-01  0.53135494707E-02  0.24074600264E-01  0.00000000000E+00 0. -1.
     999901    1    3    3    0    0 -0.62881895646E-01 -0.13440567281E+00 -0.70214390271E-02  0.89245073718E+00  0.88000000000E+00 0.  1.
        -11    1    4    4    0    0  0.29634438595E-01  0.73274558076E-01 -0.25351947792E-02  0.79082546403E-01  0.51100000000E-03 0.  1.
         11    1    4    4    0    0  0.29632089204E-01  0.37930216363E-01  0.42430843356E-02  0.48322116154E-01  0.51100000000E-03 0. -1.
</event>
<event>
 8    1  0.1060404E+005  0.1043930E+01  0.7957747E-01            NaN
         13   -1    0    0    0    0  0.00000000000E+00  0.00000000000E+00  0.74505805969E-08  0.10566000000E+00  0.10566000000E+00 0.  1.
     999900   -1    0    0    0    0 -0.00000000000E+00 -0.00000000000E+00 -0.74505805969E-08  0.93827000000E+00  0.93827000000E+00 0. -1.
     999902    2    1    2    0    0 -0.87909398688E-02  0.12091133025E-01 -0.18046895130E-01  0.10204956972E+01  0.10202265932E+01 0.  0.
     999903    2    3    3    0    0 -0.11585755338E+00 -0.57780387359E-01 -0.17900496038E-02  0.13110850704E+00  0.20608020314E-01 0.  0.
         14    1    1    2    0    0  0.87909398688E-02 -0.12091133025E-01  0.18046895130E-01  0.23434302751E-01  0.00000000000E+00 0.  1.
     999901    1    3    3    0    0  0.10706661351E+00  0.69871520384E-01 -0.16256845526E-01  0.88938719021E+00  0.88000000000E+00 0. -1.
        -11    1    4    4    0    0 -0.39321119968E-01 -0.23500123812E-01 -0.98486415250E-02  0.46857903876E-01  0.51100000000E-03 0.  1.
         11    1    4    4    0    0 -0.76536433410E-01 -0.34280263547E-01  0.80585919211E-02  0.84250603160E-01  0.51100000000E-03 0. -1.
</event>
<event>
 8    1  0.1060404E+005  0.1043930E+01  0.7957747E-01            NaN
         13   -1    0    0    0    0  0.00000000000E+00  0.00000000000E+00  0.74505805969E-08  0.10566000000E+00  0.10566000000E+00 0. -1.
     999900   -1    0    0    0    0 -0.00000000000E+00 -0.00000000000E+00 -0.74505805969E-08  0.93827000000E+00  0.93827000000E+00 0.  1.
     999902    2    1    2    0    0  0.12383881802E-01 -0.17218810299E-01  0.68821018184E-02  0.10216317650E+01  0.10213883943E+01 0.  0.
     999903    2    3    3    0    0 -0.11859347272E-01  0.84470527775E-01 -0.95431585635E-01  0.12955747090E+00  0.20050849089E-01 0.  0.
         14    1    1    2    0    0 -0.12383881802E-01  0.17218810299E-01 -0.68821018184E-02  0.22298234954E-01  0.00000000000E+00 0.  1.
     999901    1    3    3    0    0  0.24243229075E-01 -0.10168933807E+00  0.10231368745E+00  0.89207429414E+00  0.88000000000E+00 0. -1.
        -11    1    4    4    0    0 -0.26045130651E-02  0.64120261134E-01 -0.61263804666E-01  0.88722636680E-01  0.51100000000E-03 0. -1.
         11    1    4    4    0    0 -0.92548342073E-02  0.20350266641E-01 -0.34167780969E-01  0.40834834222E-01  0.51100000000E-03 0.  1.
</event>
<event>
 8    1  0.1060404E+005  0.1043930E+01  0.7957747E-01            NaN
         13   -1    0    0    0    0  0.00000000000E+00  0.00000000000E+00  0.74505805969E-08  0.10566000000E+00  0.10566000000E+00 0. -1.
     999900   -1    0    0    0    0 -0.00000000000E+00 -0.00000000000E+00 -0.74505805969E-08  0.93827000000E+00  0.93827000000E+00 0. -1.
     999902    2    1    2    0    0  0.62629903464E-02 -0.18851933208E-01  0.14222502391E-01  0.10194984628E+01  0.10192056788E+01 0.  0.
     999903    2    3    3    0    0  0.22846384127E-01  0.12365411647E+00  0.13523259459E-01  0.12788000628E+00  0.18924050070E-01 0.  0.
         14    1    1    2    0    0 -0.62629903464E-02  0.18851933208E-01 -0.14222502391E-01  0.24431537160E-01  0.00000000000E+00 0.  1.
     999901    1    3    3    0    0 -0.16583393781E-01 -0.14250604968E+00  0.69924293155E-03  0.89161845656E+00  0.88000000000E+00 0. -1.
        -11    1    4    4    0    0  0.19427500747E-01  0.63739919525E-01  0.12838214322E-01  0.67862257509E-01  0.51100000000E-03 0. -1.
         11    1    4    4    0    0  0.34188833805E-02  0.59914196945E-01  0.68504513755E-03  0.60017748766E-01  0.51100000000E-03 0.  1.
</event>
<event>
 8    1  0.1060404E+005  0.1043930E+01  0.7957747E-01            NaN
         13   -1    0    0    0    0  0.00000000000E+00  0.00000000000E+00  0.74505805969E-08  0.10566000000E+00  0.10566000000E+00 0. -1.
     999900   -1    0    0    0    0 -0.00000000000E+00 -0.00000000000E+00 -0.74505805969E-08  0.93827000000E+00  0.93827000000E+00 0.  1.
     999902    2    1    2    0    0  0.12275980846E-01 -0.53984156337E-02 -0.20108917123E-01  0.10197595398E+01  0.10194730540E+01 0.  0.
     999903    2    3    3    0    0  0.33489351615E-01  0.12380492741E+00 -0.60015817608E-02  0.12996038953E+00  0.20111865704E-01 0.  0.
         14    1    1    2    0    0 -0.12275980846E-01  0.53984156337E-02  0.20108917123E-01  0.24170460172E-01  0.00000000000E+00 0. -1.
     999901    1    3    3    0    0 -0.21213370769E-01 -0.12920334304E+00 -0.14107335362E-01  0.88979915029E+00  0.88000000000E+00 0. -1.
        -11    1    4    4    0    0  0.17494536706E-01  0.67402422530E-01 -0.13244152188E-01  0.70885922902E-01  0.51100000000E-03 0. -1.
         11    1    4    4    0    0  0.15994814909E-01  0.56402504878E-01  0.72425704267E-02  0.59074466632E-01  0.51100000000E-03 0.  1.
</event>
<event>
 8    1  0.1060404E+005  0.1043930E+01  0.7957747E-01            NaN
         13   -1    0    0    0    0  0.00000000000E+00  0.00000000000E+00  0.74505805969E-08  0.10566000000E+00  0.10566000000E+00 0.  1.
     999900   -1    0    0    0    0 -0.00000000000E+00 -0.00000000000E+00 -0.74505805969E-08  0.93827000000E+00  0.93827000000E+00 0.  1.
     999902    2    1    2    0    0  0.17343357858E-01  0.14301290689E-01 -0.55510966098E-02  0.10207754400E+01  0.10205127952E+01 0.  0.
     999903    2    3    3    0    0  0.76946794088E-01  0.10359411395E+00 -0.29671447980E-01  0.13392282016E+00  0.20059346176E-01 0.  0.
         14    1    1    2    0    0 -0.17343357858E-01 -0.14301290689E-01  0.55510966098E-02  0.23154560042E-01  0.00000000000E+00 0.  1.
     999901    1    3    3    0    0 -0.59603436230E-01 -0.89292823258E-01  0.24120351370E-01  0.88685261980E+00  0.88000000000E+00 0. -1.
        -11    1    4    4    0    0  0.28619719266E-01  0.35806909070E-01 -0.93676866413E-03  0.45851518236E-01  0.51100000000E-03 0. -1.
         11    1    4    4    0    0  0.48327074822E-01  0.67787204877E-01 -0.28734679316E-01  0.88071301922E-01  0.51100000000E-03 0.  1.
</event>
<event>
 8    1  0.1060404E+005  0.1043930E+01  0.7957747E-01            NaN
         13   -1    0    0    0    0  0.00000000000E+00  0.00000000000E+00  0.74505805969E-08  0.10566000000E+00  0.10566000000E+00 0. -1.
     999900   -1    0    0    0    0 -0.00000000000E+00 -0.00000000000E+00 -0.74505805969E-08  0.93827000000E+00  0.93827000000E+00 0.  1.
     999902    2    1    2    0    0 -0.24053445184E-01  0.73007200066E-02 -0.44915881823E-02  0.10183948653E+01  0.10180746823E+01 0.  0.
     999903    2    3    3    0    0  0.12396197357E-01 -0.12201067190E+00 -0.30550557694E-01  0.12781691681E+00  0.19067193827E-01 0.  0.
         14    1    1    2    0    0  0.24053445184E-01 -0.73007200066E-02  0.44915881823E-02  0.25535134663E-01  0.00000000000E+00 0. -1.
     999901    1    3    3    0    0 -0.36449642542E-01  0.12931139190E+00  0.26058969512E-01  0.89057794853E+00  0.88000000000E+00 0.  1.
        -11    1    4    4    0    0  0.77560681388E-02 -0.30375435018E-01 -0.81492515097E-03  0.31364771153E-01  0.51100000000E-03 0. -1.
         11    1    4    4    0    0  0.46401292186E-02 -0.91635236880E-01 -0.29735632543E-01  0.96452145653E-01  0.51100000000E-03 0.  1.
</event>
<event>
 8    1  0.1060404E+005  0.1043930E+01  0.7957747E-01            NaN
         13   -1    0    0    0    0  0.00000000000E+00  0.00000000000E+00  0.74505805969E-08  0.10566000000E+00  0.10566000000E+00 0. -1.
     999900   -1    0    0    0    0 -0.00000000000E+00 -0.00000000000E+00 -0.74505805969E-08  0.93827000000E+00  0.93827000000E+00 0. -1.
     999902    2    1    2    0    0 -0.53963670167E-02 -0.11627620892E-01 -0.20123651315E-01  0.10200703335E+01  0.10197912539E+01 0.  0.
     999903    2    3    3    0    0  0.63607625905E-02 -0.85950524107E-01 -0.99507337676E-01  0.13329872043E+00  0.20949623426E-01 0.  0.
         14    1    1    2    0    0  0.53963670167E-02  0.11627620892E-01  0.20123651315E-01  0.23859666528E-01  0.00000000000E+00 0.  1.
     999901    1    3    3    0    0 -0.11757129607E-01  0.74322903215E-01  0.79383686362E-01  0.88677161304E+00  0.88000000000E+00 0.  1.
        -11    1    4    4    0    0  0.13629268689E-01 -0.51407472810E-01 -0.55314475523E-01  0.76736155423E-01  0.51100000000E-03 0. -1.
         11    1    4    4    0    0 -0.72685060986E-02 -0.34543051297E-01 -0.44192862154E-01  0.56562565007E-01  0.51100000000E-03 0.  1.
</event>
<event>
 8    1  0.1060404E+005  0.1043930E+01  0.7957747E-01            NaN
         13   -1    0    0    0    0  0.00000000000E+00  0.00000000000E+00  0.74505805969E-08  0.10566000000E+00  0.10566000000E+00 0. -1.
     999900   -1    0    0    0    0 -0.00000000000E+00 -0.00000000000E+00 -0.74505805969E-08  0.93827000000E+00  0.93827000000E+00 0.  1.
     999902    2    1    2    0    0 -0.42392671048E-02  0.21711711787E-01  0.53505556828E-03  0.10218018257E+01  0.10215621933E+01 0.  0.
     999903    2    3    3    0    0 -0.28595299498E-01  0.10388850425E+00  0.77546581765E-01  0.13429012621E+00  0.20244831071E-01 0.  0.
         14    1    1    2    0    0  0.42392671048E-02 -0.21711711787E-01 -0.53505556828E-03  0.22128174321E-01  0.00000000000E+00 0.  1.
     999901    1    3    3    0    0  0.24356032393E-01 -0.82176792461E-01 -0.77011526196E-01  0.88751169947E+00  0.88000000000E+00 0. -1.
        -11    1    4    4    0    0 -0.14312558524E-01  0.73953488467E-01  0.44618603118E-01  0.87550263582E-01  0.51100000000E-03 0. -1.
         11    1    4    4    0    0 -0.14282740973E-01  0.29935015780E-01  0.32927978646E-01  0.46739862625E-01  0.51100000000E-03 0.  1.
</event>
<event>
 8    1  0.1060404E+005  0.1043930E+01  0.7957747E-01            NaN
         13   -1    0    0    0    0  0.00000000000E+00  0.00000000000E+00  0.74505805969E-08  0.10566000000E+00  0.10566000000E+00 0. -1.
     999900   -1    0    0    0    0 -0.00000000000E+00 -0.00000000000E+00 -0.74505805969E-08  0.93827000000E+00  0.93827000000E+00 0. -1.
     999902    2    1    2    0    0  0.14688293932E-01 -0.16791919325E-01 -0.91563707536E-02  0.10198145763E+01  0.10195294093E+01 0.  0.
     999903    2    3    3    0    0  0.10946683928E+00  0.67962214514E-01 -0.79833852456E-02  0.13067588538E+00  0.20263293814E-01 0.  0.
         14    1    1    2    0    0 -0.14688293932E-01  0.16791919325E-01  0.91563707536E-02  0.24115423667E-01  0.00000000000E+00 0. -1.
     999901    1    3    3    0    0 -0.94778545344E-01 -0.84754133839E-01 -0.11729855080E-02  0.88913869096E+00  0.88000000000E+00 0.  1.
        -11    1    4    4    0    0  0.71865388220E-01  0.53559998860E-01 -0.33819415065E-04  0.89630183346E-01  0.51100000000E-03 0. -1.
         11    1    4    4    0    0  0.37601451057E-01  0.14402215654E-01 -0.79495658305E-02  0.41045702031E-01  0.51100000000E-03 0.  1.
</event>
<event>
 8    1  0.1060404E+005  0.1043930E+01  0.7957747E-01            NaN
         13   -1    0    0    0    0  0.00000000000E+00  0.00000000000E+00  0.74505805969E-08  0.10566000000E+00  0.10566000000E+00 0.  1.
     999900   -1    0    0    0    0 -0.00000000000E+00 -0.00000000000E+00 -0.74505805969E-08  0.93827000000E+00  0.93827000000E+00 0.  1.
     999902    2    1    2    0    0 -0.19619397001E-01  0.13573134171E-01  0.22000316976E-02  0.10199718939E+01  0.10196904792E+01 0.  0.
     999903    2    3    3    0    0 -0.61158829770E-01 -0.69181111275E-01 -0.89778611627E-01  0.13034620829E+00  0.20087466094E-01 0.  0.
         14    1    1    2    0    0  0.19619397001E-01 -0.13573134171E-01 -0.22000316976E-02  0.23958106130E-01  0.00000000000E+00 0.  1.
     999901    1    3    3    0    0  0.41539432769E-01  0.82754245445E-01  0.91978643325E-01  0.88962568558E+00  0.88000000000E+00 0.  1.
        -11    1    4    4    0    0 -0.33545709039E-01 -0.24998750390E-01 -0.33029250683E-01  0.53305202726E-01  0.51100000000E-03 0.  1.
         11    1    4    4    0    0 -0.27613120730E-01 -0.44182360885E-01 -0.56749360944E-01  0.77041005565E-01  0.51100000000E-03 0. -1.
</event>
<event>
 8    1  0.1060404E+005  0.1043930E+01  0.7957747E-01            NaN
         13   -1    0    0    0    0  0.00000000000E+00  0.00000000000E+00  0.74505805969E-08  0.10566000000E+00  0.10566000000E+00 0. -1.
     999900   -1    0    0    0    0 -0.00000000000E+00 -0.00000000000E+00 -0.74505805969E-08  0.93827000000E+00  0.93827000000E+00 0. -1.
     999902    2    1    2    0    0 -0.18726301568E-01 -0.12848701884E-01  0.75662565030E-02  0.10199923362E+01  0.10197114073E+01 0.  0.
     999903    2    3    3    0    0  0.12341146127E+00  0.85403112347E-02 -0.24667630969E-01  0.12774816726E+00  0.20193477514E-01 0.  0.
         14    1    1    2    0    0  0.18726301568E-01  0.12848701884E-01 -0.75662565030E-02  0.23937663795E-01  0.00000000000E+00 0. -1.
     999901    1    3    3    0    0 -0.14213776283E+00 -0.21389013118E-01  0.32233887472E-01  0.89224416894E+00  0.88000000000E+00 0.  1.
        -11    1    4    4    0    0  0.58940253784E-01  0.14018072345E-01 -0.10090927374E-01  0.61421069713E-01  0.51100000000E-03 0. -1.
         11    1    4    4    0    0  0.64471207482E-01 -0.54777611107E-02 -0.14576703595E-01  0.66327097552E-01  0.51100000000E-03 0.  1.
</event>
<event>
 8    1  0.1060404E+005  0.1043930E+01  0.7957747E-01            NaN
         13   -1    0    0    0    0  0.00000000000E+00  0.00000000000E+00  0.74505805969E-08  0.10566000000E+00  0.10566000000E+00 0. -1.
     999900   -1    0    0    0    0 -0.00000000000E+00 -0.00000000000E+00 -0.74505805969E-08  0.93827000000E+00  0.93827000000E+00 0. -1.
     999902    2    1    2    0    0 -0.74325169771E-03 -0.11442480961E-01 -0.22754013504E-01  0.10184500486E+01  0.10181312654E+01 0.  0.
     999903    2    3    3    0    0  0.54148554152E-01 -0.10706368740E+00  0.42396898809E-01  0.12918002950E+00  0.22254975101E-01 0.  0.
         14    1    1    2    0    0  0.74325169771E-03  0.11442480961E-01  0.22754013504E-01  0.25479951417E-01  0.00000000000E+00 0. -1.
     999901    1    3    3    0    0 -0.54891805850E-01  0.95621206435E-01 -0.65150912314E-01  0.88927001909E+00  0.88000000000E+00 0. -1.
        -11    1    4    4    0    0  0.42074842263E-01 -0.79239635673E-01  0.41447904677E-01  0.98830168149E-01  0.51100000000E-03 0. -1.
         11    1    4    4    0    0  0.12073711890E-01 -0.27824051723E-01  0.94899413198E-03  0.30349861349E-01  0.51100000000E-03 0.  1.
</event>
<event>
 8    1  0.1060404E+005  0.1043930E+01  0.7957747E-01            NaN
         13   -1    0    0    0    0  0.00000000000E+00  0.00000000000E+00  0.74505805969E-08  0.10566000000E+00  0.10566000000E+00 0. -1.
     999900   -1    0    0    0    0 -0.00000000000E+00 -0.00000000000E+00 -0.74505805969E-08  0.93827000000E+00  0.93827000000E+00 0. -1.
     999902    2    1    2    0    0 -0.22436266233E-01 -0.18141002720E-02 -0.66960805456E-02  0.10204456542E+01  0.10201753862E+01 0.  0.
     999903    2    3    3    0    0 -0.59370669677E-01 -0.82265579354E-01 -0.83254459609E-01  0.13269694199E+00  0.19613041717E-01 0.  0.
         14    1    1    2    0    0  0.22436266233E-01  0.18141002720E-02  0.66960805456E-02  0.23484345785E-01  0.00000000000E+00 0. -1.
     999901    1    3    3    0    0  0.36934403444E-01  0.80451479082E-01  0.76558379064E-01  0.88774871222E+00  0.88000000000E+00 0. -1.
        -11    1    4    4    0    0 -0.50466491431E-01 -0.55261499220E-01 -0.58429564112E-01  0.94947222901E-01  0.51100000000E-03 0. -1.
         11    1    4    4    0    0 -0.89041782468E-02 -0.27004080134E-01 -0.24824895498E-01  0.37749719093E-01  0.51100000000E-03 0.  1.
</event>
<event>
 8    1  0.1060404E+005  0.1043930E+01  0.7957747E-01            NaN
         13   -1    0    0    0    0  0.00000000000E+00  0.00000000000E+00  0.74505805969E-08  0.10566000000E+00  0.10566000000E+00 0.  1.
     999900   -1    0    0    0    0 -0.00000000000E+00 -0.00000000000E+00 -0.74505805969E-08  0.93827000000E+00  0.93827000000E+00 0.  1.
     999902    2    1    2    0    0  0.11551943818E-01  0.10358040481E-01 -0.15725125786E-01  0.10218389161E+01  0.10216000951E+01 0.  0.
     999903    2    3    3    0    0  0.87290995262E-01 -0.28197198636E-01 -0.96049910529E-01  0.13410304238E+00  0.18526758983E-01 0.  0.
         14    1    1    2    0    0 -0.11551943818E-01 -0.10358040481E-01  0.15725125786E-01  0.22091083938E-01  0.00000000000E+00 0.  1.
     999901    1    3    3    0    0 -0.75739051444E-01  0.38555239117E-01  0.80324784743E-01  0.88773587368E+00  0.88000000000E+00 0. -1.
        -11    1    4    4    0    0  0.31842226398E-01 -0.11584079618E-02 -0.34188307986E-01  0.46737252967E-01  0.51100000000E-03 0.  1.
         11    1    4    4    0    0  0.55448768863E-01 -0.27038790674E-01 -0.61861602543E-01  0.87365789413E-01  0.51100000000E-03 0. -1.
</event>
<event>
 8    1  0.1060404E+005  0.1043930E+01  0.7957747E-01            NaN
         13   -1    0    0    0    0  0.00000000000E+00  0.00000000000E+00  0.74505805969E-08  0.10566000000E+00  0.10566000000E+00 0.  1.
     999900   -1    0    0    0    0 -0.00000000000E+00 -0.00000000000E+00 -0.74505805969E-08  0.93827000000E+00  0.93827000000E+00 0.  1.
     999902    2    1    2    0    0  0.15211574374E-01  0.15057899071E-01  0.67467417081E-02  0.10214878334E+01  0.10212412755E+01 0.  0.
     999903    2    3    3    0    0 -0.30660662899E-01  0.98504095470E-01 -0.79948414617E-01  0.13211525679E+00  0.20483139471E-01 0.  0.
         14    1    1    2    0    0 -0.15211574374E-01 -0.15057899071E-01 -0.67467417081E-02  0.22442166630E-01  0.00000000000E+00 0.  1.
     999901    1    3    3    0    0  0.45872237273E-01 -0.83446196399E-01  0.86695156325E-01  0.88937257658E+00  0.88000000000E+00 0. -1.
        -11    1    4    4    0    0 -0.28607033196E-01  0.81388852690E-01 -0.56967186372E-01  0.10338292477E+00  0.51100000000E-03 0.  1.
         11    1    4    4    0    0 -0.20536297030E-02  0.17115242780E-01 -0.22981228245E-01  0.28732332015E-01  0.51100000000E-03 0. -1.
</event>
<event>
 8    1  0.1060404E+005  0.1043930E+01  0.7957747E-01            NaN
         13   -1    0    0    0    0  0.00000000000E+00  0.00000000000E+00  0.74505805969E-08  0.10566000000E+00  0.10566000000E+00 0.  1.
     999900   -1    0    0    0    0 -0.00000000000E+00 -0.00000000000E+00 -0.74505805969E-08  0.93827000000E+00  0.93827000000E+00 0.  1.
     999902    2    1    2    0    0  0.75053325349E-02 -0.92204729660E-02 -0.19911368007E-01  0.10207392753E+01  0.10204758000E+01 0.  0.
     999903    2    3    3    0    0  0.62857704840E-01 -0.10415869895E+00  0.45667641718E-01  0.13148241788E+00  0.20049116865E-01 0.  0.
         14    1    1    2    0    0 -0.75053325349E-02  0.92204729660E-02  0.19911368007E-01  0.23190724742E-01  0.00000000000E+00 0.  1.
     999901    1    3    3    0    0 -0.55352372305E-01  0.94938225985E-01 -0.65579009724E-01  0.88925685738E+00  0.88000000000E+00 0.  1.
        -11    1    4    4    0    0  0.44847897696E-01 -0.64780656015E-01  0.38108053763E-01  0.87523438027E-01  0.51100000000E-03 0. -1.
         11    1    4    4    0    0  0.18009807144E-01 -0.39378042936E-01  0.75595879550E-02  0.43958979855E-01  0.51100000000E-03 0.  1.
</event>
<event>
 8    1  0.1060404E+005  0.1043930E+01  0.7957747E-01            NaN
         13   -1    0    0    0    0  0.00000000000E+00  0.00000000000E+00  0.74505805969E-08  0.10566000000E+00  0.10566000000E+00 0. -1.
     999900   -1    0    0    0    0 -0.00000000000E+00 -0.00000000000E+00 -0.74505805969E-08  0.93827000000E+00  0.93827000000E+00 0. -1.
     999902    2    1    2    0    0  0.37478841105E-03 -0.23762329832E-01  0.14193603384E-02  0.10201223674E+01  0.10198445181E+01 0.  0.
     999903    2    3    3    0    0  0.93117958884E-01  0.84276222484E-01  0.17739427431E-01  0.12852830673E+00  0.20770228781E-01 0.  0.
         14    1    1    2    0    0 -0.37478841105E-03  0.23762329832E-01 -0.14193603384E-02  0.23807632582E-01  0.00000000000E+00 0.  1.
     999901    1    3    3    0    0 -0.92743170473E-01 -0.10803855232E+00 -0.16320067092E-01  0.89159406068E+00  0.88000000000E+00 0. -1.
        -11    1    4    4    0    0  0.10261530163E-02  0.65649611470E-02 -0.37366926759E-03  0.66747625123E-02  0.51100000000E-03 0.  1.
         11    1    4    4    0    0  0.92091805867E-01  0.77711261337E-01  0.18113096698E-01  0.12185354422E+00  0.51100000000E-03 0. -1.
</event>
<event>
 8    1  0.1060404E+005  0.1043930E+01  0.7957747E-01            NaN
         13   -1    0    0    0    0  0.00000000000E+00  0.00000000000E+00  0.74505805969E-08  0.10566000000E+00  0.10566000000E+00 0. -1.
     999900   -1    0    0    0    0 -0.00000000000E+00 -0.00000000000E+00 -0.74505805969E-08  0.93827000000E+00  0.93827000000E+00 0. -1.
     999902    2    1    2    0    0 -0.67021548049E-03 -0.52227811698E-02 -0.31628915600E-01  0.10118657686E+01  0.10113576117E+01 0.  0.
     999903    2    3    3    0    0  0.49541350420E-01 -0.93915226810E-01  0.55909934170E-01  0.12166882329E+00  0.20074027819E-01 0.  0.
         14    1    1    2    0    0  0.67021548049E-03  0.52227811698E-02  0.31628915600E-01  0.32064231380E-01  0.00000000000E+00 0. -1.
     999901    1    3    3    0    0 -0.50211565900E-01  0.88692445640E-01 -0.87538849769E-01  0.89019694533E+00  0.88000000000E+00 0. -1.
        -11    1    4    4    0    0  0.22812933372E-01 -0.60453855947E-01  0.39911334645E-01  0.75949156559E-01  0.51100000000E-03 0.  1.
         11    1    4    4    0    0  0.26728417048E-01 -0.33461370863E-01  0.15998599525E-01  0.45719666727E-01  0.51100000000E-03 0. -1.
</event>
<event>
 7    1  0.1060404E+005  0.1043930E+01  0.7957747E-01            NaN
         13   -1    0    0    0    0  0.00000000000E+00  0.00000000000E+00  0.74505805969E-08  0.10566000000E+00  0.10566000000E+00 0. -1.
     999900   -1    0    0    0    0 -0.00000000000E+00 -0.00000000000E+00 -0.74505805969E-08  0.93827000000E+00  0.93827000000E+00 0. -1.
     999902    2    1    2    0    0  0.13158245775E-01 -0.20354867137E-01  0.43391061405E-02  0.10193070861E+01  0.10190096407E+01 0.  0.
         14    1    1    2    0    0 -0.13158245775E-01  0.20354867137E-01 -0.43391061405E-02  0.24622913925E-01  0.00000000000E+00 0.  1.
     999901    1    3    3    0    0 -0.83793048161E-01  0.15970764315E-01  0.75628881683E-01  0.88735340647E+00  0.88000000000E+00 0. -1.
        -11    1    3    3    0    0  0.41792722707E-01 -0.14407272681E-01 -0.54682451523E-01  0.70318083044E-01  0.51100000000E-03 0. -1.
         11    1    3    3    0    0  0.55158571228E-01 -0.21918358771E-01 -0.16607324020E-01  0.61635596560E-01  0.51100000000E-03 0.  1.
</event>
<event>
 8    1  0.1060404E+005  0.1043930E+01  0.7957747E-01            NaN
         13   -1    0    0    0    0  0.00000000000E+00  0.00000000000E+00  0.74505805969E-08  0.10566000000E+00  0.10566000000E+00 0.  1.
     999900   -1    0    0    0    0 -0.00000000000E+00 -0.00000000000E+00 -0.74505805969E-08  0.93827000000E+00  0.93827000000E+00 0. -1.
     999902    2    1    2    0    0 -0.46031434113E-02 -0.20956881509E-02  0.23404785485E-01  0.10199849625E+01  0.10197038584E+01 0.  0.
     999903    2    3    3    0    0 -0.93583983040E-01 -0.17932579072E-01 -0.84025138565E-01  0.12885669702E+00  0.21547277807E-01 0.  0.
         14    1    1    2    0    0  0.46031434113E-02  0.20956881509E-02 -0.23404785485E-01  0.23945037517E-01  0.00000000000E+00 0. -1.
     999901    1    3    3    0    0  0.88980839629E-01  0.15836890921E-01  0.10742992405E+00  0.89112826547E+00  0.88000000000E+00 0.  1.
        -11    1    4    4    0    0 -0.79151763675E-01 -0.70033567111E-02 -0.65889148987E-01  0.10322640056E+00  0.51100000000E-03 0.  1.
         11    1    4    4    0    0 -0.14432219365E-01 -0.10929222360E-01 -0.18135989578E-01  0.25630296451E-01  0.51100000000E-03 0. -1.
</event>
<event>
 8    1  0.1060404E+005  0.1043930E+01  0.7957747E-01            NaN
         13   -1    0    0    0    0  0.00000000000E+00  0.00000000000E+00  0.74505805969E-08  0.10566000000E+00  0.10566000000E+00 0. -1.
     999900   -1    0    0    0    0 -0.00000000000E+00 -0.00000000000E+00 -0.74505805969E-08  0.93827000000E+00  0.93827000000E+00 0.  1.
     999902    2    1    2    0    0  0.32007071267E-01  0.15271575556E-01  0.10011731024E-01  0.10070801915E+01  0.10064057848E+01 0.  0.
     999903    2    3    3    0    0 -0.73968448963E-01  0.81779975809E-02 -0.86128315020E-01  0.11549506474E+00  0.19565588294E-01 0.  0.
         14    1    1    2    0    0 -0.32007071267E-01 -0.15271575556E-01 -0.10011731024E-01  0.36849808536E-01  0.00000000000E+00 0.  1.
     999901    1    3    3    0    0  0.10597552023E+00  0.70935779753E-02  0.96140046044E-01  0.89158512672E+00  0.88000000000E+00 0. -1.
        -11    1    4    4    0    0 -0.37313871663E-01  0.94998926815E-02 -0.56334626784E-01  0.68237997298E-01  0.51100000000E-03 0. -1.
         11    1    4    4    0    0 -0.36654577300E-01 -0.13218951007E-02 -0.29793688237E-01  0.47257067445E-01  0.51100000000E-03 0.  1.
</event>
<event>
 8    1  0.1060404E+005  0.1043930E+01  0.7957747E-01            NaN
         13   -1    0    0    0    0  0.00000000000E+00  0.00000000000E+00  0.74505805969E-08  0.10566000000E+00  0.10566000000E+00 0.  1.
     999900   -1    0    0    0    0 -0.00000000000E+00 -0.00000000000E+00 -0.74505805969E-08  0.93827000000E+00  0.93827000000E+00 0. -1.
     999902    2    1    2    0    0 -0.10521192218E-01  0.17115938373E-01 -0.11702674511E-01  0.10206791200E+01  0.10204142602E+01 0.  0.
     999903    2    3    3    0    0 -0.87328004016E-01 -0.80062896668E-01 -0.52744960443E-01  0.13105701954E+00  0.18912001742E-01 0.  0.
         14    1    1    2    0    0  0.10521192218E-01 -0.17115938373E-01  0.11702674511E-01  0.23250880043E-01  0.00000000000E+00 0.  1.
     999901    1    3    3    0    0  0.76806811798E-01  0.97178835041E-01  0.41042285932E-01  0.88962210042E+00  0.88000000000E+00 0. -1.
        -11    1    4    4    0    0 -0.32197612963E-01 -0.20981000222E-01 -0.10358396109E-01  0.39805101956E-01  0.51100000000E-03 0.  1.
         11    1    4    4    0    0 -0.55130391053E-01 -0.59081896446E-01 -0.42386564334E-01  0.91251917582E-01  0.51100000000E-03 0. -1.
</event>
<event>
 8    1  0.1060404E+005  0.1043930E+01  0.7957747E-01            NaN
         13   -1    0    0    0    0  0.00000000000E+00  0.00000000000E+00  0.74505805969E-08  0.10566000000E+00  0.10566000000E+00 0. -1.
     999900   -1    0    0    0    0 -0.00000000000E+00 -0.00000000000E+00 -0.74505805969E-08  0.93827000000E+00  0.93827000000E+00 0. -1.
     999902    2    1    2    0    0 -0.94689027935E-05 -0.15837329740E-01  0.18789736699E-01  0.10193561255E+01  0.10190598782E+01 0.  0.
     999903    2    3    3    0    0 -0.97337237827E-01 -0.50646275369E-02  0.85792780164E-01  0.13139320197E+00  0.20089402097E-01 0.  0.
         14    1    1    2    0    0  0.94689027935E-05  0.15837329740E-01 -0.18789736699E-01  0.24573874504E-01  0.00000000000E+00 0.  1.
     999901    1    3    3    0    0  0.97327768925E-01 -0.10772702203E-01 -0.67003043465E-01  0.88796292352E+00  0.88000000000E+00 0. -1.
        -11    1    4    4    0    0 -0.11410195875E-01  0.28687277258E-02  0.18642557305E-01  0.22050583496E-01  0.51100000000E-03 0.  1.
         11    1    4    4    0    0 -0.85927041952E-01 -0.79333552627E-02  0.67150222859E-01  0.10934261848E+00  0.51100000000E-03 0. -1.
</event>
<event>
 8    1  0.1060404E+005  0.1043930E+01  0.7957747E-01            NaN
         13   -1    0    0    0    0  0.00000000000E+00  0.00000000000E+00  0.74505805969E-08  0.10566000000E+00  0.10566000000E+00 0. -1.
     999900   -1    0    0    0    0 -0.00000000000E+00 -0.00000000000E+00 -0.74505805969E-08  0.93827000000E+00  0.93827000000E+00 0. -1.
     999902    2    1    2    0    0  0.10025391395E-01  0.19211360327E-01  0.98809897525E-02  0.10201136443E+01  0.10198355890E+01 0.  0.
     999903    2    3    3    0    0 -0.51749233147E-01 -0.37700045948E-01  0.11234160152E+00  0.13019612605E+00  0.15202605427E-01 0.  0.
         14    1    1    2    0    0 -0.10025391395E-01 -0.19211360327E-01 -0.98809897525E-02  0.23816355656E-01  0.00000000000E+00 0.  1.
     999901    1    3    3    0    0  0.61774624543E-01  0.56911406275E-01 -0.10246061176E+00  0.88991751829E+00  0.88000000000E+00 0. -1.
        -11    1    4    4    0    0 -0.32008787524E-01 -0.14100946179E-01  0.57136390904E-01  0.66994234442E-01  0.51100000000E-03 0. -1.
         11    1    4    4    0    0 -0.19740445623E-01 -0.23599099768E-01  0.55205210612E-01  0.63201891609E-01  0.51100000000E-03 0.  1.
</event>
<event>
 8    1  0.1060404E+005  0.1043930E+01  0.7957747E-01            NaN
         13   -1    0    0    0    0  0.00000000000E+00  0.00000000000E+00  0.74505805969E-08  0.10566000000E+00  0.10566000000E+00 0.  1.
     999900   -1    0    0    0    0 -0.00000000000E+00 -0.00000000000E+00 -0.74505805969E-08  0.93827000000E+00  0.93827000000E+00 0.  1.
     999902    2    1    2    0    0 -0.19399994605E-01  0.75435616109E-04 -0.13494361717E-01  0.10202981723E+01  0.10200244591E+01 0.  0.
     999903    2    3    3    0    0  0.69072302913E-01  0.97557087270E-01  0.42015404724E-01  0.12877624101E+00  0.23014293579E-01 0.  0.
         14    1    1    2    0    0  0.19399994605E-01 -0.75435616109E-04  0.13494361717E-01  0.23631827677E-01  0.00000000000E+00 0.  1.
     999901    1    3    3    0    0 -0.88472297518E-01 -0.97481651654E-01 -0.55509766441E-01  0.89152193131E+00  0.88000000000E+00 0.  1.
        -11    1    4    4    0    0  0.14471313502E-01  0.37186215493E-01  0.18906988988E-01  0.44158452088E-01  0.51100000000E-03 0.  1.
         11    1    4    4    0    0  0.54600989411E-01  0.60370871777E-01  0.23108415736E-01  0.84617788925E-01  0.51100000000E-03 0. -1.
</event>
<event>
 8    1  0.1060404E+005  0.1043930E+01  0.7957747E-01            NaN
         13   -1    0    0    0    0  0.00000000000E+00  0.00000000000E+00  0.74505805969E-08  0.10566000000E+00  0.10566000000E+00 0. -1.
     999900   -1    0    0    0    0 -0.00000000000E+00 -0.00000000000E+00 -0.74505805969E-08  0.93827000000E+00  0.93827000000E+00 0. -1.
     999902    2    1    2    0    0 -0.77656396635E-02 -0.22061350042E-01 -0.30775579933E-02  0.10203401783E+01  0.10200674486E+01 0.  0.
     999903    2    3    3    0    0  0.11226945739E+00  0.52376791000E-01  0.20456118044E-01  0.12876668425E+00  0.28542020051E-01 0.  0.
         14    1    1    2    0    0  0.77656396635E-02  0.22061350042E-01  0.30775579933E-02  0.23589821709E-01  0.00000000000E+00 0. -1.
     999901    1    3    3    0    0 -0.12003509706E+00 -0.74438141042E-01 -0.23533676037E-01  0.89157349404E+00  0.88000000000E+00 0.  1.
        -11    1    4    4    0    0  0.84231340443E-01  0.42978133864E-01  0.27267635793E-01  0.98416582881E-01  0.51100000000E-03 0.  1.
         11    1    4    4    0    0  0.28038116950E-01  0.93986571356E-02 -0.68115177492E-02  0.30350101369E-01  0.51100000000E-03 0. -1.
</event>
<event>
 8    1  0.1060404E+005  0.1043930E+01  0.7957747E-01            NaN
         13   -1    0    0    0    0  0.00000000000E+00  0.00000000000E+00  0.74505805969E-08  0.10566000000E+00  0.10566000000E+00 0.  1.
     999900   -1    0    0    0    0 -0.00000000000E+00 -0.00000000000E+00 -0.74505805969E-08  0.93827000000E+00  0.93827000000E+00 0.  1.
     999902    2    1    2    0    0  0.13514863607E-02  0.26041083201E-01 -0.20717729392E-02  0.10177716978E+01  0.10174354879E+01 0.  0.
     999903    2    3    3    0    0 -0.34195268728E-01 -0.11823293341E+00  0.99952390705E-02  0.12523364460E+00  0.20861878864E-01 0.  0.
         14    1    1    2    0    0 -0.13514863607E-02 -0.26041083201E-01  0.20717729392E-02  0.26158302177E-01  0.00000000000E+00 0. -1.
     999901    1    3    3    0    0  0.35546755089E-01  0.14427401661E+00 -0.12067012010E-01  0.89253805322E+00  0.88000000000E+00 0. -1.
        -11    1    4    4    0    0 -0.55798501413E-02 -0.34398313388E-01 -0.55619412452E-02  0.35292704670E-01  0.51100000000E-03 0. -1.
         11    1    4    4    0    0 -0.28615418587E-01 -0.83834620025E-01  0.15557180316E-01  0.89940939932E-01  0.51100000000E-03 0.  1.
</event>
<event>
 8    1  0.1060404E+005  0.1043930E+01  0.7957747E-01            NaN
         13   -1    0    0    0    0  0.00000000000E+00  0.00000000000E+00  0.74505805969E-08  0.10566000000E+00  0.10566000000E+00 0. -1.
     999900   -1    0    0    0    0 -0.00000000000E+00 -0.00000000000E+00 -0.74505805969E-08  0.93827000000E+00  0.93827000000E+00 0. -1.
     999902    2    1    2    0    0  0.17614895810E-01  0.11375306772E-01 -0.89459701838E-02  0.10211327953E+01  0.10208782852E+01 0.  0.
     999903    2    3    3    0    0 -0.42608696853E-01 -0.11267999797E-01 -0.12228294954E+00  0.13153464372E+00  0.20143829903E-01 0.  0.
         14    1    1    2    0    0 -0.17614895810E-01 -0.11375306772E-01  0.89459701838E-02  0.22797204677E-01  0.00000000000E+00 0.  1.
     999901    1    3    3    0    0  0.60223592663E-01  0.22643306569E-01  0.11333697936E+00  0.88959815160E+00  0.88000000000E+00 0.  1.
        -11    1    4    4    0    0 -0.23529459865E-01 -0.16363413628E-01 -0.69762692093E-01  0.75422086395E-01  0.51100000000E-03 0.  1.
         11    1    4    4    0    0 -0.19079236988E-01  0.50954138311E-02 -0.52520257448E-01  0.56112557325E-01  0.51100000000E-03 0. -1.
</event>
<event>
 8    1  0.1060404E+005  0.1043930E+01  0.7957747E-01            NaN
         13   -1    0    0    0    0  0.00000000000E+00  0.00000000000E+00  0.74505805969E-08  0.10566000000E+00  0.10566000000E+00 0.  1.
     999900   -1    0    0    0    0 -0.00000000000E+00 -0.00000000000E+00 -0.74505805969E-08  0.93827000000E+00  0.93827000000E+00 0.  1.
     999902    2    1    2    0    0  0.63303509868E-02  0.53877306581E-02 -0.21338040091E-01  0.10210299358E+01  0.10207730976E+01 0.  0.
     999903    2    3    3    0    0  0.91223529008E-01 -0.38749724961E-01  0.82246943847E-01  0.12980335655E+00  0.16157913586E-01 0.  0.
         14    1    1    2    0    0 -0.63303509868E-02 -0.53877306581E-02  0.21338040091E-01  0.22900064196E-01  0.00000000000E+00 0.  1.
     999901    1    3    3    0    0 -0.84893178021E-01  0.44137455619E-01 -0.10358498394E+00  0.89122657925E+00  0.88000000000E+00 0.  1.
        -11    1    4    4    0    0  0.57770976464E-01 -0.32332149409E-01  0.50912523106E-01  0.83517661228E-01  0.51100000000E-03 0. -1.
         11    1    4    4    0    0  0.33452552544E-01 -0.64175755519E-02  0.31334420741E-01  0.46285695326E-01  0.51100000000E-03 0.  1.
</event>
<event>
 8    1  0.1060404E+005  0.1043930E+01  0.7957747E-01            NaN
         13   -1    0    0    0    0  0.00000000000E+00  0.00000000000E+00  0.74505805969E-08  0.10566000000E+00  0.10566000000E+00 0. -1.
     999900   -1    0    0    0    0 -0.00000000000E+00 -0.00000000000E+00 -0.74505805969E-08  0.93827000000E+00  0.93827000000E+00 0.  1.
     999902    2    1    2    0    0  0.69888394561E-02 -0.10737522755E-01 -0.19969667091E-01  0.10202039410E+01  0.10199280148E+01 0.  0.
     999903    2    3    3    0    0  0.68119458480E-01 -0.24527943141E-01  0.10520281406E+00  0.12913981406E+00  0.19172346519E-01 0.  0.
         14    1    1    2    0    0 -0.69888394561E-02  0.10737522755E-01  0.19969667091E-01  0.23726058998E-01  0.00000000000E+00 0.  1.
     999901    1    3    3    0    0 -0.61130619024E-01  0.13790420386E-01 -0.12517248116E+00  0.89106412694E+00  0.88000000000E+00 0.  1.
        -11    1    4    4    0    0  0.37847201024E-01 -0.22131319198E-01  0.53445211186E-01  0.69129282034E-01  0.51100000000E-03 0. -1.
         11    1    4    4    0    0  0.30272257456E-01 -0.23966239430E-02  0.51757602879E-01  0.60010532030E-01  0.51100000000E-03 0.  1.
</event>
<event>
 8    1  0.1060404E+005  0.1043930E+01  0.7957747E-01            NaN
         13   -1    0    0    0    0  0.00000000000E+00  0.00000000000E+00  0.74505805969E-08  0.10566000000E+00  0.10566000000E+00 0.  1.
     999900   -1    0    0    0    0 -0.00000000000E+00 -0.00000000000E+00 -0.74505805969E-08  0.93827000000E+00  0.93827000000E+00 0.  1.
     999902    2    1    2    0    0  0.99163174254E-02  0.12579451987E-01 -0.16709674418E-01  0.10207828796E+01  0.10205204055E+01 0.  0.
     999903    2    3    3    0    0 -0.45396222841E-01  0.12216555321E+00 -0.97307714452E-02  0.13223502170E+00  0.20153749339E-01 0.  0.
         14    1    1    2    0    0 -0.99163174254E-02 -0.12579451987E-01  0.16709674418E-01  0.23147120398E-01  0.00000000000E+00 0.  1.
     999901    1    3    3    0    0  0.55312540266E-01 -0.10958610122E+00 -0.69789029723E-02  0.88854785790E+00  0.88000000000E+00 0.  1.
        -11    1    4    4    0    0 -0.38933763825E-01  0.11637178225E+00 -0.62572938413E-02  0.12287247258E+00  0.51100000000E-03 0. -1.
         11    1    4    4    0    0 -0.64624590156E-02  0.57937709563E-02 -0.34734776039E-02  0.93625491233E-02  0.51100000000E-03 0.  1.
</event>
<event>
 8    1  0.1060404E+005  0.1043930E+01  0.7957747E-01            NaN
         13   -1    0    0    0    0  0.00000000000E+00  0.00000000000E+00  0.74505805969E-08  0.10566000000E+00  0.10566000000E+00 0.  1.
     999900   -1    0    0    0    0 -0.00000000000E+00 -0.00000000000E+00 -0.74505805969E-08  0.93827000000E+00  0.93827000000E+00 0. -1.
     999902    2    1    2    0    0 -0.83020210314E-02  0.16959124401E-01  0.16736670379E-01  0.10186980443E+01  0.10183855134E+01 0.  0.
     999903    2    3    3    0    0 -0.12245639092E+00 -0.12858288258E-01 -0.34248919912E-01  0.12936130903E+00  0.20011409383E-01 0.  0.
         14    1    1    2    0    0  0.83020210314E-02 -0.16959124401E-01 -0.16736670379E-01  0.25231955711E-01  0.00000000000E+00 0. -1.
     999901    1    3    3    0    0  0.11415436989E+00  0.29817412658E-01  0.50985590291E-01  0.88933673526E+00  0.88000000000E+00 0. -1.
        -11    1    4    4    0    0 -0.87905333910E-01 -0.83011347307E-02 -0.15056358906E-01  0.89572382084E-01  0.51100000000E-03 0. -1.
         11    1    4    4    0    0 -0.34551057008E-01 -0.45571535269E-02 -0.19192561006E-01  0.39788926947E-01  0.51100000000E-03 0.  1.
</event>
<event>
 8    1  0.1060404E+005  0.1043930E+01  0.7957747E-01            NaN
         13   -1    0    0    0    0  0.00000000000E+00  0.00000000000E+00  0.74505805969E-08  0.10566000000E+00  0.10566000000E+00 0.  1.
     999900   -1    0    0    0    0 -0.00000000000E+00 -0.00000000000E+00 -0.74505805969E-08  0.93827000000E+00  0.93827000000E+00 0. -1.
     999902    2    1    2    0    0  0.10267269793E-01  0.12153731556E-01 -0.16515780019E-01  0.10209974683E+01  0.10207398931E+01 0.  0.
     999903    2    3    3    0    0  0.40690423868E-01  0.12092534567E+00  0.20149793804E-01  0.13302156963E+00  0.31781661028E-01 0.  0.
         14    1    1    2    0    0 -0.10267269793E-01 -0.12153731556E-01  0.16515780019E-01  0.22932531683E-01  0.00000000000E+00 0.  1.
     999901    1    3    3    0    0 -0.30423154075E-01 -0.10877161411E+00 -0.36665573823E-01  0.88797589868E+00  0.88000000000E+00 0.  1.
        -11    1    4    4    0    0  0.28585729660E-02  0.42458202831E-01 -0.36577944708E-02  0.42714295129E-01  0.51100000000E-03 0.  1.
         11    1    4    4    0    0  0.37831850902E-01  0.78467142838E-01  0.23807588275E-01  0.90307274504E-01  0.51100000000E-03 0. -1.
</event>
<event>
 8    1  0.1060404E+005  0.1043930E+01  0.7957747E-01            NaN
         13   -1    0    0    0    0  0.00000000000E+00  0.00000000000E+00  0.74505805969E-08  0.10566000000E+00  0.10566000000E+00 0.  1.
     999900   -1    0    0    0    0 -0.00000000000E+00 -0.00000000000E+00 -0.74505805969E-08  0.93827000000E+00  0.93827000000E+00 0. -1.
     999902    2    1    2    0    0  0.27726642141E-02  0.19172484191E-01  0.13890602431E-01  0.10200926207E+01  0.10198140684E+01 0.  0.
     999903    2    3    3    0    0  0.31314832116E-02  0.20057871592E-01 -0.12590587847E+00  0.12905728539E+00  0.19783030098E-01 0.  0.
         14    1    1    2    0    0 -0.27726642141E-02 -0.19172484191E-01 -0.13890602431E-01  0.23837379319E-01  0.00000000000E+00 0. -1.
     999901    1    3    3    0    0 -0.35881899756E-03 -0.88538740119E-03  0.13979648090E+00  0.89103533529E+00  0.88000000000E+00 0.  1.
        -11    1    4    4    0    0  0.78650536721E-02  0.17321845546E-01 -0.60528761015E-01  0.63449960074E-01  0.51100000000E-03 0. -1.
         11    1    4    4    0    0 -0.47335704604E-02  0.27360260465E-02 -0.65377117454E-01  0.65607325318E-01  0.51100000000E-03 0.  1.
</event>
<event>
 7    1  0.1060404E+005  0.1043930E+01  0.7957747E-01            NaN
         13   -1    0    0    0    0  0.00000000000E+00  0.00000000000E+00  0.74505805969E-08  0.10566000000E+00  0.10566000000E+00 0. -1.
     999900   -1    0    0    0    0 -0.00000000000E+00 -0.00000000000E+00 -0.74505805969E-08  0.93827000000E+00  0.93827000000E+00 0. -1.
     999903    2    1    2    0    0  0.41879459598E-01  0.29100582841E-01  0.86253847486E-01  0.10219655087E+00  0.20091683485E-01 0.  0.
         14    1    1    2    0    0 -0.12574222077E-01  0.52038912197E-01 -0.63549594492E-02  0.53912382187E-01  0.00000000000E+00 0. -1.
     999901    1    1    2    0    0 -0.29305237521E-01 -0.81139495038E-01 -0.79898888037E-01  0.88782106694E+00  0.88000000000E+00 0. -1.
        -11    1    3    3    0    0  0.28007124062E-01  0.11449860575E-01  0.35183010978E-01  0.46406935773E-01  0.51100000000E-03 0. -1.
         11    1    3    3    0    0  0.13872335536E-01  0.17650722266E-01  0.51070836509E-01  0.55789615095E-01  0.51100000000E-03 0.  1.
</event>
<event>
 8    1  0.1060404E+005  0.1043930E+01  0.7957747E-01            NaN
         13   -1    0    0    0    0  0.00000000000E+00  0.00000000000E+00  0.74505805969E-08  0.10566000000E+00  0.10566000000E+00 0. -1.
     999900   -1    0    0    0    0 -0.00000000000E+00 -0.00000000000E+00 -0.74505805969E-08  0.93827000000E+00  0.93827000000E+00 0. -1.
     999902    2    1    2    0    0  0.16198502829E-02  0.21955538044E-01  0.98456563987E-02  0.10198134804E+01  0.10195282872E+01 0.  0.
     999903    2    3    3    0    0 -0.31041205234E-01  0.12547652605E+00  0.24017200429E-01  0.13303043360E+00  0.20306534319E-01 0.  0.
         14    1    1    2    0    0 -0.16198502829E-02 -0.21955538044E-01 -0.98456563987E-02  0.24116519559E-01  0.00000000000E+00 0.  1.
     999901    1    3    3    0    0  0.32661055516E-01 -0.10352098800E+00 -0.14171544030E-01  0.88678304684E+00  0.88000000000E+00 0.  1.
        -11    1    4    4    0    0  0.18975929234E-02  0.21515946181E-01  0.66154216855E-02  0.22595612938E-01  0.51100000000E-03 0.  1.
         11    1    4    4    0    0 -0.32938798157E-01  0.10396057987E+00  0.17401778743E-01  0.11043482066E+00  0.51100000000E-03 0. -1.
</event>
<event>
 7    1  0.1060404E+005  0.1043930E+01  0.7957747E-01            NaN
         13   -1    0    0    0    0  0.00000000000E+00  0.00000000000E+00  0.74505805969E-08  0.10566000000E+00  0.10566000000E+00 0.  1.
     999900   -1    0    0    0    0 -0.00000000000E+00 -0.00000000000E+00 -0.74505805969E-08  0.93827000000E+00  0.93827000000E+00 0. -1.
     999902    2    1    2    0    0  0.18693912295E-01 -0.50575719205E-02 -0.12922103728E-01  0.10206486307E+01  0.10203830679E+01 0.  0.
         14    1    1    2    0    0 -0.18693912295E-01  0.50575719205E-02  0.12922103728E-01  0.23281369277E-01  0.00000000000E+00 0. -1.
     999901    1    3    3    0    0  0.96910748188E-01  0.44043740816E-01  0.72902643826E-01  0.88940785903E+00  0.88000000000E+00 0. -1.
        -11    1    3    3    0    0 -0.36551154416E-01 -0.32684024798E-01 -0.66101790513E-01  0.82303950065E-01  0.51100000000E-03 0.  1.
         11    1    3    3    0    0 -0.41665681476E-01 -0.16417287938E-01 -0.19722957041E-01  0.48936821633E-01  0.51100000000E-03 0. -1.
</event>
<event>
 8    1  0.1060404E+005  0.1043930E+01  0.7957747E-01            NaN
         13   -1    0    0    0    0  0.00000000000E+00  0.00000000000E+00  0.74505805969E-08  0.10566000000E+00  0.10566000000E+00 0. -1.
     999900   -1    0    0    0    0 -0.00000000000E+00 -0.00000000000E+00 -0.74505805969E-08  0.93827000000E+00  0.93827000000E+00 0.  1.
     999902    2    1    2    0    0 -0.43650008537E-02 -0.21636048855E-01  0.70576279429E-02  0.10207571289E+01  0.10204940638E+01 0.  0.
     999903    2    3    3    0    0  0.94791035677E-01 -0.85996368137E-01  0.28874570882E-01  0.13258476429E+00  0.19085677865E-01 0.  0.
         14    1    1    2    0    0  0.43650008537E-02  0.21636048855E-01 -0.70576279429E-02  0.23172871093E-01  0.00000000000E+00 0.  1.
     999901    1    3    3    0    0 -0.99156036530E-01  0.64360319282E-01 -0.21816942940E-01  0.88817236462E+00  0.88000000000E+00 0.  1.
        -11    1    4    4    0    0  0.35743256969E-01 -0.40268718987E-01  0.19705210038E-01  0.57338526064E-01  0.51100000000E-03 0.  1.
         11    1    4    4    0    0  0.59047778708E-01 -0.45727649150E-01  0.91693608440E-02  0.75246238221E-01  0.51100000000E-03 0. -1.
</event>
<event>
 8    1  0.1060404E+005  0.1043930E+01  0.7957747E-01            NaN
         13   -1    0    0    0    0  0.00000000000E+00  0.00000000000E+00  0.74505805969E-08  0.10566000000E+00  0.10566000000E+00 0. -1.
     999900   -1    0    0    0    0 -0.00000000000E+00 -0.00000000000E+00 -0.74505805969E-08  0.93827000000E+00  0.93827000000E+00 0.  1.
     999902    2    1    2    0    0  0.56362705959E-03  0.11186377023E-02  0.23621089917E-01  0.10202757210E+01  0.10200014814E+01 0.  0.
     999903    2    3    3    0    0  0.10734606828E+00  0.16951363121E-01  0.72703721679E-01  0.13232174152E+00  0.20314651040E-01 0.  0.
         14    1    1    2    0    0 -0.56362705959E-03 -0.11186377023E-02 -0.23621089917E-01  0.23654278992E-01  0.00000000000E+00 0.  1.
     999901    1    3    3    0    0 -0.10678244122E+00 -0.15832725418E-01 -0.49082631762E-01  0.88795397949E+00  0.88000000000E+00 0. -1.
        -11    1    4    4    0    0  0.21298115504E-01  0.61562854475E-02  0.61770766612E-02  0.23020142737E-01  0.51100000000E-03 0. -1.
         11    1    4    4    0    0  0.86047952773E-01  0.10795077673E-01  0.66526645018E-01  0.10930159878E+00  0.51100000000E-03 0.  1.
</event>
<event>
 8    1  0.1060404E+005  0.1043930E+01  0.7957747E-01            NaN
         13   -1    0    0    0    0  0.00000000000E+00  0.00000000000E+00  0.74505805969E-08  0.10566000000E+00  0.10566000000E+00 0.  1.
     999900   -1    0    0    0    0 -0.00000000000E+00 -0.00000000000E+00 -0.74505805969E-08  0.93827000000E+00  0.93827000000E+00 0. -1.
     999902    2    1    2    0    0 -0.30847277370E-02  0.22725361588E-01 -0.80615133381E-02  0.10196206273E+01  0.10193307991E+01 0.  0.
     999903    2    3    3    0    0  0.58483019321E-01  0.37329121446E-01  0.10790392206E+00  0.12976005422E+00  0.19511238308E-01 0.  0.
         14    1    1    2    0    0  0.30847277370E-02 -0.22725361588E-01  0.80615133381E-02  0.24309372715E-01  0.00000000000E+00 0.  1.
     999901    1    3    3    0    0 -0.61567747058E-01 -0.14603759858E-01 -0.11596543540E+00  0.88986057306E+00  0.88000000000E+00 0. -1.
        -11    1    4    4    0    0  0.54985418128E-01  0.27252500204E-01  0.93053015089E-01  0.11146846959E+00  0.51100000000E-03 0. -1.
         11    1    4    4    0    0  0.34976011926E-02  0.10076621242E-01  0.14850906968E-01  0.18291584637E-01  0.51100000000E-03 0.  1.
</event>
<event>
 8    1  0.1060404E+005  0.1043930E+01  0.7957747E-01            NaN
         13   -1    0    0    0    0  0.00000000000E+00  0.00000000000E+00  0.74505805969E-08  0.10566000000E+00  0.10566000000E+00 0. -1.
     999900   -1    0    0    0    0 -0.00000000000E+00 -0.00000000000E+00 -0.74505805969E-08  0.93827000000E+00  0.93827000000E+00 0.  1.
     999902    2    1    2    0    0  0.19840262638E-01  0.59039823638E-02 -0.13496502661E-01  0.10192186946E+01  0.10189190836E+01 0.  0.
     999903    2    3    3    0    0 -0.34960172642E-01 -0.98206498596E-01  0.70326298264E-01  0.12744050364E+00  0.20701780214E-01 0.  0.
         14    1    1    2    0    0 -0.19840262638E-01 -0.59039823638E-02  0.13496502661E-01  0.24711305376E-01  0.00000000000E+00 0. -1.
     999901    1    3    3    0    0  0.54800435280E-01  0.10411048096E+00 -0.83822800925E-01  0.89177819098E+00  0.88000000000E+00 0.  1.
        -11    1    4    4    0    0 -0.22240283258E-01 -0.81834565393E-01  0.50239232383E-01  0.98568594815E-01  0.51100000000E-03 0.  1.
         11    1    4    4    0    0 -0.12719889383E-01 -0.16371933203E-01  0.20087065881E-01  0.28871908829E-01  0.51100000000E-03 0. -1.
</event>
<event>
 8    1  0.1060404E+005  0.1043930E+01  0.7957747E-01            NaN
         13   -1    0    0    0    0  0.00000000000E+00  0.00000000000E+00  0.74505805969E-08  0.10566000000E+00  0.10566000000E+00 0.  1.
     999900   -1    0    0    0    0 -0.00000000000E+00 -0.00000000000E+00 -0.74505805969E-08  0.93827000000E+00  0.93827000000E+00 0.  1.
     999902    2    1    2    0    0  0.18196358544E-02  0.24376226141E-01 -0.33302414758E-02  0.10192601402E+01  0.10189615456E+01 0.  0.
     999903    2    3    3    0    0  0.12021700723E-01  0.79163511677E-01  0.10203251620E+00  0.13122464568E+00  0.19947190340E-01 0.  0.
         14    1    1    2    0    0 -0.18196358544E-02 -0.24376226141E-01  0.33302414758E-02  0.24669859826E-01  0.00000000000E+00 0. -1.
     999901    1    3    3    0    0 -0.10202064869E-01 -0.54787285536E-01 -0.10536275767E+00  0.88803549450E+00  0.88000000000E+00 0.  1.
        -11    1    4    4    0    0  0.93287740672E-02  0.35280438773E-01  0.32026116680E-01  0.48555830301E-01  0.51100000000E-03 0. -1.
         11    1    4    4    0    0  0.26929266557E-02  0.43883072904E-01  0.70006399515E-01  0.82668815375E-01  0.51100000000E-03 0.  1.
</event>
<event>
 8    1  0.1060404E+005  0.1043930E+01  0.7957747E-01            NaN
         13   -1    0    0    0    0  0.00000000000E+00  0.00000000000E+00  0.74505805969E-08  0.10566000000E+00  0.10566000000E+00 0.  1.
     999900   -1    0    0    0    0 -0.00000000000E+00 -0.00000000000E+00 -0.74505805969E-08  0.93827000000E+00  0.93827000000E+00 0. -1.
     999902    2    1    2    0    0  0.18390133711E-02 -0.20677581692E-01  0.11583234542E-01  0.10201578382E+01  0.10198808259E+01 0.  0.
     999903    2    3    3    0    0  0.42128334413E-01 -0.10495963862E+00  0.68216443796E-01  0.13340307226E+00  0.18750311564E-01 0.  0.
         14    1    1    2    0    0 -0.18390133711E-02  0.20677581692E-01 -0.11583234542E-01  0.23772161813E-01  0.00000000000E+00 0. -1.
     999901    1    3    3    0    0 -0.40289321042E-01  0.84282056927E-01 -0.56633209254E-01  0.88675476593E+00  0.88000000000E+00 0. -1.
        -11    1    4    4    0    0  0.32340025414E-01 -0.69146537534E-01  0.36702495255E-01  0.84702155673E-01  0.51100000000E-03 0.  1.
         11    1    4    4    0    0  0.97883089993E-02 -0.35813101085E-01  0.31513948542E-01  0.48700916584E-01  0.51100000000E-03 0. -1.
</event>
<event>
 7    1  0.1150761E+005  0.1043930E+01  0.7957747E-01            NaN
         13   -1    0    0    0    0  0.00000000000E+00  0.00000000000E+00  0.74505805969E-08  0.10566000000E+00  0.10566000000E+00 0.  1.
     999900   -1    0    0    0    0 -0.00000000000E+00 -0.00000000000E+00 -0.74505805969E-08  0.93827000000E+00  0.93827000000E+00 0.  1.
     999903    2    1    2    0    0 -0.21364439186E-01  0.96551831154E-01  0.36340994306E-02  0.10096422710E+00  0.20046773141E-01 0.  0.
         14    1    1    2    0    0 -0.12905071786E-01  0.81916356625E-02  0.52145191533E-01  0.54339348290E-01  0.00000000000E+00 0.  1.
     999901    1    1    2    0    0  0.34269510972E-01 -0.10474346682E+00 -0.55779290963E-01  0.88862642461E+00  0.88000000000E+00 0.  1.
        -11    1    3    3    0    0 -0.15386999103E-01  0.41794932993E-01  0.95824815093E-02  0.45559425349E-01  0.51100000000E-03 0. -1.
         11    1    3    3    0    0 -0.59774400830E-02  0.54756898161E-01 -0.59483820787E-02  0.55404801746E-01  0.51100000000E-03 0.  1.
</event>
<event>
 8    1  0.1060404E+005  0.1043930E+01  0.7957747E-01            NaN
         13   -1    0    0    0    0  0.00000000000E+00  0.00000000000E+00  0.74505805969E-08  0.10566000000E+00  0.10566000000E+00 0. -1.
     999900   -1    0    0    0    0 -0.00000000000E+00 -0.00000000000E+00 -0.74505805969E-08  0.93827000000E+00  0.93827000000E+00 0. -1.
     999902    2    1    2    0    0 -0.95740923847E-02 -0.17430893871E-01  0.14784556275E-01  0.10191493138E+01  0.10188479972E+01 0.  0.
     999903    2    3    3    0    0 -0.25716460686E-01  0.61451441540E-01  0.11048635142E+00  0.13030633973E+00  0.18300062987E-01 0.  0.
         14    1    1    2    0    0  0.95740923847E-02  0.17430893871E-01 -0.14784556275E-01  0.24780686237E-01  0.00000000000E+00 0.  1.
     999901    1    3    3    0    0  0.16142368301E-01 -0.78882335411E-01 -0.95701795148E-01  0.88884297403E+00  0.88000000000E+00 0. -1.
        -11    1    4    4    0    0 -0.30396764622E-02  0.28414658907E-01  0.38969751143E-01  0.48327374219E-01  0.51100000000E-03 0.  1.
         11    1    4    4    0    0 -0.22676784224E-01  0.33036782633E-01  0.71516600280E-01  0.81978965510E-01  0.51100000000E-03 0. -1.
</event>
<event>
 8    1  0.1060404E+005  0.1043930E+01  0.7957747E-01            NaN
         13   -1    0    0    0    0  0.00000000000E+00  0.00000000000E+00  0.74505805969E-08  0.10566000000E+00  0.10566000000E+00 0. -1.
     999900   -1    0    0    0    0 -0.00000000000E+00 -0.00000000000E+00 -0.74505805969E-08  0.93827000000E+00  0.93827000000E+00 0. -1.
     999902    2    1    2    0    0  0.95531923325E-02 -0.20618929013E-01 -0.63616587714E-02  0.10203318132E+01  0.10200588878E+01 0.  0.
     999903    2    3    3    0    0  0.10445371455E+00  0.44334669261E-01 -0.62296878502E-01  0.13108841129E+00  0.20667102447E-01 0.  0.
         14    1    1    2    0    0 -0.95531923325E-02  0.20618929013E-01  0.63616587714E-02  0.23598186789E-01  0.00000000000E+00 0.  1.
     999901    1    3    3    0    0 -0.94900522214E-01 -0.64953598275E-01  0.55935219731E-01  0.88924340192E+00  0.88000000000E+00 0.  1.
        -11    1    4    4    0    0  0.38023883798E-01  0.17673899426E-01 -0.12047968050E-01  0.43630231665E-01  0.51100000000E-03 0.  1.
         11    1    4    4    0    0  0.66429830748E-01  0.26660769836E-01 -0.50248910453E-01  0.87458179630E-01  0.51100000000E-03 0. -1.
</event>
<event>
 8    1  0.1060404E+005  0.1043930E+01  0.7957747E-01            NaN
         13   -1    0    0    0    0  0.00000000000E+00  0.00000000000E+00  0.74505805969E-08  0.10566000000E+00  0.10566000000E+00 0.  1.
     999900   -1    0    0    0    0 -0.00000000000E+00 -0.00000000000E+00 -0.74505805969E-08  0.93827000000E+00  0.93827000000E+00 0. -1.
     999902    2    1    2    0    0  0.21731724725E-01 -0.60955627143E-02 -0.11880476255E-01  0.10184237368E+01  0.10181042866E+01 0.  0.
     999903    2    3    3    0    0 -0.60981016083E-01 -0.93147288412E-01  0.58853401915E-01  0.12745646361E+00  0.19655165705E-01 0.  0.
         14    1    1    2    0    0 -0.21731724725E-01  0.60955627143E-02  0.11880476255E-01  0.25506263160E-01  0.00000000000E+00 0.  1.
     999901    1    3    3    0    0  0.82712740808E-01  0.87051725698E-01 -0.70733878170E-01  0.89096727323E+00  0.88000000000E+00 0. -1.
        -11    1    4    4    0    0 -0.57920658410E-01 -0.75990951317E-01  0.48114543183E-01  0.10697989409E+00  0.51100000000E-03 0. -1.
         11    1    4    4    0    0 -0.30603576730E-02 -0.17156337095E-01  0.10738858732E-01  0.20476569525E-01  0.51100000000E-03 0.  1.
</event>
<event>
 8    1  0.1060404E+005  0.1043930E+01  0.7957747E-01            NaN
         13   -1    0    0    0    0  0.00000000000E+00  0.00000000000E+00  0.74505805969E-08  0.10566000000E+00  0.10566000000E+00 0. -1.
     999900   -1    0    0    0    0 -0.00000000000E+00 -0.00000000000E+00 -0.74505805969E-08  0.93827000000E+00  0.93827000000E+00 0. -1.
     999902    2    1    2    0    0  0.16217971313E-01  0.16408434853E-01 -0.11649916814E-02  0.10208298586E+01  0.10205684610E+01 0.  0.
     999903    2    3    3    0    0  0.16627417219E-01 -0.11432719308E+00  0.54899817502E-01  0.12940670716E+00  0.19619577367E-01 0.  0.
         14    1    1    2    0    0 -0.16217971313E-01 -0.16408434853E-01  0.11649916814E-02  0.23100141417E-01  0.00000000000E+00 0. -1.
     999901    1    3    3    0    0 -0.40944590543E-03  0.13073562793E+00 -0.56064809184E-01  0.89142315142E+00  0.88000000000E+00 0. -1.
        -11    1    4    4    0    0  0.13502171132E-01 -0.82754070695E-01  0.29939923985E-01  0.89034852788E-01  0.51100000000E-03 0.  1.
         11    1    4    4    0    0  0.31252460863E-02 -0.31573122386E-01  0.24959893517E-01  0.40371854376E-01  0.51100000000E-03 0. -1.
</event>
<event>
 8    1  0.1060404E+005  0.1043930E+01  0.7957747E-01            NaN
         13   -1    0    0    0    0  0.00000000000E+00  0.00000000000E+00  0.74505805969E-08  0.10566000000E+00  0.10566000000E+00 0.  1.
     999900   -1    0    0    0    0 -0.00000000000E+00 -0.00000000000E+00 -0.74505805969E-08  0.93827000000E+00  0.93827000000E+00 0. -1.
     999902    2    1    2    0    0  0.17348172772E-01 -0.53785446926E-02  0.15198863088E-01  0.10202468144E+01  0.10199718962E+01 0.  0.
     999903    2    3    3    0    0 -0.33945455300E-01  0.11038277883E+00  0.56653388793E-01  0.13021861371E+00  0.20263985237E-01 0.  0.
         14    1    1    2    0    0 -0.17348172772E-01  0.53785446926E-02 -0.15198863088E-01  0.23683185611E-01  0.00000000000E+00 0. -1.
     999901    1    3    3    0    0  0.51293628072E-01 -0.11576132352E+00 -0.41454525705E-01  0.89002820068E+00  0.88000000000E+00 0. -1.
        -11    1    4    4    0    0 -0.31139320283E-01  0.10155392915E+00  0.45097361729E-01  0.11539883426E+00  0.51100000000E-03 0. -1.
         11    1    4    4    0    0 -0.28061350171E-02  0.88288496790E-02  0.11556027064E-01  0.14819779448E-01  0.51100000000E-03 0.  1.
</event>
<event>
 8    1  0.1060404E+005  0.1043930E+01  0.7957747E-01            NaN
         13   -1    0    0    0    0  0.00000000000E+00  0.00000000000E+00  0.74505805969E-08  0.10566000000E+00  0.10566000000E+00 0.  1.
     999900   -1    0    0    0    0 -0.00000000000E+00 -0.00000000000E+00 -0.74505805969E-08  0.93827000000E+00  0.93827000000E+00 0. -1.
     999902    2    1    2    0    0 -0.20843460055E-01 -0.87863252472E-02 -0.97773650740E-02  0.10192876339E+01  0.10189897126E+01 0.  0.
     999903    2    3    3    0    0 -0.30097861416E-01  0.12076626745E+00  0.27356963889E-01  0.12897955431E+00  0.19923587571E-01 0.  0.
         14    1    1    2    0    0  0.20843460055E-01  0.87863252472E-02  0.97773650740E-02  0.24642366084E-01  0.00000000000E+00 0.  1.
     999901    1    3    3    0    0  0.92544013614E-02 -0.12955259270E+00 -0.37134328963E-01  0.89030807960E+00  0.88000000000E+00 0. -1.
        -11    1    4    4    0    0 -0.95149904132E-02  0.77988414071E-01  0.16727232803E-01  0.80329255008E-01  0.51100000000E-03 0.  1.
         11    1    4    4    0    0 -0.20582871003E-01  0.42777853380E-01  0.10629731086E-01  0.48650299305E-01  0.51100000000E-03 0. -1.
</event>
<event>
 8    1  0.1060404E+005  0.1043930E+01  0.7957747E-01            NaN
         13   -1    0    0    0    0  0.00000000000E+00  0.00000000000E+00  0.74505805969E-08  0.10566000000E+00  0.10566000000E+00 0.  1.
     999900   -1    0    0    0    0 -0.00000000000E+00 -0.00000000000E+00 -0.74505805969E-08  0.93827000000E+00  0.93827000000E+00 0. -1.
     999902    2    1    2    0    0  0.46556888368E-02  0.13109343990E-01  0.19918446541E-01  0.10196344273E+01  0.10193449321E+01 0.  0.
     999903    2    3    3    0    0  0.85905146102E-01  0.67807872734E-01 -0.67041065586E-01  0.12994045742E+00  0.20308034593E-01 0.  0.
         14    1    1    2    0    0 -0.46556888368E-02 -0.13109343990E-01 -0.19918446541E-01  0.24295572662E-01  0.00000000000E+00 0. -1.
     999901    1    3    3    0    0 -0.81249457265E-01 -0.54698528744E-01  0.86959512127E-01  0.88969396991E+00  0.88000000000E+00 0.  1.
        -11    1    4    4    0    0  0.85311863936E-01  0.62990539960E-01 -0.61639415792E-01  0.12266051098E+00  0.51100000000E-03 0. -1.
         11    1    4    4    0    0  0.59328216566E-03  0.48173327738E-02 -0.54016497936E-02  0.72799464472E-02  0.51100000000E-03 0.  1.
</event>
<event>
 8    1  0.1060404E+005  0.1043930E+01  0.7957747E-01            NaN
         13   -1    0    0    0    0  0.00000000000E+00  0.00000000000E+00  0.74505805969E-08  0.10566000000E+00  0.10566000000E+00 0.  1.
     999900   -1    0    0    0    0 -0.00000000000E+00 -0.00000000000E+00 -0.74505805969E-08  0.93827000000E+00  0.93827000000E+00 0.  1.
     999902    2    1    2    0    0  0.31230847425E-02 -0.21937594803E-01  0.31748399686E-03  0.10217689414E+01  0.10215285884E+01 0.  0.
     999903    2    3    3    0    0 -0.94425940635E-01 -0.89112815994E-01  0.23266698831E-01  0.13353755869E+00  0.20822777607E-01 0.  0.
         14    1    1    2    0    0 -0.31230847425E-02  0.21937594803E-01 -0.31748399686E-03  0.22161058643E-01  0.00000000000E+00 0. -1.
     999901    1    3    3    0    0  0.97549025377E-01  0.67175221190E-01 -0.22949214835E-01  0.88823138267E+00  0.88000000000E+00 0. -1.
        -11    1    4    4    0    0 -0.61950234500E-01 -0.51029817762E-01  0.22966914102E-01  0.83484214795E-01  0.51100000000E-03 0.  1.
         11    1    4    4    0    0 -0.32475706135E-01 -0.38082998231E-01  0.29978472956E-03  0.50053343895E-01  0.51100000000E-03 0. -1.
</event>
<event>
 8    1  0.1060404E+005  0.1043930E+01  0.7957747E-01            NaN
         13   -1    0    0    0    0  0.00000000000E+00  0.00000000000E+00  0.74505805969E-08  0.10566000000E+00  0.10566000000E+00 0. -1.
     999900   -1    0    0    0    0 -0.00000000000E+00 -0.00000000000E+00 -0.74505805969E-08  0.93827000000E+00  0.93827000000E+00 0.  1.
     999902    2    1    2    0    0 -0.50357047577E-02 -0.85202894492E-02 -0.22245053445E-01  0.10195825965E+01  0.10192918498E+01 0.  0.
     999903    2    3    3    0    0  0.48532341422E-01  0.11212567524E+00  0.32508672655E-01  0.12805415898E+00  0.20334665543E-01 0.  0.
         14    1    1    2    0    0  0.50357047577E-02  0.85202894492E-02  0.22245053445E-01  0.24347403506E-01  0.00000000000E+00 0. -1.
     999901    1    3    3    0    0 -0.53568046180E-01 -0.12064596469E+00 -0.54753726101E-01  0.89152843751E+00  0.88000000000E+00 0.  1.
        -11    1    4    4    0    0  0.20736670495E-01  0.62724878697E-01  0.89564724035E-02  0.66670078968E-01  0.51100000000E-03 0.  1.
         11    1    4    4    0    0  0.27795670927E-01  0.49400796546E-01  0.23552200252E-01  0.61384080015E-01  0.51100000000E-03 0. -1.
</event>
<event>
 8    1  0.1060404E+005  0.1043930E+01  0.7957747E-01            NaN
         13   -1    0    0    0    0  0.00000000000E+00  0.00000000000E+00  0.74505805969E-08  0.10566000000E+00  0.10566000000E+00 0. -1.
     999900   -1    0    0    0    0 -0.00000000000E+00 -0.00000000000E+00 -0.74505805969E-08  0.93827000000E+00  0.93827000000E+00 0.  1.
     999902    2    1    2    0    0 -0.77834367364E-02 -0.17576750517E-01 -0.12129004749E-01  0.10212003541E+01  0.10209473671E+01 0.  0.
     999903    2    3    3    0    0  0.12287121970E+00  0.31176356942E-01 -0.24483555053E-01  0.13013349935E+00  0.16308933831E-01 0.  0.
         14    1    1    2    0    0  0.77834367364E-02  0.17576750517E-01  0.12129004749E-01  0.22729645892E-01  0.00000000000E+00 0. -1.
     999901    1    3    3    0    0 -0.13065465644E+00 -0.48753107459E-01  0.12354550304E-01  0.89106685476E+00  0.88000000000E+00 0. -1.
        -11    1    4    4    0    0  0.23272532697E-01 -0.10970422891E-03 -0.67732771551E-02  0.24243787195E-01  0.51100000000E-03 0.  1.
         11    1    4    4    0    0  0.99598687002E-01  0.31286061171E-01 -0.17710277898E-01  0.10588971216E+00  0.51100000000E-03 0. -1.
</event>
<event>
 8    1  0.1060404E+005  0.1043930E+01  0.7957747E-01            NaN
         13   -1    0    0    0    0  0.00000000000E+00  0.00000000000E+00  0.74505805969E-08  0.10566000000E+00  0.10566000000E+00 0.  1.
     999900   -1    0    0    0    0 -0.00000000000E+00 -0.00000000000E+00 -0.74505805969E-08  0.93827000000E+00  0.93827000000E+00 0. -1.
     999902    2    1    2    0    0  0.28608425644E-01 -0.35138055620E-02 -0.12654569134E-01  0.10124510075E+01  0.10119615189E+01 0.  0.
     999903    2    3    3    0    0 -0.48678664265E-01 -0.10713881043E+00  0.25517054511E-01  0.12218783927E+00  0.20746347599E-01 0.  0.
         14    1    1    2    0    0 -0.28608425644E-01  0.35138055620E-02  0.12654569134E-01  0.31478992477E-01  0.00000000000E+00 0.  1.
     999901    1    3    3    0    0  0.77287089909E-01  0.10362500487E+00 -0.38171623645E-01  0.89026316826E+00  0.88000000000E+00 0.  1.
        -11    1    4    4    0    0 -0.24643681542E-01 -0.43611063653E-01  0.20339164245E-01  0.54066427994E-01  0.51100000000E-03 0.  1.
         11    1    4    4    0    0 -0.24034982723E-01 -0.63527746779E-01  0.51778902654E-02  0.68121411274E-01  0.51100000000E-03 0. -1.
</event>
<event>
 8    1  0.1060404E+005  0.1043930E+01  0.7957747E-01            NaN
         13   -1    0    0    0    0  0.00000000000E+00  0.00000000000E+00  0.74505805969E-08  0.10566000000E+00  0.10566000000E+00 0.  1.
     999900   -1    0    0    0    0 -0.00000000000E+00 -0.00000000000E+00 -0.74505805969E-08  0.93827000000E+00  0.93827000000E+00 0. -1.
     999902    2    1    2    0    0 -0.18333059617E-01 -0.57910803954E-02  0.10968237416E-01  0.10217954135E+01  0.10215556408E+01 0.  0.
     999903    2    3    3    0    0 -0.53384664225E-01  0.69723579112E-01 -0.95526559070E-01  0.13147399938E+00  0.21184644580E-01 0.  0.
         14    1    1    2    0    0  0.18333059617E-01  0.57910803954E-02 -0.10968237416E-01  0.22134586490E-01  0.00000000000E+00 0.  1.
     999901    1    3    3    0    0  0.35051604608E-01 -0.75514659507E-01  0.10649479649E+00  0.89032141413E+00  0.88000000000E+00 0.  1.
        -11    1    4    4    0    0 -0.52179992991E-01  0.58722848317E-01 -0.88585292220E-01  0.11840075887E+00  0.51100000000E-03 0. -1.
         11    1    4    4    0    0 -0.12046712337E-02  0.11000730795E-01 -0.69412668499E-02  0.13073240504E-01  0.51100000000E-03 0.  1.
</event>
<event>
 8    1  0.1060404E+005  0.1043930E+01  0.7957747E-01            NaN
         13   -1    0    0    0    0  0.00000000000E+00  0.00000000000E+00  0.74505805969E-08  0.10566000000E+00  0.10566000000E+00 0. -1.
     999900   -1    0    0    0    0 -0.00000000000E+00 -0.00000000000E+00 -0.74505805969E-08  0.93827000000E+00  0.93827000000E+00 0.  1.
     999902    2    1    2    0    0  0.25227762121E-01 -0.18736908883E-02 -0.12562677609E-03  0.10186324412E+01  0.10183182625E+01 0.  0.
     999903    2    3    3    0    0 -0.54251133512E-01 -0.65863748081E-01  0.91181262172E-01  0.12804355162E+00  0.28282675650E-01 0.  0.
         14    1    1    2    0    0 -0.25227762121E-01  0.18736908883E-02  0.12562677609E-03  0.25297558801E-01  0.00000000000E+00 0.  1.
     999901    1    3    3    0    0  0.79478895633E-01  0.63990057193E-01 -0.91306888948E-01  0.89058888958E+00  0.88000000000E+00 0.  1.
        -11    1    4    4    0    0 -0.49038486308E-01 -0.48761276180E-01  0.57627622435E-01  0.90020215411E-01  0.51100000000E-03 0. -1.
         11    1    4    4    0    0 -0.52126472042E-02 -0.17102471901E-01  0.33553639737E-01  0.38023336210E-01  0.51100000000E-03 0.  1.
</event>
<event>
 8    1  0.1060404E+005  0.1043930E+01  0.7957747E-01            NaN
         13   -1    0    0    0    0  0.00000000000E+00  0.00000000000E+00  0.74505805969E-08  0.10566000000E+00  0.10566000000E+00 0.  1.
     999900   -1    0    0    0    0 -0.00000000000E+00 -0.00000000000E+00 -0.74505805969E-08  0.93827000000E+00  0.93827000000E+00 0.  1.
     999902    2    1    2    0    0  0.10867239880E-01  0.18879225869E-01 -0.73730365412E-02  0.10209325275E+01  0.10206734747E+01 0.  0.
     999903    2    3    3    0    0 -0.79658583683E-01 -0.66676248123E-01  0.73194684786E-01  0.12851680514E+00  0.19180597054E-01 0.  0.
         14    1    1    2    0    0 -0.10867239880E-01 -0.18879225869E-01  0.73730365412E-02  0.22997472467E-01  0.00000000000E+00 0.  1.
     999901    1    3    3    0    0  0.90525823564E-01  0.85555473991E-01 -0.80567721327E-01  0.89241572240E+00  0.88000000000E+00 0.  1.
        -11    1    4    4    0    0 -0.62993047554E-01 -0.51781068797E-01  0.47163502243E-01  0.94202230286E-01  0.51100000000E-03 0.  1.
         11    1    4    4    0    0 -0.16665536129E-01 -0.14895179326E-01  0.26031182542E-01  0.34314574851E-01  0.51100000000E-03 0. -1.
</event>
<event>
 8    1  0.1060404E+005  0.1043930E+01  0.7957747E-01            NaN
         13   -1    0    0    0    0  0.00000000000E+00  0.00000000000E+00  0.74505805969E-08  0.10566000000E+00  0.10566000000E+00 0. -1.
     999900   -1    0    0    0    0 -0.00000000000E+00 -0.00000000000E+00 -0.74505805969E-08  0.93827000000E+00  0.93827000000E+00 0. -1.
     999902    2    1    2    0    0 -0.19380068629E-01 -0.95083956177E-02 -0.86061400445E-02  0.10206907596E+01  0.10204261681E+01 0.  0.
     999903    2    3    3    0    0  0.10215158990E+00  0.74903995549E-01 -0.48985154627E-02  0.12832920605E+00  0.19970823782E-01 0.  0.
         14    1    1    2    0    0  0.19380068629E-01  0.95083956177E-02  0.86061400445E-02  0.23239240386E-01  0.00000000000E+00 0. -1.
     999901    1    3    3    0    0 -0.12153165853E+00 -0.84412391167E-01 -0.37076245818E-02  0.89236155357E+00  0.88000000000E+00 0.  1.
        -11    1    4    4    0    0  0.63974034838E-01  0.49686692996E-01  0.62134830583E-02  0.81242310941E-01  0.51100000000E-03 0. -1.
         11    1    4    4    0    0  0.38177555060E-01  0.25217302553E-01 -0.11111998521E-01  0.47086895104E-01  0.51100000000E-03 0.  1.
</event>
<event>
 8    1  0.1060404E+005  0.1043930E+01  0.7957747E-01            NaN
         13   -1    0    0    0    0  0.00000000000E+00  0.00000000000E+00  0.74505805969E-08  0.10566000000E+00  0.10566000000E+00 0. -1.
     999900   -1    0    0    0    0 -0.00000000000E+00 -0.00000000000E+00 -0.74505805969E-08  0.93827000000E+00  0.93827000000E+00 0. -1.
     999902    2    1    2    0    0 -0.17773457702E-01 -0.65213586189E-02  0.59040290213E-02  0.10240986744E+01  0.10239066429E+01 0.  0.
     999903    2    3    3    0    0  0.63047411049E-02 -0.10599841858E+00  0.80126656789E-01  0.13506299254E+00  0.23373410639E-01 0.  0.
         14    1    1    2    0    0  0.17773457702E-01  0.65213586189E-02 -0.59040290213E-02  0.19831325614E-01  0.00000000000E+00 0.  1.
     999901    1    3    3    0    0 -0.24078198807E-01  0.99477059961E-01 -0.74222627768E-01  0.88903568184E+00  0.88000000000E+00 0.  1.
        -11    1    4    4    0    0  0.22375708650E-02 -0.47903373193E-01  0.50781564291E-01  0.69848180216E-01  0.51100000000E-03 0. -1.
         11    1    4    4    0    0  0.40671702399E-02 -0.58095045386E-01  0.29345092498E-01  0.65214812327E-01  0.51100000000E-03 0.  1.
</event>
<event>
 8    1  0.1060404E+005  0.1043930E+01  0.7957747E-01            NaN
         13   -1    0    0    0    0  0.00000000000E+00  0.00000000000E+00  0.74505805969E-08  0.10566000000E+00  0.10566000000E+00 0.  1.
     999900   -1    0    0    0    0 -0.00000000000E+00 -0.00000000000E+00 -0.74505805969E-08  0.93827000000E+00  0.93827000000E+00 0. -1.
     999902    2    1    2    0    0  0.11918638785E-02  0.79298172187E-02 -0.21696644157E-01  0.10207989190E+01  0.10205368127E+01 0.  0.
     999903    2    3    3    0    0 -0.10852381148E+00  0.35211132222E-01  0.58838819950E-01  0.12991859003E+00  0.19989792650E-01 0.  0.
         14    1    1    2    0    0 -0.11918638785E-02 -0.79298172187E-02  0.21696644157E-01  0.23131081002E-01  0.00000000000E+00 0.  1.
     999901    1    3    3    0    0  0.10971567536E+00 -0.27281315004E-01 -0.80535464107E-01  0.89088032897E+00  0.88000000000E+00 0.  1.
        -11    1    4    4    0    0 -0.98158396035E-01  0.25228925859E-01  0.49878832525E-01  0.11295896807E+00  0.51100000000E-03 0. -1.
         11    1    4    4    0    0 -0.10365415449E-01  0.99822063636E-02  0.89599874248E-02  0.16959621958E-01  0.51100000000E-03 0.  1.
</event>
<event>
 8    1  0.1060404E+005  0.1043930E+01  0.7957747E-01            NaN
         13   -1    0    0    0    0  0.00000000000E+00  0.00000000000E+00  0.74505805969E-08  0.10566000000E+00  0.10566000000E+00 0.  1.
     999900   -1    0    0    0    0 -0.00000000000E+00 -0.00000000000E+00 -0.74505805969E-08  0.93827000000E+00  0.93827000000E+00 0.  1.
     999902    2    1    2    0    0  0.17799236076E-01  0.79653174394E-02 -0.13251366377E-01  0.10203533633E+01  0.10200809420E+01 0.  0.
     999903    2    3    3    0    0 -0.42401873172E-01 -0.11904280049E+00 -0.17457995974E-01  0.12918955608E+00  0.20397367003E-01 0.  0.
         14    1    1    2    0    0 -0.17799236076E-01 -0.79653174394E-02  0.13251366377E-01  0.23576636691E-01  0.00000000000E+00 0.  1.
     999901    1    3    3    0    0  0.60201109248E-01  0.12700811793E+00  0.42066295978E-02  0.89116380722E+00  0.88000000000E+00 0. -1.
        -11    1    4    4    0    0 -0.20178373299E-01 -0.75502990504E-01 -0.18412093104E-01  0.80294050947E-01  0.51100000000E-03 0.  1.
         11    1    4    4    0    0 -0.22223499873E-01 -0.43539809987E-01  0.95409712964E-03  0.48895505137E-01  0.51100000000E-03 0. -1.
</event>
<event>
 8    1  0.1060404E+005  0.1043930E+01  0.7957747E-01            NaN
         13   -1    0    0    0    0  0.00000000000E+00  0.00000000000E+00  0.74505805969E-08  0.10566000000E+00  0.10566000000E+00 0.  1.
     999900   -1    0    0    0    0 -0.00000000000E+00 -0.00000000000E+00 -0.74505805969E-08  0.93827000000E+00  0.93827000000E+00 0.  1.
     999902    2    1    2    0    0  0.20535337745E-01 -0.90332773370E-02  0.60842346796E-02  0.10206852563E+01  0.10204205380E+01 0.  0.
     999903    2    3    3    0    0 -0.73814250591E-01  0.10292444946E+00 -0.10426908456E-01  0.12843585441E+00  0.18575855070E-01 0.  0.
         14    1    1    2    0    0 -0.20535337745E-01  0.90332773370E-02 -0.60842346796E-02  0.23244743651E-01  0.00000000000E+00 0. -1.
     999901    1    3    3    0    0  0.94349588337E-01 -0.11195772680E+00  0.16511143136E-01  0.89224940194E+00  0.88000000000E+00 0. -1.
        -11    1    4    4    0    0 -0.29822343110E-01  0.29678550304E-01  0.18390664726E-02  0.42116882402E-01  0.51100000000E-03 0. -1.
         11    1    4    4    0    0 -0.43991907481E-01  0.73245899156E-01 -0.12265974929E-01  0.86318972011E-01  0.51100000000E-03 0.  1.
</event>
<event>
 8    1  0.1060404E+005  0.1043930E+01  0.7957747E-01            NaN
         13   -1    0    0    0    0  0.00000000000E+00  0.00000000000E+00  0.74505805969E-08  0.10566000000E+00  0.10566000000E+00 0. -1.
     999900   -1    0    0    0    0 -0.00000000000E+00 -0.00000000000E+00 -0.74505805969E-08  0.93827000000E+00  0.93827000000E+00 0. -1.
     999902    2    1    2    0    0 -0.23406064238E-01 -0.18876841018E-02 -0.14680039563E-02  0.10204020968E+01  0.10201308136E+01 0.  0.
     999903    2    3    3    0    0  0.10848229013E+00  0.13886508193E-01  0.63313515926E-01  0.12807928048E+00  0.20843665900E-01 0.  0.
         14    1    1    2    0    0  0.23406064238E-01  0.18876841018E-02  0.14680039563E-02  0.23527903221E-01  0.00000000000E+00 0. -1.
     999901    1    3    3    0    0 -0.13188835437E+00 -0.15774192294E-01 -0.64781519882E-01  0.89232281629E+00  0.88000000000E+00 0.  1.
        -11    1    4    4    0    0  0.50237623476E-01  0.14639436089E-02  0.18549195178E-01  0.53575140748E-01  0.51100000000E-03 0. -1.
         11    1    4    4    0    0  0.58244666657E-01  0.12422564584E-01  0.44764320747E-01  0.74504139736E-01  0.51100000000E-03 0.  1.
</event>
<event>
 8    1  0.1060404E+005  0.1043930E+01  0.7957747E-01            NaN
         13   -1    0    0    0    0  0.00000000000E+00  0.00000000000E+00  0.74505805969E-08  0.10566000000E+00  0.10566000000E+00 0. -1.
     999900   -1    0    0    0    0 -0.00000000000E+00 -0.00000000000E+00 -0.74505805969E-08  0.93827000000E+00  0.93827000000E+00 0. -1.
     999902    2    1    2    0    0 -0.92584131462E-02 -0.13224463885E-01 -0.17414464536E-01  0.10201840902E+01  0.10199076966E+01 0.  0.
     999903    2    3    3    0    0 -0.34339055612E-01  0.13092826509E-01 -0.12641149565E+00  0.13271465903E+00  0.16814328512E-01 0.  0.
         14    1    1    2    0    0  0.92584131462E-02  0.13224463885E-01  0.17414464536E-01  0.23745909839E-01  0.00000000000E+00 0. -1.
     999901    1    3    3    0    0  0.25080642466E-01 -0.26317290393E-01  0.10899703111E+00  0.88746943113E+00  0.88000000000E+00 0.  1.
        -11    1    4    4    0    0 -0.22649374728E-01  0.15158853838E-01 -0.10178086522E+00  0.10536788254E+00  0.51100000000E-03 0. -1.
         11    1    4    4    0    0 -0.11689680885E-01 -0.20660273291E-02 -0.24630630432E-01  0.27346776494E-01  0.51100000000E-03 0.  1.
</event>
<event>
 8    1  0.1060404E+005  0.1043930E+01  0.7957747E-01            NaN
         13   -1    0    0    0    0  0.00000000000E+00  0.00000000000E+00  0.74505805969E-08  0.10566000000E+00  0.10566000000E+00 0. -1.
     999900   -1    0    0    0    0 -0.00000000000E+00 -0.00000000000E+00 -0.74505805969E-08  0.93827000000E+00  0.93827000000E+00 0.  1.
     999902    2    1    2    0    0  0.16178294857E-01 -0.25050394699E-01  0.14611865277E-02  0.10140737684E+01  0.10136341614E+01 0.  0.
     999903    2    3    3    0    0  0.14139761903E-01 -0.10714493063E+00 -0.65853607237E-01  0.12769069664E+00  0.16977850197E-01 0.  0.
         14    1    1    2    0    0 -0.16178294857E-01  0.25050394699E-01 -0.14611865277E-02  0.29856231596E-01  0.00000000000E+00 0.  1.
     999901    1    3    3    0    0  0.20385329542E-02  0.82094535927E-01  0.67314793765E-01  0.88638307176E+00  0.88000000000E+00 0. -1.
        -11    1    4    4    0    0  0.94159767332E-02 -0.19887931619E-01 -0.13618082702E-01  0.25882498708E-01  0.51100000000E-03 0.  1.
         11    1    4    4    0    0  0.47237851699E-02 -0.87256999007E-01 -0.52235524535E-01  0.10180819793E+00  0.51100000000E-03 0. -1.
</event>
<event>
 8    1  0.1060404E+005  0.1043930E+01  0.7957747E-01            NaN
         13   -1    0    0    0    0  0.00000000000E+00  0.00000000000E+00  0.74505805969E-08  0.10566000000E+00  0.10566000000E+00 0.  1.
     999900   -1    0    0    0    0 -0.00000000000E+00 -0.00000000000E+00 -0.74505805969E-08  0.93827000000E+00  0.93827000000E+00 0.  1.
     999902    2    1    2    0    0 -0.18994526291E-01  0.12897258476E-01 -0.67158975763E-03  0.10209608394E+01  0.10207024313E+01 0.  0.
     999903    2    3    3    0    0  0.12599070971E+00 -0.43333606903E-02  0.16934313281E-01  0.12875706184E+00  0.19979315784E-01 0.  0.
         14    1    1    2    0    0  0.18994526291E-01 -0.12897258476E-01  0.67158975763E-03  0.22969160586E-01  0.00000000000E+00 0.  1.
     999901    1    3    3    0    0 -0.14498523600E+00  0.17230619166E-01 -0.17605903038E-01  0.89220377757E+00  0.88000000000E+00 0.  1.
        -11    1    4    4    0    0  0.26588636367E-01  0.68635274133E-02  0.61526700905E-02  0.28145693501E-01  0.51100000000E-03 0.  1.
         11    1    4    4    0    0  0.99402073344E-01 -0.11196888104E-01  0.10781643190E-01  0.10061136834E+00  0.51100000000E-03 0. -1.
</event>
<event>
 8    1  0.1060404E+005  0.1043930E+01  0.7957747E-01            NaN
         13   -1    0    0    0    0  0.00000000000E+00  0.00000000000E+00  0.74505805969E-08  0.10566000000E+00  0.10566000000E+00 0.  1.
     999900   -1    0    0    0    0 -0.00000000000E+00 -0.00000000000E+00 -0.74505805969E-08  0.93827000000E+00  0.93827000000E+00 0.  1.
     999902    2    1    2    0    0 -0.22697189493E-02 -0.82305881007E-02 -0.21794878088E-01  0.10205225030E+01  0.10202540214E+01 0.  0.
     999903    2    3    3    0    0  0.38002790733E-01 -0.41085010233E-01  0.11386019019E+00  0.12861242590E+00  0.21090827792E-01 0.  0.
         14    1    1    2    0    0  0.22697189493E-02  0.82305881007E-02  0.21794878088E-01  0.23407496993E-01  0.00000000000E+00 0.  1.
     999901    1    3    3    0    0 -0.40272509683E-01  0.32854422133E-01 -0.13565506828E+00  0.89191007710E+00  0.88000000000E+00 0.  1.
        -11    1    4    4    0    0  0.35817971227E-02 -0.37657359291E-02  0.30980747530E-01  0.31417795534E-01  0.51100000000E-03 0.  1.
         11    1    4    4    0    0  0.34420993611E-01 -0.37319274304E-01  0.82879442661E-01  0.97194630369E-01  0.51100000000E-03 0. -1.
</event>
<event>
 8    1  0.1060404E+005  0.1043930E+01  0.7957747E-01            NaN
         13   -1    0    0    0    0  0.00000000000E+00  0.00000000000E+00  0.74505805969E-08  0.10566000000E+00  0.10566000000E+00 0. -1.
     999900   -1    0    0    0    0 -0.00000000000E+00 -0.00000000000E+00 -0.74505805969E-08  0.93827000000E+00  0.93827000000E+00 0.  1.
     999902    2    1    2    0    0 -0.13073728065E-01  0.14359105414E-01  0.12421929654E-01  0.10208776550E+01  0.10206173504E+01 0.  0.
     999903    2    3    3    0    0  0.38240356859E-01  0.11842986763E+00  0.41866059171E-01  0.13277247225E+00  0.19692740698E-01 0.  0.
         14    1    1    2    0    0  0.13073728065E-01 -0.14359105414E-01 -0.12421929654E-01  0.23052345003E-01  0.00000000000E+00 0.  1.
     999901    1    3    3    0    0 -0.51314084924E-01 -0.10407076222E+00 -0.29444129517E-01  0.88810518275E+00  0.88000000000E+00 0.  1.
        -11    1    4    4    0    0  0.14694942684E-01  0.69374743004E-01  0.16893486536E-01  0.72900255937E-01  0.51100000000E-03 0. -1.
         11    1    4    4    0    0  0.23545414176E-01  0.49055124630E-01  0.24972572634E-01  0.59872216312E-01  0.51100000000E-03 0.  1.
</event>
<event>
 8    1  0.1060404E+005  0.1043930E+01  0.7957747E-01            NaN
         13   -1    0    0    0    0  0.00000000000E+00  0.00000000000E+00  0.74505805969E-08  0.10566000000E+00  0.10566000000E+00 0. -1.
     999900   -1    0    0    0    0 -0.00000000000E+00 -0.00000000000E+00 -0.74505805969E-08  0.93827000000E+00  0.93827000000E+00 0. -1.
     999902    2    1    2    0    0 -0.19692039008E-02  0.23934019561E-01  0.51900276869E-03  0.10199095000E+01  0.10196266002E+01 0.  0.
     999903    2    3    3    0    0  0.10622495390E+00  0.16575638704E-01  0.71041804477E-01  0.13045259429E+00  0.20308834168E-01 0.  0.
         14    1    1    2    0    0  0.19692039008E-02 -0.23934019561E-01 -0.51900276869E-03  0.24020500000E-01  0.00000000000E+00 0. -1.
     999901    1    3    3    0    0 -0.10819415780E+00  0.73583808569E-02 -0.70522801709E-01  0.88945690571E+00  0.88000000000E+00 0. -1.
        -11    1    4    4    0    0  0.52928096113E-02  0.13042117798E-02  0.10302429953E-01  0.11666875584E-01  0.51100000000E-03 0. -1.
         11    1    4    4    0    0  0.10093214429E+00  0.15271426925E-01  0.60739374524E-01  0.11878571871E+00  0.51100000000E-03 0.  1.
</event>
<event>
 8    1  0.1060404E+005  0.1043930E+01  0.7957747E-01            NaN
         13   -1    0    0    0    0  0.00000000000E+00  0.00000000000E+00  0.74505805969E-08  0.10566000000E+00  0.10566000000E+00 0. -1.
     999900   -1    0    0    0    0 -0.00000000000E+00 -0.00000000000E+00 -0.74505805969E-08  0.93827000000E+00  0.93827000000E+00 0. -1.
     999902    2    1    2    0    0  0.77372330041E-02 -0.19559511111E-01 -0.88983215422E-02  0.10210910119E+01  0.10208355574E+01 0.  0.
     999903    2    3    3    0    0  0.25650556163E-01  0.91257830172E-01 -0.87116786315E-01  0.13051844414E+00  0.21442649200E-01 0.  0.
         14    1    1    2    0    0 -0.77372330041E-02  0.19559511111E-01  0.88983215422E-02  0.22838988063E-01  0.00000000000E+00 0. -1.
     999901    1    3    3    0    0 -0.17913323159E-01 -0.11081734128E+00  0.78218464772E-01  0.89057256779E+00  0.88000000000E+00 0. -1.
        -11    1    4    4    0    0  0.10292113489E-01  0.21506297913E-01 -0.33903446751E-01  0.41450612451E-01  0.51100000000E-03 0. -1.
         11    1    4    4    0    0  0.15358442674E-01  0.69751532259E-01 -0.53213339563E-01  0.89067831692E-01  0.51100000000E-03 0.  1.
</event>
<event>
 8    1  0.1060404E+005  0.1043930E+01  0.7957747E-01            NaN
         13   -1    0    0    0    0  0.00000000000E+00  0.00000000000E+00  0.74505805969E-08  0.10566000000E+00  0.10566000000E+00 0.  1.
     999900   -1    0    0    0    0 -0.00000000000E+00 -0.00000000000E+00 -0.74505805969E-08  0.93827000000E+00  0.93827000000E+00 0.  1.
     999902    2    1    2    0    0  0.14750199334E-01  0.13539304820E-01  0.14148847013E-01  0.10194132501E+01  0.10191183952E+01 0.  0.
     999903    2    3    3    0    0  0.72899721342E-01  0.77047139904E-01 -0.74004009849E-01  0.13082699190E+00  0.19709824904E-01 0.  0.
         14    1    1    2    0    0 -0.14750199334E-01 -0.13539304820E-01 -0.14148847013E-01  0.24516749931E-01  0.00000000000E+00 0. -1.
     999901    1    3    3    0    0 -0.58149522008E-01 -0.63507835084E-01  0.88152856862E-01  0.88858625817E+00  0.88000000000E+00 0. -1.
        -11    1    4    4    0    0  0.27495721730E-01  0.17928743716E-01 -0.16890184709E-01  0.36918748966E-01  0.51100000000E-03 0.  1.
         11    1    4    4    0    0  0.45403999612E-01  0.59118396188E-01 -0.57113825140E-01  0.93908242938E-01  0.51100000000E-03 0. -1.
</event>
<event>
 8    1  0.1060404E+005  0.1043930E+01  0.7957747E-01            NaN
         13   -1    0    0    0    0  0.00000000000E+00  0.00000000000E+00  0.74505805969E-08  0.10566000000E+00  0.10566000000E+00 0.  1.
     999900   -1    0    0    0    0 -0.00000000000E+00 -0.00000000000E+00 -0.74505805969E-08  0.93827000000E+00  0.93827000000E+00 0.  1.
     999902    2    1    2    0    0 -0.47262145811E-02 -0.11831517491E-01  0.17492392242E-01  0.10222896281E+01  0.10220605550E+01 0.  0.
     999903    2    3    3    0    0  0.31564002200E-01  0.12146507801E+00 -0.28919952936E-01  0.13030360353E+00  0.19814489811E-01 0.  0.
         14    1    1    2    0    0  0.47262145811E-02  0.11831517491E-01 -0.17492392242E-01  0.21640371918E-01  0.00000000000E+00 0. -1.
     999901    1    3    3    0    0 -0.36290216781E-01 -0.13329659550E+00  0.46412345178E-01  0.89198602455E+00  0.88000000000E+00 0. -1.
        -11    1    4    4    0    0 -0.53287444857E-03  0.30816092640E-01 -0.52562309272E-02  0.31269867370E-01  0.51100000000E-03 0. -1.
         11    1    4    4    0    0  0.32096876648E-01  0.90648985365E-01 -0.23663722009E-01  0.99033736164E-01  0.51100000000E-03 0.  1.
</event>
<event>
 8    1  0.1060404E+005  0.1043930E+01  0.7957747E-01            NaN
         13   -1    0    0    0    0  0.00000000000E+00  0.00000000000E+00  0.74505805969E-08  0.10566000000E+00  0.10566000000E+00 0. -1.
     999900   -1    0    0    0    0 -0.00000000000E+00 -0.00000000000E+00 -0.74505805969E-08  0.93827000000E+00  0.93827000000E+00 0.  1.
     999902    2    1    2    0    0  0.99336813908E-02 -0.19209303637E-01 -0.80529570279E-02  0.10208534862E+01  0.10205926292E+01 0.  0.
     999903    2    3    3    0    0 -0.78021753559E-01 -0.61741839068E-01  0.82488236488E-01  0.13082939505E+00  0.20311886425E-01 0.  0.
         14    1    1    2    0    0 -0.99336813908E-02  0.19209303637E-01  0.80529570279E-02  0.23076513799E-01  0.00000000000E+00 0. -1.
     999901    1    3    3    0    0  0.87955434950E-01  0.42532535430E-01 -0.90541193516E-01  0.89002409115E+00  0.88000000000E+00 0.  1.
        -11    1    4    4    0    0 -0.43636101721E-01 -0.42779933869E-01  0.59669451932E-01  0.85410401768E-01  0.51100000000E-03 0.  1.
         11    1    4    4    0    0 -0.34385651838E-01 -0.18961905198E-01  0.22818784556E-01  0.45418993282E-01  0.51100000000E-03 0. -1.
</event>
<event>
 8    1  0.1060404E+005  0.1043930E+01  0.7957747E-01            NaN
         13   -1    0    0    0    0  0.00000000000E+00  0.00000000000E+00  0.74505805969E-08  0.10566000000E+00  0.10566000000E+00 0.  1.
     999900   -1    0    0    0    0 -0.00000000000E+00 -0.00000000000E+00 -0.74505805969E-08  0.93827000000E+00  0.93827000000E+00 0. -1.
     999902    2    1    2    0    0 -0.12949282446E-01  0.59436265588E-02 -0.16418885828E-01  0.10221908550E+01  0.10219596634E+01 0.  0.
     999903    2    3    3    0    0  0.17335887860E-01 -0.11887979691E+00  0.47168392057E-01  0.13059598038E+00  0.19937747130E-01 0.  0.
         14    1    1    2    0    0  0.12949282446E-01 -0.59436265588E-02  0.16418885828E-01  0.21739144978E-01  0.00000000000E+00 0.  1.
     999901    1    3    3    0    0 -0.30285170306E-01  0.12482342347E+00 -0.63587277885E-01  0.89159487465E+00  0.88000000000E+00 0. -1.
        -11    1    4    4    0    0  0.19063038980E-01 -0.82321875288E-01  0.26490765297E-01  0.88556831318E-01  0.51100000000E-03 0. -1.
         11    1    4    4    0    0 -0.17271511208E-02 -0.36557921619E-01  0.20677626760E-01  0.42039149058E-01  0.51100000000E-03 0.  1.
</event>
<event>
 8    1  0.1060404E+005  0.1043930E+01  0.7957747E-01            NaN
         13   -1    0    0    0    0  0.00000000000E+00  0.00000000000E+00  0.74505805969E-08  0.10566000000E+00  0.10566000000E+00 0. -1.
     999900   -1    0    0    0    0 -0.00000000000E+00 -0.00000000000E+00 -0.74505805969E-08  0.93827000000E+00  0.93827000000E+00 0. -1.
     999902    2    1    2    0    0  0.24460877870E-02  0.12074118068E-01  0.18036126337E-01  0.10220880787E+01  0.10218546722E+01 0.  0.
     999903    2    3    3    0    0 -0.48295514759E-01  0.75056464501E-01  0.98170335596E-01  0.13475331793E+00  0.23560821128E-01 0.  0.
         14    1    1    2    0    0 -0.24460877870E-02 -0.12074118068E-01 -0.18036126337E-01  0.21841921295E-01  0.00000000000E+00 0.  1.
     999901    1    3    3    0    0  0.50741602546E-01 -0.62982346433E-01 -0.80134209259E-01  0.88733476078E+00  0.88000000000E+00 0. -1.
        -11    1    4    4    0    0 -0.34450123938E-01  0.66279247769E-01  0.71252255080E-01  0.10323223672E+00  0.51100000000E-03 0. -1.
         11    1    4    4    0    0 -0.13845390821E-01  0.87772167324E-02  0.26918080516E-01  0.31521081203E-01  0.51100000000E-03 0.  1.
</event>
<event>
 8    1  0.1060404E+005  0.1043930E+01  0.7957747E-01            NaN
         13   -1    0    0    0    0  0.00000000000E+00  0.00000000000E+00  0.74505805969E-08  0.10566000000E+00  0.10566000000E+00 0.  1.
     999900   -1    0    0    0    0 -0.00000000000E+00 -0.00000000000E+00 -0.74505805969E-08  0.93827000000E+00  0.93827000000E+00 0.  1.
     999902    2    1    2    0    0 -0.21977491100E-02 -0.76069844590E-03 -0.23237318556E-01  0.10205765905E+01  0.10203093625E+01 0.  0.
     999903    2    3    3    0    0 -0.11352783160E+00 -0.56042074407E-02 -0.65258411758E-01  0.13255428268E+00  0.19799036894E-01 0.  0.
         14    1    1    2    0    0  0.21977491100E-02  0.76069844590E-03  0.23237318556E-01  0.23353409536E-01  0.00000000000E+00 0.  1.
     999901    1    3    3    0    0  0.11133008249E+00  0.48435089948E-02  0.42021093202E-01  0.88802230778E+00  0.88000000000E+00 0.  1.
        -11    1    4    4    0    0 -0.77670517745E-01 -0.10361404219E-01 -0.51912085081E-01  0.93995711192E-01  0.51100000000E-03 0.  1.
         11    1    4    4    0    0 -0.35857313860E-01  0.47571967782E-02 -0.13346326677E-01  0.38558571488E-01  0.51100000000E-03 0. -1.
</event>
<event>
 8    1  0.1060404E+005  0.1043930E+01  0.7957747E-01            NaN
         13   -1    0    0    0    0  0.00000000000E+00  0.00000000000E+00  0.74505805969E-08  0.10566000000E+00  0.10566000000E+00 0. -1.
     999900   -1    0    0    0    0 -0.00000000000E+00 -0.00000000000E+00 -0.74505805969E-08  0.93827000000E+00  0.93827000000E+00 0.  1.
     999902    2    1    2    0    0 -0.53365093141E-02  0.43885429227E-02  0.22580287168E-01  0.10203162962E+01  0.10200430075E+01 0.  0.
     999903    2    3    3    0    0 -0.11272828743E+00 -0.45490412014E-01  0.47294886867E-01  0.13204172397E+00  0.20522333502E-01 0.  0.
         14    1    1    2    0    0  0.53365093141E-02 -0.43885429227E-02 -0.22580287168E-01  0.23613703844E-01  0.00000000000E+00 0.  1.
     999901    1    3    3    0    0  0.10739177812E+00  0.49878954936E-01 -0.24714599699E-01  0.88827457219E+00  0.88000000000E+00 0. -1.
        -11    1    4    4    0    0 -0.41333265488E-01 -0.18353853682E-01  0.28241331835E-01  0.53321072060E-01  0.51100000000E-03 0.  1.
         11    1    4    4    0    0 -0.71395021946E-01 -0.27136558332E-01  0.19053555032E-01  0.78720651910E-01  0.51100000000E-03 0. -1.
</event>
<event>
 8    1  0.1060404E+005  0.1043930E+01  0.7957747E-01            NaN
         13   -1    0    0    0    0  0.00000000000E+00  0.00000000000E+00  0.74505805969E-08  0.10566000000E+00  0.10566000000E+00 0. -1.
     999900   -1    0    0    0    0 -0.00000000000E+00 -0.00000000000E+00 -0.74505805969E-08  0.93827000000E+00  0.93827000000E+00 0.  1.
     999902    2    1    2    0    0 -0.23701990064E-01 -0.33650502796E-03  0.53527211713E-02  0.10196287821E+01  0.10193391506E+01 0.  0.
     999903    2    3    3    0    0 -0.95952162011E-01  0.80714847558E-03 -0.87513075162E-01  0.13179689967E+00  0.22459197558E-01 0.  0.
         14    1    1    2    0    0  0.23701990064E-01  0.33650502796E-03 -0.53527211713E-02  0.24301217924E-01  0.00000000000E+00 0.  1.
     999901    1    3    3    0    0  0.72250171947E-01 -0.11436535035E-02  0.92865796333E-01  0.88783188241E+00  0.88000000000E+00 0. -1.
        -11    1    4    4    0    0 -0.37386967166E-01  0.85590453134E-02 -0.44316028912E-01  0.58610699621E-01  0.51100000000E-03 0. -1.
         11    1    4    4    0    0 -0.58565194845E-01 -0.77518968379E-02 -0.43197046250E-01  0.73186200048E-01  0.51100000000E-03 0.  1.
</event>
<event>
 8    1  0.1060404E+005  0.1043930E+01  0.7957747E-01            NaN
         13   -1    0    0    0    0  0.00000000000E+00  0.00000000000E+00  0.74505805969E-08  0.10566000000E+00  0.10566000000E+00 0.  1.
     999900   -1    0    0    0    0 -0.00000000000E+00 -0.00000000000E+00 -0.74505805969E-08  0.93827000000E+00  0.93827000000E+00 0.  1.
     999902    2    1    2    0    0 -0.14657270805E-01 -0.92815495717E-02  0.15530877970E-01  0.10206450065E+01  0.10203793601E+01 0.  0.
     999903    2    3    3    0    0  0.11533045450E+00 -0.47413104120E-01  0.32247477462E-01  0.13012253693E+00  0.18516442378E-01 0.  0.
         14    1    1    2    0    0  0.14657270805E-01  0.92815495717E-02 -0.15530877970E-01  0.23284993459E-01  0.00000000000E+00 0. -1.
     999901    1    3    3    0    0 -0.12998772530E+00  0.38131554549E-01 -0.16716599492E-01  0.89052246961E+00  0.88000000000E+00 0.  1.
        -11    1    4    4    0    0  0.80701732349E-01 -0.39267791556E-01  0.29352293129E-01  0.94427471060E-01  0.51100000000E-03 0.  1.
         11    1    4    4    0    0  0.34628722146E-01 -0.81453125646E-02  0.28951843330E-02  0.35695065871E-01  0.51100000000E-03 0. -1.
</event>
<event>
 8    1  0.1060404E+005  0.1043930E+01  0.7957747E-01            NaN
         13   -1    0    0    0    0  0.00000000000E+00  0.00000000000E+00  0.74505805969E-08  0.10566000000E+00  0.10566000000E+00 0. -1.
     999900   -1    0    0    0    0 -0.00000000000E+00 -0.00000000000E+00 -0.74505805969E-08  0.93827000000E+00  0.93827000000E+00 0. -1.
     999902    2    1    2    0    0 -0.15911773002E-01 -0.14397873486E-01  0.70529190765E-02  0.10213417963E+01  0.10210919830E+01 0.  0.
     999903    2    3    3    0    0  0.35723051251E-01  0.12229811199E+00 -0.82997635830E-02  0.12916039520E+00  0.19507870844E-01 0.  0.
         14    1    1    2    0    0  0.15911773002E-01  0.14397873486E-01 -0.70529190765E-02  0.22588203747E-01  0.00000000000E+00 0. -1.
     999901    1    3    3    0    0 -0.51634824254E-01 -0.13669598548E+00  0.15352682660E-01  0.89218140105E+00  0.88000000000E+00 0.  1.
        -11    1    4    4    0    0  0.81351983640E-02  0.38491526639E-01 -0.11109869130E-01  0.40883607821E-01  0.51100000000E-03 0.  1.
         11    1    4    4    0    0  0.27587852887E-01  0.83806585354E-01  0.28101055470E-02  0.88276787378E-01  0.51100000000E-03 0. -1.
</event>
<event>
 7    1  0.1060404E+005  0.1043930E+01  0.7957747E-01            NaN
         13   -1    0    0    0    0  0.00000000000E+00  0.00000000000E+00  0.74505805969E-08  0.10566000000E+00  0.10566000000E+00 0.  1.
     999900   -1    0    0    0    0 -0.00000000000E+00 -0.00000000000E+00 -0.74505805969E-08  0.93827000000E+00  0.93827000000E+00 0.  1.
     999903    2    1    2    0    0  0.64638144257E-01  0.14797187711E-01 -0.69690165305E-01  0.98324077792E-01  0.20343516814E-01 0.  0.
         14    1    1    2    0    0  0.10537710506E-01  0.24201972783E-01 -0.46967063495E-01  0.53876561533E-01  0.00000000000E+00 0. -1.
     999901    1    1    2    0    0 -0.75175854763E-01 -0.38999160494E-01  0.11665722880E+00  0.89172936067E+00  0.88000000000E+00 0. -1.
        -11    1    3    3    0    0  0.12859368109E-01 -0.22613783174E-02 -0.23414269114E-01  0.26813546934E-01  0.51100000000E-03 0. -1.
         11    1    3    3    0    0  0.51778776148E-01  0.17058566028E-01 -0.46275896191E-01  0.71510530858E-01  0.51100000000E-03 0.  1.
</event>
<event>
 8    1  0.1060404E+005  0.1043930E+01  0.7957747E-01            NaN
         13   -1    0    0    0    0  0.00000000000E+00  0.00000000000E+00  0.74505805969E-08  0.10566000000E+00  0.10566000000E+00 0.  1.
     999900   -1    0    0    0    0 -0.00000000000E+00 -0.00000000000E+00 -0.74505805969E-08  0.93827000000E+00  0.93827000000E+00 0. -1.
     999902    2    1    2    0    0 -0.21543436988E-01 -0.28490716264E-02  0.60334422894E-02  0.10213769667E+01  0.10211279395E+01 0.  0.
     999903    2    3    3    0    0 -0.95063065974E-01  0.40319517097E-01  0.82266953914E-01  0.13397614901E+00  0.22783915936E-01 0.  0.
         14    1    1    2    0    0  0.21543436988E-01  0.28490716264E-02 -0.60334422894E-02  0.22553033327E-01  0.00000000000E+00 0.  1.
     999901    1    3    3    0    0  0.73519628986E-01 -0.43168588723E-01 -0.76233511625E-01  0.88740081767E+00  0.88000000000E+00 0. -1.
        -11    1    4    4    0    0 -0.13391205715E-01  0.39997565286E-02  0.25663855135E-02  0.14218646152E-01  0.51100000000E-03 0.  1.
         11    1    4    4    0    0 -0.81671860259E-01  0.36319760568E-01  0.79700568401E-01  0.11975750286E+00  0.51100000000E-03 0. -1.
</event>
<event>
 8    1  0.1060404E+005  0.1043930E+01  0.7957747E-01            NaN
         13   -1    0    0    0    0  0.00000000000E+00  0.00000000000E+00  0.74505805969E-08  0.10566000000E+00  0.10566000000E+00 0. -1.
     999900   -1    0    0    0    0 -0.00000000000E+00 -0.00000000000E+00 -0.74505805969E-08  0.93827000000E+00  0.93827000000E+00 0.  1.
     999902    2    1    2    0    0 -0.36487477435E-02 -0.13783582145E-02 -0.23507166622E-01  0.10201014433E+01  0.10198230996E+01 0.  0.
     999903    2    3    3    0    0 -0.88108594632E-01  0.92521484141E-01 -0.21257439699E-01  0.13108192305E+00  0.20180246075E-01 0.  0.
         14    1    1    2    0    0  0.36487477435E-02  0.13783582145E-02  0.23507166622E-01  0.23828556693E-01  0.00000000000E+00 0. -1.
     999901    1    3    3    0    0  0.84459846889E-01 -0.93899842356E-01 -0.22497269233E-02  0.88901952026E+00  0.88000000000E+00 0.  1.
        -11    1    4    4    0    0 -0.32463126764E-01  0.37130586727E-01 -0.17975892255E-01  0.52496941752E-01  0.51100000000E-03 0.  1.
         11    1    4    4    0    0 -0.55645467869E-01  0.55390897414E-01 -0.32815474440E-02  0.78584981296E-01  0.51100000000E-03 0. -1.
</event>
<event>
 8    1  0.1060404E+005  0.1043930E+01  0.7957747E-01            NaN
         13   -1    0    0    0    0  0.00000000000E+00  0.00000000000E+00  0.74505805969E-08  0.10566000000E+00  0.10566000000E+00 0.  1.
     999900   -1    0    0    0    0 -0.00000000000E+00 -0.00000000000E+00 -0.74505805969E-08  0.93827000000E+00  0.93827000000E+00 0. -1.
     999902    2    1    2    0    0 -0.77570414694E-02 -0.12928996339E-01  0.11784093575E-01  0.10247937647E+01  0.10246150813E+01 0.  0.
     999903    2    3    3    0    0 -0.17655395620E-01  0.11318179913E+00 -0.63672022933E-01  0.13255190534E+00  0.19850653781E-01 0.  0.
         14    1    1    2    0    0  0.77570414694E-02  0.12928996339E-01 -0.11784093575E-01  0.19136235264E-01  0.00000000000E+00 0. -1.
     999901    1    3    3    0    0  0.98983541509E-02 -0.12611079547E+00  0.75456116507E-01  0.89224185940E+00  0.88000000000E+00 0.  1.
        -11    1    4    4    0    0 -0.93040877392E-02  0.27824464867E-01 -0.24661408086E-01  0.38330315203E-01  0.51100000000E-03 0. -1.
         11    1    4    4    0    0 -0.83513078810E-02  0.85357334261E-01 -0.39010614847E-01  0.94221590133E-01  0.51100000000E-03 0.  1.
</event>
<event>
 8    1  0.1060404E+005  0.1043930E+01  0.7957747E-01            NaN
         13   -1    0    0    0    0  0.00000000000E+00  0.00000000000E+00  0.74505805969E-08  0.10566000000E+00  0.10566000000E+00 0.  1.
     999900   -1    0    0    0    0 -0.00000000000E+00 -0.00000000000E+00 -0.74505805969E-08  0.93827000000E+00  0.93827000000E+00 0. -1.
     999902    2    1    2    0    0  0.18631790690E-01 -0.15339596863E-01 -0.80859508105E-02  0.10184775059E+01  0.10181594180E+01 0.  0.
     999903    2    3    3    0    0  0.23358862998E-02  0.11893339073E+00  0.39089558697E-01  0.12689446410E+00  0.20581633203E-01 0.  0.
         14    1    1    2    0    0 -0.18631790690E-01  0.15339596863E-01  0.80859508105E-02  0.25452494116E-01  0.00000000000E+00 0.  1.
     999901    1    3    3    0    0  0.16295904390E-01 -0.13427298759E+00 -0.47175509507E-01  0.89158304178E+00  0.88000000000E+00 0. -1.
        -11    1    4    4    0    0 -0.32061168139E-02  0.12996433698E-01  0.10516698836E-01  0.17030811763E-01  0.51100000000E-03 0.  1.
         11    1    4    4    0    0  0.55420031137E-02  0.10593695703E+00  0.28572859860E-01  0.10986365234E+00  0.51100000000E-03 0. -1.
</event>
<event>
 8    1  0.1449295E+005  0.1043930E+01  0.7957747E-01            NaN
         13   -1    0    0    0    0  0.00000000000E+00  0.00000000000E+00  0.74505805969E-08  0.10566000000E+00  0.10566000000E+00 0. -1.
     999900   -1    0    0    0    0 -0.00000000000E+00 -0.00000000000E+00 -0.74505805969E-08  0.93827000000E+00  0.93827000000E+00 0.  1.
     999902    2    1    2    0    0  0.23408160826E-03 -0.19630511076E-01  0.14005234495E-01  0.10198144790E+01  0.10195293097E+01 0.  0.
     999903    2    3    3    0    0  0.12144083400E-02  0.29036600135E-01 -0.12296923953E+00  0.12788877847E+00  0.19735927988E-01 0.  0.
         14    1    1    2    0    0 -0.23408160826E-03  0.19630511076E-01 -0.14005234495E-01  0.24115520989E-01  0.00000000000E+00 0. -1.
     999901    1    3    3    0    0 -0.98032673177E-03 -0.48667111211E-01  0.13697447402E+00  0.89192570054E+00  0.88000000000E+00 0.  1.
        -11    1    4    4    0    0 -0.19048603933E-02  0.19593305931E-01 -0.42913476591E-01  0.47216032495E-01  0.51100000000E-03 0. -1.
         11    1    4    4    0    0  0.31192687333E-02  0.94432942042E-02 -0.80055762935E-01  0.80672745974E-01  0.51100000000E-03 0.  1.
</event>
<event>
 8    1  0.1060404E+005  0.1043930E+01  0.7957747E-01            NaN
         13   -1    0    0    0    0  0.00000000000E+00  0.00000000000E+00  0.74505805969E-08  0.10566000000E+00  0.10566000000E+00 0. -1.
     999900   -1    0    0    0    0 -0.00000000000E+00 -0.00000000000E+00 -0.74505805969E-08  0.93827000000E+00  0.93827000000E+00 0. -1.
     999902    2    1    2    0    0  0.17793405039E-01  0.11554122278E-01 -0.11236092230E-01  0.10199226517E+01  0.10196400652E+01 0.  0.
     999903    2    3    3    0    0 -0.45782850328E-01  0.35582570571E-01  0.11365373750E+00  0.12850985385E+00  0.15343460353E-01 0.  0.
         14    1    1    2    0    0 -0.17793405039E-01 -0.11554122278E-01  0.11236092230E-01  0.24007348315E-01  0.00000000000E+00 0. -1.
     999901    1    3    3    0    0  0.63576255367E-01 -0.24028448293E-01 -0.12488982973E+00  0.89141279784E+00  0.88000000000E+00 0. -1.
        -11    1    4    4    0    0 -0.37897163885E-01  0.25058271882E-01  0.75132085895E-01  0.87802069863E-01  0.51100000000E-03 0. -1.
         11    1    4    4    0    0 -0.78856864431E-02  0.10524298689E-01  0.38521651608E-01  0.40707783987E-01  0.51100000000E-03 0.  1.
</event>
<event>
 8    1  0.1060404E+005  0.1043930E+01  0.7957747E-01            NaN
         13   -1    0    0    0    0  0.00000000000E+00  0.00000000000E+00  0.74505805969E-08  0.10566000000E+00  0.10566000000E+00 0.  1.
     999900   -1    0    0    0    0 -0.00000000000E+00 -0.00000000000E+00 -0.74505805969E-08  0.93827000000E+00  0.93827000000E+00 0.  1.
     999902    2    1    2    0    0 -0.52066727063E-02  0.22518786374E-01  0.14385179480E-01  0.10167061397E+01  0.10163415941E+01 0.  0.
     999903    2    3    3    0    0  0.11986094601E+00 -0.26715183336E-01  0.21872578659E-01  0.12646911837E+00  0.20872968252E-01 0.  0.
         14    1    1    2    0    0  0.52066727063E-02 -0.22518786374E-01 -0.14385179480E-01  0.27223860291E-01  0.00000000000E+00 0.  1.
     999901    1    3    3    0    0 -0.12506761872E+00  0.49233969711E-01 -0.74873991783E-02  0.89023702134E+00  0.88000000000E+00 0. -1.
        -11    1    4    4    0    0  0.17184131155E-01 -0.10019275074E-01 -0.11274329228E-02  0.19930189728E-01  0.51100000000E-03 0. -1.
         11    1    4    4    0    0  0.10267681486E+00 -0.16695908262E-01  0.23000011582E-01  0.10653892864E+00  0.51100000000E-03 0.  1.
</event>
<event>
 8    1  0.1060404E+005  0.1043930E+01  0.7957747E-01            NaN
         13   -1    0    0    0    0  0.00000000000E+00  0.00000000000E+00  0.74505805969E-08  0.10566000000E+00  0.10566000000E+00 0.  1.
     999900   -1    0    0    0    0 -0.00000000000E+00 -0.00000000000E+00 -0.74505805969E-08  0.93827000000E+00  0.93827000000E+00 0.  1.
     999902    2    1    2    0    0  0.17710517863E-01 -0.15846885040E-01 -0.49497944387E-03  0.10201596148E+01  0.10198826444E+01 0.  0.
     999903    2    3    3    0    0  0.60511944432E-01  0.11271516810E+00 -0.73319512974E-02  0.12976256414E+00  0.20448985411E-01 0.  0.
         14    1    1    2    0    0 -0.17710517863E-01  0.15846885040E-01  0.49497944387E-03  0.23770385211E-01  0.00000000000E+00 0. -1.
     999901    1    3    3    0    0 -0.42801426569E-01 -0.12856205313E+00  0.68369718535E-02  0.89039705065E+00  0.88000000000E+00 0. -1.
        -11    1    4    4    0    0  0.61584792162E-01  0.10682084982E+00 -0.86528206059E-02  0.12360628224E+00  0.51100000000E-03 0.  1.
         11    1    4    4    0    0 -0.10728477303E-02  0.58943182701E-02  0.13208693086E-02  0.61562819016E-02  0.51100000000E-03 0. -1.
</event>
<event>
 8    1  0.1060404E+005  0.1043930E+01  0.7957747E-01            NaN
         13   -1    0    0    0    0  0.00000000000E+00  0.00000000000E+00  0.74505805969E-08  0.10566000000E+00  0.10566000000E+00 0. -1.
     999900   -1    0    0    0    0 -0.00000000000E+00 -0.00000000000E+00 -0.74505805969E-08  0.93827000000E+00  0.93827000000E+00 0.  1.
     999902    2    1    2    0    0  0.17754667483E-02 -0.22996901157E-01 -0.41373979606E-02  0.10204965238E+01  0.10202274390E+01 0.  0.
     999903    2    3    3    0    0  0.11297384862E-01 -0.23499126019E-01 -0.12771477061E+00  0.13181081660E+00  0.19575211679E-01 0.  0.
         14    1    1    2    0    0 -0.17754667483E-02  0.22996901157E-01  0.41373979606E-02  0.23433476201E-01  0.00000000000E+00 0.  1.
     999901    1    3    3    0    0 -0.95219181137E-02  0.50222486215E-03  0.12357737265E+00  0.88868570720E+00  0.88000000000E+00 0. -1.
        -11    1    4    4    0    0  0.55616300114E-02  0.22674820872E-02 -0.18855785499E-01  0.19795832167E-01  0.51100000000E-03 0. -1.
         11    1    4    4    0    0  0.57357548506E-02 -0.25766608106E-01 -0.10885898511E+00  0.11201498443E+00  0.51100000000E-03 0.  1.
</event>
<event>
 8    1  0.1060404E+005  0.1043930E+01  0.7957747E-01            NaN
         13   -1    0    0    0    0  0.00000000000E+00  0.00000000000E+00  0.74505805969E-08  0.10566000000E+00  0.10566000000E+00 0. -1.
     999900   -1    0    0    0    0 -0.00000000000E+00 -0.00000000000E+00 -0.74505805969E-08  0.93827000000E+00  0.93827000000E+00 0. -1.
     999902    2    1    2    0    0  0.39892615248E-02 -0.92006714581E-02 -0.21468786083E-01  0.10202345292E+01  0.10199593223E+01 0.  0.
     999903    2    3    3    0    0  0.59696646270E-01  0.14172461339E-01  0.11089373804E+00  0.12828752745E+00  0.19892720450E-01 0.  0.
         14    1    1    2    0    0 -0.39892615248E-02  0.92006714581E-02  0.21468786083E-01  0.23695470847E-01  0.00000000000E+00 0. -1.
     999901    1    3    3    0    0 -0.55707384745E-01 -0.23373132797E-01 -0.13236252412E+00  0.89194700170E+00  0.88000000000E+00 0. -1.
        -11    1    4    4    0    0  0.13821947165E-01 -0.41308466722E-02  0.33463606592E-01  0.36444261617E-01  0.51100000000E-03 0.  1.
         11    1    4    4    0    0  0.45874699105E-01  0.18303308011E-01  0.77430131447E-01  0.91843265834E-01  0.51100000000E-03 0. -1.
</event>
<event>
 8    1  0.1060404E+005  0.1043930E+01  0.7957747E-01            NaN
         13   -1    0    0    0    0  0.00000000000E+00  0.00000000000E+00  0.74505805969E-08  0.10566000000E+00  0.10566000000E+00 0. -1.
     999900   -1    0    0    0    0 -0.00000000000E+00 -0.00000000000E+00 -0.74505805969E-08  0.93827000000E+00  0.93827000000E+00 0. -1.
     999902    2    1    2    0    0 -0.14183541590E-01 -0.55008989656E-02 -0.22509478253E-01  0.10167618320E+01  0.10163987966E+01 0.  0.
     999903    2    3    3    0    0  0.83472775391E-01 -0.92099304050E-01 -0.17305315191E-01  0.12711969983E+00  0.20247422383E-01 0.  0.
         14    1    1    2    0    0  0.14183541590E-01  0.55008989656E-02  0.22509478253E-01  0.27168168004E-01  0.00000000000E+00 0. -1.
     999901    1    3    3    0    0 -0.97656316981E-01  0.86598405085E-01 -0.52041630629E-02  0.88964213216E+00  0.88000000000E+00 0.  1.
        -11    1    4    4    0    0  0.59858659019E-01 -0.51849234466E-01 -0.12988778430E-01  0.80251926210E-01  0.51100000000E-03 0. -1.
         11    1    4    4    0    0  0.23614116372E-01 -0.40250069584E-01 -0.43165367603E-02  0.46867773621E-01  0.51100000000E-03 0.  1.
</event>
<event>
 8    1  0.1060404E+005  0.1043930E+01  0.7957747E-01            NaN
         13   -1    0    0    0    0  0.00000000000E+00  0.00000000000E+00  0.74505805969E-08  0.10566000000E+00  0.10566000000E+00 0. -1.
     999900   -1    0    0    0    0 -0.00000000000E+00 -0.00000000000E+00 -0.74505805969E-08  0.93827000000E+00  0.93827000000E+00 0. -1.
     999902    2    1    2    0    0 -0.15555375727E-01  0.76239688106E-02 -0.14254438660E-01  0.10214960160E+01  0.10212496400E+01 0.  0.
     999903    2    3    3    0    0  0.53852399630E-01  0.99870476906E-01  0.61953524418E-01  0.13069047544E+00  0.19172065108E-01 0.  0.
         14    1    1    2    0    0  0.15555375727E-01 -0.76239688106E-02  0.14254438660E-01  0.22433983952E-01  0.00000000000E+00 0. -1.
     999901    1    3    3    0    0 -0.69407775357E-01 -0.92246508095E-01 -0.76207963079E-01  0.89080554060E+00  0.88000000000E+00 0. -1.
        -11    1    4    4    0    0  0.30757234343E-01  0.45944052580E-01  0.21004351433E-01  0.59146490446E-01  0.51100000000E-03 0. -1.
         11    1    4    4    0    0  0.23095165287E-01  0.53926424325E-01  0.40949172985E-01  0.71543984997E-01  0.51100000000E-03 0.  1.
</event>
<event>
 8    1  0.1060404E+005  0.1043930E+01  0.7957747E-01            NaN
         13   -1    0    0    0    0  0.00000000000E+00  0.00000000000E+00  0.74505805969E-08  0.10566000000E+00  0.10566000000E+00 0. -1.
     999900   -1    0    0    0    0 -0.00000000000E+00 -0.00000000000E+00 -0.74505805969E-08  0.93827000000E+00  0.93827000000E+00 0.  1.
     999902    2    1    2    0    0  0.11973933375E-01  0.14074964373E-01 -0.15016348171E-01  0.10201188594E+01  0.10198409273E+01 0.  0.
     999903    2    3    3    0    0  0.27733916718E-01 -0.60064256169E-02  0.12411174404E+00  0.12882302452E+00  0.19657043312E-01 0.  0.
         14    1    1    2    0    0 -0.11973933375E-01 -0.14074964373E-01  0.15016348171E-01  0.23811140564E-01  0.00000000000E+00 0. -1.
     999901    1    3    3    0    0 -0.15759983343E-01  0.20081389990E-01 -0.13912809221E+00  0.89129583492E+00  0.88000000000E+00 0.  1.
        -11    1    4    4    0    0  0.63455956766E-02  0.69811037223E-02  0.36997452909E-01  0.38184748741E-01  0.51100000000E-03 0.  1.
         11    1    4    4    0    0  0.21388321042E-01 -0.12987529339E-01  0.87114291133E-01  0.90638275777E-01  0.51100000000E-03 0. -1.
</event>
<event>
 8    1  0.1060404E+005  0.1043930E+01  0.7957747E-01            NaN
         13   -1    0    0    0    0  0.00000000000E+00  0.00000000000E+00  0.74505805969E-08  0.10566000000E+00  0.10566000000E+00 0. -1.
     999900   -1    0    0    0    0 -0.00000000000E+00 -0.00000000000E+00 -0.74505805969E-08  0.93827000000E+00  0.93827000000E+00 0.  1.
     999902    2    1    2    0    0  0.18563532856E-01 -0.92803117324E-02 -0.16986332692E-01  0.10171108942E+01  0.10167572506E+01 0.  0.
     999903    2    3    3    0    0 -0.20070296108E-01 -0.43872094913E-01 -0.11881052916E+00  0.12972296820E+00  0.19609414657E-01 0.  0.
         14    1    1    2    0    0 -0.18563532856E-01  0.92803117324E-02  0.16986332692E-01  0.26819105807E-01  0.00000000000E+00 0. -1.
     999901    1    3    3    0    0  0.38633828965E-01  0.34591783180E-01  0.10182419647E+00  0.88738792599E+00  0.88000000000E+00 0. -1.
        -11    1    4    4    0    0 -0.21170912253E-01 -0.27635850839E-01 -0.91851929016E-01  0.98229251052E-01  0.51100000000E-03 0. -1.
         11    1    4    4    0    0  0.11006161442E-02 -0.16236244074E-01 -0.26958600142E-01  0.31493717153E-01  0.51100000000E-03 0.  1.
</event>
<event>
 8    1  0.1060404E+005  0.1043930E+01  0.7957747E-01            NaN
         13   -1    0    0    0    0  0.00000000000E+00  0.00000000000E+00  0.74505805969E-08  0.10566000000E+00  0.10566000000E+00 0. -1.
     999900   -1    0    0    0    0 -0.00000000000E+00 -0.00000000000E+00 -0.74505805969E-08  0.93827000000E+00  0.93827000000E+00 0.  1.
     999902    2    1    2    0    0 -0.20210129982E-01 -0.12142822986E-01  0.18749955970E-02  0.10202780844E+01  0.10200039002E+01 0.  0.
     999903    2    3    3    0    0  0.12555492530E+00 -0.15187929312E-01  0.61125543347E-02  0.12827209734E+00  0.20534243904E-01 0.  0.
         14    1    1    2    0    0  0.20210129982E-01  0.12142822986E-01 -0.18749955970E-02  0.23651915619E-01  0.00000000000E+00 0. -1.
     999901    1    3    3    0    0 -0.14576505528E+00  0.30451063262E-02 -0.42375587377E-02  0.89200598704E+00  0.88000000000E+00 0.  1.
        -11    1    4    4    0    0  0.73106019443E-01 -0.17219033167E-01  0.93157469466E-02  0.75683746236E-01  0.51100000000E-03 0.  1.
         11    1    4    4    0    0  0.52448905852E-01  0.20311038553E-02 -0.32031926119E-02  0.52588351105E-01  0.51100000000E-03 0. -1.
</event>
<event>
 8    1  0.1060404E+005  0.1043930E+01  0.7957747E-01            NaN
         13   -1    0    0    0    0  0.00000000000E+00  0.00000000000E+00  0.74505805969E-08  0.10566000000E+00  0.10566000000E+00 0. -1.
     999900   -1    0    0    0    0 -0.00000000000E+00 -0.00000000000E+00 -0.74505805969E-08  0.93827000000E+00  0.93827000000E+00 0. -1.
     999902    2    1    2    0    0 -0.10043545112E-02 -0.39407556263E-02  0.24776016491E-01  0.10188224458E+01  0.10185130273E+01 0.  0.
     999903    2    3    3    0    0 -0.10156971795E+00 -0.75508930479E-01 -0.16845846396E-01  0.12923390306E+00  0.19990321968E-01 0.  0.
         14    1    1    2    0    0  0.10043545112E-02  0.39407556263E-02 -0.24776016491E-01  0.25107554163E-01  0.00000000000E+00 0.  1.
     999901    1    3    3    0    0  0.10056536344E+00  0.71568174853E-01  0.41621862887E-01  0.88958854278E+00  0.88000000000E+00 0.  1.
        -11    1    4    4    0    0 -0.10750347892E-01 -0.16001432281E-01  0.42711937073E-03  0.19288840474E-01  0.51100000000E-03 0.  1.
         11    1    4    4    0    0 -0.90819370056E-01 -0.59507498198E-01 -0.17272965766E-01  0.10994506258E+00  0.51100000000E-03 0. -1.
</event>
<event>
 8    1  0.1060404E+005  0.1043930E+01  0.7957747E-01            NaN
         13   -1    0    0    0    0  0.00000000000E+00  0.00000000000E+00  0.74505805969E-08  0.10566000000E+00  0.10566000000E+00 0. -1.
     999900   -1    0    0    0    0 -0.00000000000E+00 -0.00000000000E+00 -0.74505805969E-08  0.93827000000E+00  0.93827000000E+00 0.  1.
     999902    2    1    2    0    0 -0.11611982584E-01  0.19911624069E-01 -0.70715786681E-02  0.10198194600E+01  0.10195344099E+01 0.  0.
     999903    2    3    3    0    0 -0.30327989297E-01  0.12221622870E+00 -0.38323224880E-01  0.13314410432E+00  0.20052168428E-01 0.  0.
         14    1    1    2    0    0  0.11611982584E-01 -0.19911624069E-01  0.70715786681E-02  0.24110539966E-01  0.00000000000E+00 0. -1.
     999901    1    3    3    0    0  0.18716006713E-01 -0.10230460463E+00  0.31251646212E-01  0.88667535571E+00  0.88000000000E+00 0. -1.
        -11    1    4    4    0    0 -0.18939046926E-01  0.73204470363E-01 -0.12699033646E-01  0.76675345165E-01  0.51100000000E-03 0. -1.
         11    1    4    4    0    0 -0.11388942370E-01  0.49011758335E-01 -0.25624191234E-01  0.56468759158E-01  0.51100000000E-03 0.  1.
</event>
<event>
 8    1  0.1114180E+005  0.1043930E+01  0.7957747E-01            NaN
         13   -1    0    0    0    0  0.00000000000E+00  0.00000000000E+00  0.74505805969E-08  0.10566000000E+00  0.10566000000E+00 0. -1.
     999900   -1    0    0    0    0 -0.00000000000E+00 -0.00000000000E+00 -0.74505805969E-08  0.93827000000E+00  0.93827000000E+00 0.  1.
     999902    2    1    2    0    0  0.14536557529E-01 -0.78554772906E-02  0.16851610260E-01  0.10203292204E+01  0.10200562344E+01 0.  0.
     999903    2    3    3    0    0  0.13469806503E-01 -0.11246455300E+00  0.66268576085E-01  0.13275599348E+00  0.20072823889E-01 0.  0.
         14    1    1    2    0    0 -0.14536557529E-01  0.78554772906E-02 -0.16851610260E-01  0.23600779577E-01  0.00000000000E+00 0. -1.
     999901    1    3    3    0    0  0.10667510263E-02  0.10460907571E+00 -0.49416965825E-01  0.88757322695E+00  0.88000000000E+00 0. -1.
        -11    1    4    4    0    0 -0.38938276419E-02 -0.50518748435E-01  0.27781147962E-01  0.57787188375E-01  0.51100000000E-03 0.  1.
         11    1    4    4    0    0  0.17363634144E-01 -0.61945804567E-01  0.38487428123E-01  0.74968805103E-01  0.51100000000E-03 0. -1.
</event>
<event>
 8    1  0.1060404E+005  0.1043930E+01  0.7957747E-01            NaN
         13   -1    0    0    0    0  0.00000000000E+00  0.00000000000E+00  0.74505805969E-08  0.10566000000E+00  0.10566000000E+00 0. -1.
     999900   -1    0    0    0    0 -0.00000000000E+00 -0.00000000000E+00 -0.74505805969E-08  0.93827000000E+00  0.93827000000E+00 0. -1.
     999902    2    1    2    0    0  0.65628062538E-02 -0.19715308496E-01  0.11633940960E-01  0.10201158782E+01  0.10198378756E+01 0.  0.
     999903    2    3    3    0    0  0.19432541699E-01  0.80516967979E-01  0.98186805050E-01  0.13011389077E+00  0.20697103096E-01 0.  0.
         14    1    1    2    0    0 -0.65628062538E-02  0.19715308496E-01 -0.11633940960E-01  0.23814121803E-01  0.00000000000E+00 0.  1.
     999901    1    3    3    0    0 -0.12869735445E-01 -0.10023227647E+00 -0.86552864090E-01  0.89000198742E+00  0.88000000000E+00 0. -1.
        -11    1    4    4    0    0  0.12889583611E-01  0.37659958426E-01  0.32408861599E-01  0.51332341321E-01  0.51100000000E-03 0. -1.
         11    1    4    4    0    0  0.65429580877E-02  0.42857009553E-01  0.65777943451E-01  0.78781549451E-01  0.51100000000E-03 0.  1.
</event>
<event>
 8    1  0.1060404E+005  0.1043930E+01  0.7957747E-01            NaN
         13   -1    0    0    0    0  0.00000000000E+00  0.00000000000E+00  0.74505805969E-08  0.10566000000E+00  0.10566000000E+00 0.  1.
     999900   -1    0    0    0    0 -0.00000000000E+00 -0.00000000000E+00 -0.74505805969E-08  0.93827000000E+00  0.93827000000E+00 0.  1.
     999902    2    1    2    0    0 -0.95564038769E-02 -0.21821280053E-01  0.40482422238E-03  0.10201044465E+01  0.10198261738E+01 0.  0.
     999903    2    3    3    0    0  0.54285003970E-01  0.10412605679E+00 -0.45695353950E-01  0.12765630600E+00  0.20468750087E-01 0.  0.
         14    1    1    2    0    0  0.95564038769E-02  0.21821280053E-01 -0.40482422238E-03  0.23825553527E-01  0.00000000000E+00 0.  1.
     999901    1    3    3    0    0 -0.63841407847E-01 -0.12594733684E+00  0.46100178173E-01  0.89244814048E+00  0.88000000000E+00 0. -1.
        -11    1    4    4    0    0  0.48778674630E-01  0.86367362070E-01 -0.30910288564E-01  0.10389604126E+00  0.51100000000E-03 0. -1.
         11    1    4    4    0    0  0.55063293402E-02  0.17758694716E-01 -0.14785065386E-01  0.23760264735E-01  0.51100000000E-03 0.  1.
</event>
<event>
 8    1  0.1060404E+005  0.1043930E+01  0.7957747E-01            NaN
         13   -1    0    0    0    0  0.00000000000E+00  0.00000000000E+00  0.74505805969E-08  0.10566000000E+00  0.10566000000E+00 0. -1.
     999900   -1    0    0    0    0 -0.00000000000E+00 -0.00000000000E+00 -0.74505805969E-08  0.93827000000E+00  0.93827000000E+00 0. -1.
     999902    2    1    2    0    0  0.10854418912E-02 -0.18617530458E-01 -0.14040149647E-01  0.10205865550E+01  0.10203195577E+01 0.  0.
     999903    2    3    3    0    0  0.31017583931E-01 -0.83100669123E-02 -0.12662562810E+00  0.13284916874E+00  0.24159971408E-01 0.  0.
         14    1    1    2    0    0 -0.10854418912E-02  0.18617530458E-01  0.14040149647E-01  0.23343445044E-01  0.00000000000E+00 0. -1.
     999901    1    3    3    0    0 -0.29932142040E-01 -0.10307463545E-01  0.11258547845E+00  0.88773738622E+00  0.88000000000E+00 0.  1.
        -11    1    4    4    0    0  0.23819129130E-01  0.31468823190E-02 -0.10151289999E+00  0.10431866452E+00  0.51100000000E-03 0. -1.
         11    1    4    4    0    0  0.71984548013E-02 -0.11456949231E-01 -0.25112728102E-01  0.28530504218E-01  0.51100000000E-03 0.  1.
</event>
<event>
 8    1  0.1060404E+005  0.1043930E+01  0.7957747E-01            NaN
         13   -1    0    0    0    0  0.00000000000E+00  0.00000000000E+00  0.74505805969E-08  0.10566000000E+00  0.10566000000E+00 0. -1.
     999900   -1    0    0    0    0 -0.00000000000E+00 -0.00000000000E+00 -0.74505805969E-08  0.93827000000E+00  0.93827000000E+00 0. -1.
     999902    2    1    2    0    0  0.63775494688E-02  0.18628094414E-01 -0.13298965988E-01  0.10201699172E+01  0.10198931897E+01 0.  0.
     999903    2    3    3    0    0 -0.31303649585E-01  0.11185604854E+00  0.58227590078E-01  0.13156011958E+00  0.20637798898E-01 0.  0.
         14    1    1    2    0    0 -0.63775494688E-02 -0.18628094414E-01  0.13298965988E-01  0.23760082809E-01  0.00000000000E+00 0. -1.
     999901    1    3    3    0    0  0.37681199054E-01 -0.93227954131E-01 -0.71526556066E-01  0.88860979761E+00  0.88000000000E+00 0. -1.
        -11    1    4    4    0    0 -0.64697543491E-02  0.62002422970E-02  0.15233149205E-02  0.91039735954E-02  0.51100000000E-03 0.  1.
         11    1    4    4    0    0 -0.24833895236E-01  0.10565580625E+00  0.56704275157E-01  0.12245614598E+00  0.51100000000E-03 0. -1.
</event>
<event>
 8    1  0.1060404E+005  0.1043930E+01  0.7957747E-01            NaN
         13   -1    0    0    0    0  0.00000000000E+00  0.00000000000E+00  0.74505805969E-08  0.10566000000E+00  0.10566000000E+00 0.  1.
     999900   -1    0    0    0    0 -0.00000000000E+00 -0.00000000000E+00 -0.74505805969E-08  0.93827000000E+00  0.93827000000E+00 0.  1.
     999902    2    1    2    0    0  0.20057809254E-01  0.86240931001E-02  0.11042195710E-01  0.10194632720E+01  0.10191696336E+01 0.  0.
     999903    2    3    3    0    0 -0.91843038258E-01 -0.77439536049E-01 -0.35722026374E-01  0.12698602274E+00  0.20429424477E-01 0.  0.
         14    1    1    2    0    0 -0.20057809254E-01 -0.86240931001E-02 -0.11042195710E-01  0.24466728019E-01  0.00000000000E+00 0. -1.
     999901    1    3    3    0    0  0.11190084751E+00  0.86063629149E-01  0.46764222084E-01  0.89247724924E+00  0.88000000000E+00 0.  1.
        -11    1    4    4    0    0 -0.12590823051E-01 -0.11839037630E-01  0.20032906148E-02  0.17405916563E-01  0.51100000000E-03 0. -1.
         11    1    4    4    0    0 -0.79252215207E-01 -0.65600498419E-01 -0.37725316989E-01  0.10958010618E+00  0.51100000000E-03 0.  1.
</event>
<event>
 8    1  0.1060404E+005  0.1043930E+01  0.7957747E-01            NaN
         13   -1    0    0    0    0  0.00000000000E+00  0.00000000000E+00  0.74505805969E-08  0.10566000000E+00  0.10566000000E+00 0. -1.
     999900   -1    0    0    0    0 -0.00000000000E+00 -0.00000000000E+00 -0.74505805969E-08  0.93827000000E+00  0.93827000000E+00 0.  1.
     999902    2    1    2    0    0 -0.15640942347E-01 -0.33660694540E-02  0.26962062828E-01  0.10125784078E+01  0.10120929353E+01 0.  0.
     999903    2    3    3    0    0  0.47577981127E-01  0.11088741518E+00 -0.46533754746E-02  0.12238178516E+00  0.19898851751E-01 0.  0.
         14    1    1    2    0    0  0.15640942347E-01  0.33660694540E-02 -0.26962062828E-01  0.31351592193E-01  0.00000000000E+00 0.  1.
     999901    1    3    3    0    0 -0.63218923475E-01 -0.11425348464E+00  0.31615438302E-01  0.89019662265E+00  0.88000000000E+00 0. -1.
        -11    1    4    4    0    0  0.27454798258E-01  0.84115482307E-01 -0.72829826183E-02  0.88783350172E-01  0.51100000000E-03 0. -1.
         11    1    4    4    0    0  0.20123182869E-01  0.26771932877E-01  0.26296071437E-02  0.33598434986E-01  0.51100000000E-03 0.  1.
</event>
<event>
 8    1  0.1060404E+005  0.1043930E+01  0.7957747E-01            NaN
         13   -1    0    0    0    0  0.00000000000E+00  0.00000000000E+00  0.74505805969E-08  0.10566000000E+00  0.10566000000E+00 0.  1.
     999900   -1    0    0    0    0 -0.00000000000E+00 -0.00000000000E+00 -0.74505805969E-08  0.93827000000E+00  0.93827000000E+00 0. -1.
     999902    2    1    2    0    0  0.64295049017E-02 -0.20866775141E-01 -0.92053959409E-02  0.10202340056E+01  0.10199587864E+01 0.  0.
     999903    2    3    3    0    0  0.76735142022E-01 -0.42617666170E-02  0.10023185183E+00  0.13051769115E+00  0.32893751801E-01 0.  0.
         14    1    1    2    0    0 -0.64295049017E-02  0.20866775141E-01  0.92053959409E-02  0.23695994440E-01  0.00000000000E+00 0.  1.
     999901    1    3    3    0    0 -0.70305637120E-01 -0.16605008524E-01 -0.10943724777E+00  0.88971631440E+00  0.88000000000E+00 0. -1.
        -11    1    4    4    0    0  0.94493440301E-03 -0.66378755697E-02  0.34208102941E-02  0.75443592950E-02  0.51100000000E-03 0. -1.
         11    1    4    4    0    0  0.75790207619E-01  0.23761089526E-02  0.96811041535E-01  0.12297333186E+00  0.51100000000E-03 0.  1.
</event>
<event>
 7    1  0.1060404E+005  0.1043930E+01  0.7957747E-01            NaN
         13   -1    0    0    0    0  0.00000000000E+00  0.00000000000E+00  0.74505805969E-08  0.10566000000E+00  0.10566000000E+00 0.  1.
     999900   -1    0    0    0    0 -0.00000000000E+00 -0.00000000000E+00 -0.74505805969E-08  0.93827000000E+00  0.93827000000E+00 0. -1.
     999903    2    1    2    0    0 -0.10072465655E+00  0.45489382564E-01  0.13939461520E-01  0.11326993170E+00  0.20518978435E-01 0.  0.
         14    1    1    2    0    0  0.30065106980E-01  0.30992794394E-01  0.94958224637E-02  0.44211249771E-01  0.00000000000E+00 0.  1.
     999901    1    1    2    0    0  0.70659549572E-01 -0.76482176958E-01 -0.23435283983E-01  0.88644881853E+00  0.88000000000E+00 0.  1.
        -11    1    3    3    0    0 -0.85594845369E-01  0.39569911239E-01  0.43564076455E-02  0.94400714180E-01  0.51100000000E-03 0. -1.
         11    1    3    3    0    0 -0.15129811183E-01  0.59194713255E-02  0.95830538741E-02  0.18869217519E-01  0.51100000000E-03 0.  1.
</event>
<event>
 8    1  0.1193947E+005  0.1043930E+01  0.7957747E-01            NaN
         13   -1    0    0    0    0  0.00000000000E+00  0.00000000000E+00  0.74505805969E-08  0.10566000000E+00  0.10566000000E+00 0.  1.
     999900   -1    0    0    0    0 -0.00000000000E+00 -0.00000000000E+00 -0.74505805969E-08  0.93827000000E+00  0.93827000000E+00 0. -1.
     999902    2    1    2    0    0 -0.36161561617E-03  0.33209940231E-02 -0.19434435472E-01  0.10242105414E+01  0.10240206912E+01 0.  0.
     999903    2    3    3    0    0 -0.10216408854E+00 -0.56393743146E-01  0.59545192085E-01  0.13282545347E+00  0.21891001268E-01 0.  0.
         14    1    1    2    0    0  0.36161561617E-03 -0.33209940231E-02  0.19434435472E-01  0.19719458645E-01  0.00000000000E+00 0.  1.
     999901    1    3    3    0    0  0.10180247292E+00  0.59714737169E-01 -0.78979627557E-01  0.89138508788E+00  0.88000000000E+00 0. -1.
        -11    1    4    4    0    0 -0.54801441978E-01 -0.19431851724E-01  0.35397805830E-01  0.68073935415E-01  0.51100000000E-03 0. -1.
         11    1    4    4    0    0 -0.47362646563E-01 -0.36961891421E-01  0.24147386255E-01  0.64751518058E-01  0.51100000000E-03 0.  1.
</event>
<event>
 8    1  0.1060404E+005  0.1043930E+01  0.7957747E-01            NaN
         13   -1    0    0    0    0  0.00000000000E+00  0.00000000000E+00  0.74505805969E-08  0.10566000000E+00  0.10566000000E+00 0.  1.
     999900   -1    0    0    0    0 -0.00000000000E+00 -0.00000000000E+00 -0.74505805969E-08  0.93827000000E+00  0.93827000000E+00 0. -1.
     999902    2    1    2    0    0  0.15472416574E-02  0.25142251995E-02 -0.23940234129E-01  0.10198084309E+01  0.10195231168E+01 0.  0.
     999903    2    3    3    0    0  0.49368273359E-01  0.74623781367E-01  0.89756867912E-01  0.12828520061E+00  0.19871139806E-01 0.  0.
         14    1    1    2    0    0 -0.15472416574E-02 -0.25142251995E-02  0.23940234129E-01  0.24121569087E-01  0.00000000000E+00 0.  1.
     999901    1    3    3    0    0 -0.47821031702E-01 -0.72109556168E-01 -0.11369710204E+00  0.89152323031E+00  0.88000000000E+00 0. -1.
        -11    1    4    4    0    0  0.27820940715E-01  0.30226484699E-01  0.51268645514E-01  0.65699164784E-01  0.51100000000E-03 0. -1.
         11    1    4    4    0    0  0.21547332644E-01  0.44397296668E-01  0.38488222398E-01  0.62586035822E-01  0.51100000000E-03 0.  1.
</event>
<event>
 8    1  0.1060404E+005  0.1043930E+01  0.7957747E-01            NaN
         13   -1    0    0    0    0  0.00000000000E+00  0.00000000000E+00  0.74505805969E-08  0.10566000000E+00  0.10566000000E+00 0. -1.
     999900   -1    0    0    0    0 -0.00000000000E+00 -0.00000000000E+00 -0.74505805969E-08  0.93827000000E+00  0.93827000000E+00 0.  1.
     999902    2    1    2    0    0 -0.10974650090E-01  0.19405557487E-01  0.81462621658E-02  0.10201943687E+01  0.10199182172E+01 0.  0.
     999903    2    3    3    0    0 -0.80480121301E-01  0.10891946973E-01 -0.10053302117E+00  0.13074809223E+00  0.19811381642E-01 0.  0.
         14    1    1    2    0    0  0.10974650090E-01 -0.19405557487E-01 -0.81462621658E-02  0.23735631301E-01  0.00000000000E+00 0. -1.
     999901    1    3    3    0    0  0.69505471211E-01  0.85136105139E-02  0.10867928334E+00  0.88944627647E+00  0.88000000000E+00 0.  1.
        -11    1    4    4    0    0 -0.49605361036E-01 -0.19662486539E-02 -0.52949530603E-01  0.72584239952E-01  0.51100000000E-03 0. -1.
         11    1    4    4    0    0 -0.30874760264E-01  0.12858195627E-01 -0.47583490571E-01  0.58163852280E-01  0.51100000000E-03 0.  1.
</event>
<event>
 8    1  0.1060404E+005  0.1043930E+01  0.7957747E-01            NaN
         13   -1    0    0    0    0  0.00000000000E+00  0.00000000000E+00  0.74505805969E-08  0.10566000000E+00  0.10566000000E+00 0. -1.
     999900   -1    0    0    0    0 -0.00000000000E+00 -0.00000000000E+00 -0.74505805969E-08  0.93827000000E+00  0.93827000000E+00 0. -1.
     999902    2    1    2    0    0 -0.28442584384E-02 -0.22011523123E-01 -0.15687033085E-01  0.10167513326E+01  0.10163880127E+01 0.  0.
     999903    2    3    3    0    0 -0.12094443363E+00  0.34209487550E-01 -0.16793804886E-02  0.12697345706E+00  0.17933025816E-01 0.  0.
         14    1    1    2    0    0  0.28442584384E-02  0.22011523123E-01  0.15687033085E-01  0.27178667430E-01  0.00000000000E+00 0. -1.
     999901    1    3    3    0    0  0.11810017519E+00 -0.56221010673E-01 -0.14007652596E-01  0.88977787551E+00  0.88000000000E+00 0. -1.
        -11    1    4    4    0    0 -0.14445705742E-01  0.96124207133E-02 -0.32397009367E-02  0.17658817331E-01  0.51100000000E-03 0.  1.
         11    1    4    4    0    0 -0.10649872788E+00  0.24597066836E-01  0.15603204480E-02  0.10931463973E+00  0.51100000000E-03 0. -1.
</event>
<event>
 8    1  0.1060404E+005  0.1043930E+01  0.7957747E-01            NaN
         13   -1    0    0    0    0  0.00000000000E+00  0.00000000000E+00  0.74505805969E-08  0.10566000000E+00  0.10566000000E+00 0. -1.
     999900   -1    0    0    0    0 -0.00000000000E+00 -0.00000000000E+00 -0.74505805969E-08  0.93827000000E+00  0.93827000000E+00 0.  1.
     999902    2    1    2    0    0  0.60438437443E-03 -0.12068826378E-01 -0.20212370072E-01  0.10203808651E+01  0.10201090864E+01 0.  0.
     999903    2    3    3    0    0 -0.11492847340E+00  0.12420134017E-01  0.54452291956E-01  0.12935765431E+00  0.20137946834E-01 0.  0.
         14    1    1    2    0    0 -0.60438437443E-03  0.12068826378E-01  0.20212370072E-01  0.23549134900E-01  0.00000000000E+00 0. -1.
     999901    1    3    3    0    0  0.11553285777E+00 -0.24488960395E-01 -0.74664662029E-01  0.89102321079E+00  0.88000000000E+00 0.  1.
        -11    1    4    4    0    0 -0.67193902697E-01 -0.27391101707E-02  0.31020387343E-01  0.74061115547E-01  0.51100000000E-03 0.  1.
         11    1    4    4    0    0 -0.47734570703E-01  0.15159244188E-01  0.23431904614E-01  0.55296538765E-01  0.51100000000E-03 0. -1.
</event>
<event>
 8    1  0.1060404E+005  0.1043930E+01  0.7957747E-01            NaN
         13   -1    0    0    0    0  0.00000000000E+00  0.00000000000E+00  0.74505805969E-08  0.10566000000E+00  0.10566000000E+00 0. -1.
     999900   -1    0    0    0    0 -0.00000000000E+00 -0.00000000000E+00 -0.74505805969E-08  0.93827000000E+00  0.93827000000E+00 0.  1.
     999902    2    1    2    0    0  0.64515443705E-02  0.31238443605E-03 -0.21978341829E-01  0.10210221953E+01  0.10207651815E+01 0.  0.
     999903    2    3    3    0    0 -0.53419100690E-01 -0.66065179160E-01  0.94832982077E-01  0.12881405783E+00  0.19533529875E-01 0.  0.
         14    1    1    2    0    0 -0.64515443705E-02 -0.31238443605E-03  0.21978341829E-01  0.22907804747E-01  0.00000000000E+00 0. -1.
     999901    1    3    3    0    0  0.59870645060E-01  0.66377563596E-01 -0.11681132391E+00  0.89220813742E+00  0.88000000000E+00 0. -1.
        -11    1    4    4    0    0 -0.34210375645E-01 -0.41617410413E-01  0.73388323631E-01  0.91041011734E-01  0.51100000000E-03 0. -1.
         11    1    4    4    0    0 -0.19208725045E-01 -0.24447768747E-01  0.21444658446E-01  0.37773046097E-01  0.51100000000E-03 0.  1.
</event>
<event>
 8    1  0.1060404E+005  0.1043930E+01  0.7957747E-01            NaN
         13   -1    0    0    0    0  0.00000000000E+00  0.00000000000E+00  0.74505805969E-08  0.10566000000E+00  0.10566000000E+00 0.  1.
     999900   -1    0    0    0    0 -0.00000000000E+00 -0.00000000000E+00 -0.74505805969E-08  0.93827000000E+00  0.93827000000E+00 0. -1.
     999902    2    1    2    0    0  0.18201257043E-01  0.14456041340E-01 -0.41783688945E-02  0.10203138687E+01  0.10200405233E+01 0.  0.
     999903    2    3    3    0    0 -0.12187945759E+00 -0.18169977301E-01  0.27967280906E-01  0.12805807217E+00  0.20783425810E-01 0.  0.
         14    1    1    2    0    0 -0.18201257043E-01 -0.14456041340E-01  0.41783688945E-02  0.23616131262E-01  0.00000000000E+00 0. -1.
     999901    1    3    3    0    0  0.14008071464E+00  0.32626018641E-01 -0.32145649800E-01  0.89225579657E+00  0.88000000000E+00 0.  1.
        -11    1    4    4    0    0 -0.95117394575E-01 -0.84777630427E-02  0.14589832690E-01  0.96603910665E-01  0.51100000000E-03 0.  1.
         11    1    4    4    0    0 -0.26762063019E-01 -0.96922142583E-02  0.13377448216E-01  0.31454161506E-01  0.51100000000E-03 0. -1.
</event>
<event>
 8    1  0.1060404E+005  0.1043930E+01  0.7957747E-01            NaN
         13   -1    0    0    0    0  0.00000000000E+00  0.00000000000E+00  0.74505805969E-08  0.10566000000E+00  0.10566000000E+00 0.  1.
     999900   -1    0    0    0    0 -0.00000000000E+00 -0.00000000000E+00 -0.74505805969E-08  0.93827000000E+00  0.93827000000E+00 0. -1.
     999902    2    1    2    0    0 -0.31558435508E-02  0.22852289983E-01 -0.66322353919E-02  0.10199263950E+01  0.10196438977E+01 0.  0.
     999903    2    3    3    0    0  0.12434397509E+00 -0.28307834234E-01 -0.37344290182E-02  0.12926262044E+00  0.20787531425E-01 0.  0.
         14    1    1    2    0    0  0.31558435508E-02 -0.22852289983E-01  0.66322353919E-02  0.24003604985E-01  0.00000000000E+00 0.  1.
     999901    1    3    3    0    0 -0.12749981864E+00  0.51160124217E-01 -0.28978063737E-02  0.89066377458E+00  0.88000000000E+00 0.  1.
        -11    1    4    4    0    0  0.35638722974E-01 -0.17062735051E-01  0.27469263164E-02  0.39611390127E-01  0.51100000000E-03 0.  1.
         11    1    4    4    0    0  0.88705252113E-01 -0.11245099183E-01 -0.64813553346E-02  0.89651230310E-01  0.51100000000E-03 0. -1.
</event>
<event>
 8    1  0.1060404E+005  0.1043930E+01  0.7957747E-01            NaN
         13   -1    0    0    0    0  0.00000000000E+00  0.00000000000E+00  0.74505805969E-08  0.10566000000E+00  0.10566000000E+00 0.  1.
     999900   -1    0    0    0    0 -0.00000000000E+00 -0.00000000000E+00 -0.74505805969E-08  0.93827000000E+00  0.93827000000E+00 0.  1.
     999902    2    1    2    0    0  0.10525169806E-02  0.18640225497E-01  0.14243180481E-01  0.10204473684E+01  0.10201771403E+01 0.  0.
     999903    2    3    3    0    0 -0.12638784781E+00 -0.21329038268E-01  0.13187504119E-01  0.13036888694E+00  0.19832308740E-01 0.  0.
         14    1    1    2    0    0 -0.10525169806E-02 -0.18640225497E-01 -0.14243180481E-01  0.23482631641E-01  0.00000000000E+00 0.  1.
     999901    1    3    3    0    0  0.12744036479E+00  0.39969263765E-01  0.10556763620E-02  0.89007848141E+00  0.88000000000E+00 0. -1.
        -11    1    4    4    0    0 -0.10404257701E+00 -0.24614330402E-01  0.13576102412E-01  0.10777427694E+00  0.51100000000E-03 0.  1.
         11    1    4    4    0    0 -0.22345270805E-01  0.32852921338E-02 -0.38859829225E-03  0.22594610007E-01  0.51100000000E-03 0. -1.
</event>
<event>
 8    1  0.1146114E+005  0.1043930E+01  0.7957747E-01            NaN
         13   -1    0    0    0    0  0.00000000000E+00  0.00000000000E+00  0.74505805969E-08  0.10566000000E+00  0.10566000000E+00 0.  1.
     999900   -1    0    0    0    0 -0.00000000000E+00 -0.00000000000E+00 -0.74505805969E-08  0.93827000000E+00  0.93827000000E+00 0.  1.
     999902    2    1    2    0    0 -0.42727091947E-03 -0.20628584767E-01  0.97291496525E-02  0.10211182175E+01  0.10208633780E+01 0.  0.
     999903    2    3    3    0    0 -0.82401691711E-01 -0.58878037526E-01  0.84101705336E-01  0.13336030939E+00  0.21335725422E-01 0.  0.
         14    1    1    2    0    0  0.42727091947E-03  0.20628584767E-01 -0.97291496525E-02  0.22811782545E-01  0.00000000000E+00 0. -1.
     999901    1    3    3    0    0  0.81974420792E-01  0.38249452760E-01 -0.74372555684E-01  0.88775790807E+00  0.88000000000E+00 0.  1.
        -11    1    4    4    0    0 -0.35013645956E-01 -0.22604822290E-01  0.48169922792E-01  0.63698791014E-01  0.51100000000E-03 0.  1.
         11    1    4    4    0    0 -0.47388045755E-01 -0.36273215236E-01  0.35931782545E-01  0.69661518372E-01  0.51100000000E-03 0. -1.
</event>
<event>
 8    1  0.1060404E+005  0.1043930E+01  0.7957747E-01            NaN
         13   -1    0    0    0    0  0.00000000000E+00  0.00000000000E+00  0.74505805969E-08  0.10566000000E+00  0.10566000000E+00 0.  1.
     999900   -1    0    0    0    0 -0.00000000000E+00 -0.00000000000E+00 -0.74505805969E-08  0.93827000000E+00  0.93827000000E+00 0.  1.
     999902    2    1    2    0    0 -0.18364874000E-01  0.15124100590E-02 -0.16701789326E-01  0.10190602242E+01  0.10187567103E+01 0.  0.
     999903    2    3    3    0    0  0.10310194345E+00 -0.22841411650E-01  0.66574374755E-01  0.12648965788E+00  0.20389834379E-01 0.  0.
         14    1    1    2    0    0  0.18364874000E-01 -0.15124100590E-02  0.16701789326E-01  0.24869775792E-01  0.00000000000E+00 0.  1.
     999901    1    3    3    0    0 -0.12146681745E+00  0.24353821709E-01 -0.83276164081E-01  0.89257056633E+00  0.88000000000E+00 0.  1.
        -11    1    4    4    0    0  0.34387637875E-01  0.20713082139E-02  0.21935404846E-01  0.40843886484E-01  0.51100000000E-03 0. -1.
         11    1    4    4    0    0  0.68714305579E-01 -0.24912719864E-01  0.44638969909E-01  0.85645771394E-01  0.51100000000E-03 0.  1.
</event>
<event>
 8    1  0.1060404E+005  0.1043930E+01  0.7957747E-01            NaN
         13   -1    0    0    0    0  0.00000000000E+00  0.00000000000E+00  0.74505805969E-08  0.10566000000E+00  0.10566000000E+00 0. -1.
     999900   -1    0    0    0    0 -0.00000000000E+00 -0.00000000000E+00 -0.74505805969E-08  0.93827000000E+00  0.93827000000E+00 0.  1.
     999902    2    1    2    0    0 -0.55349118636E-02  0.11912571669E-01  0.22827676473E-01  0.10175928129E+01  0.10172519282E+01 0.  0.
     999903    2    3    3    0    0  0.98516432515E-01  0.79358326397E-01 -0.89138219762E-02  0.12833293250E+00  0.19663516938E-01 0.  0.
         14    1    1    2    0    0  0.55349118636E-02 -0.11912571669E-01 -0.22827676473E-01  0.26337187136E-01  0.00000000000E+00 0.  1.
     999901    1    3    3    0    0 -0.10405134438E+00 -0.67445754728E-01  0.31741498449E-01  0.88925988036E+00  0.88000000000E+00 0. -1.
        -11    1    4    4    0    0  0.49724596932E-01  0.51920209985E-01 -0.19216093859E-02  0.71917991133E-01  0.51100000000E-03 0. -1.
         11    1    4    4    0    0  0.48791835583E-01  0.27438116412E-01 -0.69922125904E-02  0.56414941369E-01  0.51100000000E-03 0.  1.
</event>
<event>
 8    1  0.1060404E+005  0.1043930E+01  0.7957747E-01            NaN
         13   -1    0    0    0    0  0.00000000000E+00  0.00000000000E+00  0.74505805969E-08  0.10566000000E+00  0.10566000000E+00 0. -1.
     999900   -1    0    0    0    0 -0.00000000000E+00 -0.00000000000E+00 -0.74505805969E-08  0.93827000000E+00  0.93827000000E+00 0.  1.
     999902    2    1    2    0    0  0.11795521642E-01 -0.15254046381E-01  0.13730398762E-01  0.10202584113E+01  0.10199837654E+01 0.  0.
     999903    2    3    3    0    0 -0.66812579632E-01  0.96784637465E-01  0.49207971926E-01  0.12897250965E+00  0.19526825108E-01 0.  0.
         14    1    1    2    0    0 -0.11795521642E-01  0.15254046381E-01 -0.13730398762E-01  0.23671588708E-01  0.00000000000E+00 0.  1.
     999901    1    3    3    0    0  0.78608101273E-01 -0.11203868385E+00 -0.35477573163E-01  0.89128590164E+00  0.88000000000E+00 0.  1.
        -11    1    4    4    0    0 -0.42102264314E-01  0.43831244019E-01  0.25195980223E-01  0.65794203035E-01  0.51100000000E-03 0.  1.
         11    1    4    4    0    0 -0.24710315318E-01  0.52953393446E-01  0.24011991702E-01  0.63178306618E-01  0.51100000000E-03 0. -1.
</event>
<event>
 8    1  0.1060404E+005  0.1043930E+01  0.7957747E-01            NaN
         13   -1    0    0    0    0  0.00000000000E+00  0.00000000000E+00  0.74505805969E-08  0.10566000000E+00  0.10566000000E+00 0. -1.
     999900   -1    0    0    0    0 -0.00000000000E+00 -0.00000000000E+00 -0.74505805969E-08  0.93827000000E+00  0.93827000000E+00 0. -1.
     999902    2    1    2    0    0  0.13843582155E-01 -0.27680260009E-02 -0.23474660232E-01  0.10165371833E+01  0.10161680366E+01 0.  0.
     999903    2    3    3    0    0 -0.95177073394E-01 -0.74210600279E-01 -0.33775296874E-01  0.12687677174E+00  0.19775136747E-01 0.  0.
         14    1    1    2    0    0 -0.13843582155E-01  0.27680260009E-02  0.23474660232E-01  0.27392816719E-01  0.00000000000E+00 0. -1.
     999901    1    3    3    0    0  0.10902065555E+00  0.71442574278E-01  0.10300636642E-01  0.88966041155E+00  0.88000000000E+00 0.  1.
        -11    1    4    4    0    0 -0.37436249356E-01 -0.26819525872E-01 -0.22749310384E-01  0.51366837335E-01  0.51100000000E-03 0. -1.
         11    1    4    4    0    0 -0.57740824038E-01 -0.47391074407E-01 -0.11025986490E-01  0.75509934401E-01  0.51100000000E-03 0.  1.
</event>
<event>
 8    1  0.1060404E+005  0.1043930E+01  0.7957747E-01            NaN
         13   -1    0    0    0    0  0.00000000000E+00  0.00000000000E+00  0.74505805969E-08  0.10566000000E+00  0.10566000000E+00 0.  1.
     999900   -1    0    0    0    0 -0.00000000000E+00 -0.00000000000E+00 -0.74505805969E-08  0.93827000000E+00  0.93827000000E+00 0.  1.
     999902    2    1    2    0    0  0.18635449678E-01 -0.33081928266E-02  0.12890413627E-01  0.10210305046E+01  0.10207736794E+01 0.  0.
     999903    2    3    3    0    0  0.46662964793E-01 -0.96899303003E-01  0.76407987113E-01  0.13334851222E+00  0.19409740137E-01 0.  0.
         14    1    1    2    0    0 -0.18635449678E-01  0.33081928266E-02 -0.12890413627E-01  0.22899495365E-01  0.00000000000E+00 0. -1.
     999901    1    3    3    0    0 -0.28027515115E-01  0.93591110176E-01 -0.63517573486E-01  0.88768199241E+00  0.88000000000E+00 0. -1.
        -11    1    4    4    0    0  0.26338117240E-01 -0.52173175853E-01  0.53115942465E-01  0.78976586171E-01  0.51100000000E-03 0. -1.
         11    1    4    4    0    0  0.20324847554E-01 -0.44726127150E-01  0.23292044648E-01  0.54371926054E-01  0.51100000000E-03 0.  1.
</event>
<event>
 8    1  0.1060404E+005  0.1043930E+01  0.7957747E-01            NaN
         13   -1    0    0    0    0  0.00000000000E+00  0.00000000000E+00  0.74505805969E-08  0.10566000000E+00  0.10566000000E+00 0.  1.
     999900   -1    0    0    0    0 -0.00000000000E+00 -0.00000000000E+00 -0.74505805969E-08  0.93827000000E+00  0.93827000000E+00 0.  1.
     999902    2    1    2    0    0  0.17575358591E-01  0.57801766769E-02 -0.16221255186E-01  0.10193244561E+01  0.10190274353E+01 0.  0.
     999903    2    3    3    0    0 -0.18009454263E-01 -0.11896250662E+00 -0.43026135351E-01  0.12941124821E+00  0.20484247993E-01 0.  0.
         14    1    1    2    0    0 -0.17575358591E-01 -0.57801766769E-02  0.16221255186E-01  0.24605543925E-01  0.00000000000E+00 0.  1.
     999901    1    3    3    0    0  0.35584812854E-01  0.12474268329E+00  0.26804880165E-01  0.88991320787E+00  0.88000000000E+00 0. -1.
        -11    1    4    4    0    0 -0.59716872468E-02 -0.56529040677E-01 -0.30825783047E-01  0.64665937787E-01  0.51100000000E-03 0. -1.
         11    1    4    4    0    0 -0.12037767016E-01 -0.62433465938E-01 -0.12200352303E-01  0.64745310418E-01  0.51100000000E-03 0.  1.
</event>
<event>
 8    1  0.1060404E+005  0.1043930E+01  0.7957747E-01            NaN
         13   -1    0    0    0    0  0.00000000000E+00  0.00000000000E+00  0.74505805969E-08  0.10566000000E+00  0.10566000000E+00 0.  1.
     999900   -1    0    0    0    0 -0.00000000000E+00 -0.00000000000E+00 -0.74505805969E-08  0.93827000000E+00  0.93827000000E+00 0.  1.
     999902    2    1    2    0    0 -0.76782581008E-02 -0.11193781206E-01 -0.13895364707E-01  0.10245048219E+01  0.10243206493E+01 0.  0.
     999903    2    3    3    0    0 -0.12236245429E+00 -0.54033932302E-01  0.10812879574E-01  0.13568636980E+00  0.20040871385E-01 0.  0.
         14    1    1    2    0    0  0.76782581008E-02  0.11193781206E-01  0.13895364707E-01  0.19425178133E-01  0.00000000000E+00 0.  1.
     999901    1    3    3    0    0  0.11468419618E+00  0.42840151097E-01 -0.24708244281E-01  0.88881845207E+00  0.88000000000E+00 0. -1.
        -11    1    4    4    0    0 -0.43461102017E-01 -0.24803398864E-01 -0.41802693553E-02  0.50217643878E-01  0.51100000000E-03 0.  1.
         11    1    4    4    0    0 -0.78901352268E-01 -0.29230533438E-01  0.14993148929E-01  0.85468725922E-01  0.51100000000E-03 0. -1.
</event>
<event>
 8    1  0.1060404E+005  0.1043930E+01  0.7957747E-01            NaN
         13   -1    0    0    0    0  0.00000000000E+00  0.00000000000E+00  0.74505805969E-08  0.10566000000E+00  0.10566000000E+00 0.  1.
     999900   -1    0    0    0    0 -0.00000000000E+00 -0.00000000000E+00 -0.74505805969E-08  0.93827000000E+00  0.93827000000E+00 0. -1.
     999902    2    1    2    0    0  0.18913561197E-01 -0.96097433216E-03 -0.14725339548E-01  0.10199407963E+01  0.10196586419E+01 0.  0.
     999903    2    3    3    0    0  0.12751402637E+00 -0.63405765878E-02  0.27919647188E-01  0.13222372649E+00  0.20089233840E-01 0.  0.
         14    1    1    2    0    0 -0.18913561197E-01  0.96097433216E-03  0.14725339548E-01  0.23989203689E-01  0.00000000000E+00 0.  1.
     999901    1    3    3    0    0 -0.10860046517E+00  0.53796022557E-02 -0.42644986736E-01  0.88771706982E+00  0.88000000000E+00 0.  1.
        -11    1    4    4    0    0  0.38013617707E-01 -0.10067373097E-01  0.12932420258E-01  0.41399223990E-01  0.51100000000E-03 0. -1.
         11    1    4    4    0    0  0.89500408660E-01  0.37267965089E-02  0.14987226930E-01  0.90824502501E-01  0.51100000000E-03 0.  1.
</event>
<event>
 8    1  0.1060404E+005  0.1043930E+01  0.7957747E-01            NaN
         13   -1    0    0    0    0  0.00000000000E+00  0.00000000000E+00  0.74505805969E-08  0.10566000000E+00  0.10566000000E+00 0.  1.
     999900   -1    0    0    0    0 -0.00000000000E+00 -0.00000000000E+00 -0.74505805969E-08  0.93827000000E+00  0.93827000000E+00 0. -1.
     999902    2    1    2    0    0 -0.13199138947E-01  0.17921466512E-01 -0.79127264243E-02  0.10203078183E+01  0.10200343311E+01 0.  0.
     999903    2    3    3    0    0 -0.64429719817E-01 -0.69127390151E-01 -0.88265054881E-01  0.13089308229E+00  0.20309953559E-01 0.  0.
         14    1    1    2    0    0  0.13199138947E-01 -0.17921466512E-01  0.79127264243E-02  0.23622181744E-01  0.00000000000E+00 0.  1.
     999901    1    3    3    0    0  0.51230580870E-01  0.87048856663E-01  0.80352328457E-01  0.88941473596E+00  0.88000000000E+00 0. -1.
        -11    1    4    4    0    0 -0.38802102430E-01 -0.34608514472E-01 -0.60210671509E-01  0.79554625959E-01  0.51100000000E-03 0.  1.
         11    1    4    4    0    0 -0.25627617387E-01 -0.34518875680E-01 -0.28054383372E-01  0.51338456332E-01  0.51100000000E-03 0. -1.
</event>
<event>
 8    1  0.1060404E+005  0.1043930E+01  0.7957747E-01            NaN
         13   -1    0    0    0    0  0.00000000000E+00  0.00000000000E+00  0.74505805969E-08  0.10566000000E+00  0.10566000000E+00 0. -1.
     999900   -1    0    0    0    0 -0.00000000000E+00 -0.00000000000E+00 -0.74505805969E-08  0.93827000000E+00  0.93827000000E+00 0. -1.
     999902    2    1    2    0    0 -0.19652590624E-01  0.91960345130E-02  0.12897651186E-01  0.10186883524E+01  0.10183755783E+01 0.  0.
     999903    2    3    3    0    0 -0.17109595038E-01  0.12462567938E-01  0.12801252307E+00  0.13118141110E+00  0.19321043272E-01 0.  0.
         14    1    1    2    0    0  0.19652590624E-01 -0.91960345130E-02 -0.12897651186E-01  0.25241647631E-01  0.00000000000E+00 0.  1.
     999901    1    3    3    0    0 -0.25429955865E-02 -0.32665334251E-02 -0.11511487189E+00  0.88750694127E+00  0.88000000000E+00 0. -1.
        -11    1    4    4    0    0 -0.18740756944E-01  0.15241439043E-01  0.95634166116E-01  0.98639101195E-01  0.51100000000E-03 0. -1.
         11    1    4    4    0    0  0.16311619067E-02 -0.27788711051E-02  0.32378356958E-01  0.32542309907E-01  0.51100000000E-03 0.  1.
</event>
<event>
 8    1  0.1060404E+005  0.1043930E+01  0.7957747E-01            NaN
         13   -1    0    0    0    0  0.00000000000E+00  0.00000000000E+00  0.74505805969E-08  0.10566000000E+00  0.10566000000E+00 0. -1.
     999900   -1    0    0    0    0 -0.00000000000E+00 -0.00000000000E+00 -0.74505805969E-08  0.93827000000E+00  0.93827000000E+00 0.  1.
     999902    2    1    2    0    0 -0.15688969781E-01  0.26979670050E-02 -0.11420915491E-01  0.10243376518E+01  0.10241502647E+01 0.  0.
     999903    2    3    3    0    0 -0.42216079223E-01  0.10810831370E+00  0.64512268240E-01  0.13440457725E+00  0.20812323154E-01 0.  0.
         14    1    1    2    0    0  0.15688969781E-01 -0.26979670050E-02  0.11420915491E-01  0.19592348236E-01  0.00000000000E+00 0. -1.
     999901    1    3    3    0    0  0.26527109443E-01 -0.10541034670E+00 -0.75933183731E-01  0.88993307452E+00  0.88000000000E+00 0.  1.
        -11    1    4    4    0    0 -0.12005206757E-01  0.32022997331E-01  0.86002607750E-02  0.35267874245E-01  0.51100000000E-03 0.  1.
         11    1    4    4    0    0 -0.30210872466E-01  0.76085316371E-01  0.55912007465E-01  0.99136703003E-01  0.51100000000E-03 0. -1.
</event>
<event>
 7    1  0.1060404E+005  0.1043930E+01  0.7957747E-01            NaN
         13   -1    0    0    0    0  0.00000000000E+00  0.00000000000E+00  0.74505805969E-08  0.10566000000E+00  0.10566000000E+00 0.  1.
     999900   -1    0    0    0    0 -0.00000000000E+00 -0.00000000000E+00 -0.74505805969E-08  0.93827000000E+00  0.93827000000E+00 0. -1.
     999903    2    1    2    0    0  0.27920365216E-01 -0.52740696798E-01 -0.60692889509E-01  0.87508858780E-01  0.20323524190E-01 0.  0.
         14    1    1    2    0    0  0.13346989853E-01  0.41003377850E-01 -0.52717164061E-01  0.68106670157E-01  0.00000000000E+00 0.  1.
     999901    1    1    2    0    0 -0.41267355068E-01  0.11737318948E-01  0.11341005357E+00  0.88831447106E+00  0.88000000000E+00 0.  1.
        -11    1    3    3    0    0 -0.11883694982E-02 -0.88414532972E-02 -0.16441313308E-01  0.18712600642E-01  0.51100000000E-03 0.  1.
         11    1    3    3    0    0  0.29108734714E-01 -0.43899243501E-01 -0.44251576201E-01  0.68796258138E-01  0.51100000000E-03 0. -1.
</event>
<event>
 8    1  0.1060404E+005  0.1043930E+01  0.7957747E-01            NaN
         13   -1    0    0    0    0  0.00000000000E+00  0.00000000000E+00  0.74505805969E-08  0.10566000000E+00  0.10566000000E+00 0.  1.
     999900   -1    0    0    0    0 -0.00000000000E+00 -0.00000000000E+00 -0.74505805969E-08  0.93827000000E+00  0.93827000000E+00 0.  1.
     999902    2    1    2    0    0  0.18180966174E-01 -0.86482154991E-02  0.48156809570E-02  0.10232290352E+01  0.10230196129E+01 0.  0.
     999903    2    3    3    0    0 -0.43126925143E-01 -0.12415366090E+00 -0.10928056218E-01  0.13342679268E+00  0.20229271002E-01 0.  0.
         14    1    1    2    0    0 -0.18180966174E-01  0.86482154991E-02 -0.48156809570E-02  0.20700964843E-01  0.00000000000E+00 0. -1.
     999901    1    3    3    0    0  0.61307891317E-01  0.11550544540E+00  0.15743737175E-01  0.88980224248E+00  0.88000000000E+00 0. -1.
        -11    1    4    4    0    0 -0.18341241517E-01 -0.78928008936E-01 -0.11528176671E-01  0.81848590174E-01  0.51100000000E-03 0.  1.
         11    1    4    4    0    0 -0.24785683626E-01 -0.45225651964E-01  0.60012045325E-03  0.51578202508E-01  0.51100000000E-03 0. -1.
</event>
<event>
 8    1  0.1060404E+005  0.1043930E+01  0.7957747E-01            NaN
         13   -1    0    0    0    0  0.00000000000E+00  0.00000000000E+00  0.74505805969E-08  0.10566000000E+00  0.10566000000E+00 0.  1.
     999900   -1    0    0    0    0 -0.00000000000E+00 -0.00000000000E+00 -0.74505805969E-08  0.93827000000E+00  0.93827000000E+00 0.  1.
     999902    2    1    2    0    0 -0.22345128578E-01  0.89245147708E-02 -0.22424493633E-02  0.10197643154E+01  0.10194779441E+01 0.  0.
     999903    2    3    3    0    0 -0.58234963037E-01  0.11546410854E+00  0.19706894776E-01  0.13234077557E+00  0.20061104073E-01 0.  0.
         14    1    1    2    0    0  0.22345128578E-01 -0.89245147708E-02  0.22424493633E-02  0.24165684642E-01  0.00000000000E+00 0.  1.
     999901    1    3    3    0    0  0.35889834459E-01 -0.10653959377E+00 -0.21949344140E-01  0.88742353979E+00  0.88000000000E+00 0. -1.
        -11    1    4    4    0    0 -0.35304457842E-01  0.48007290396E-01  0.10196224162E-01  0.60459315104E-01  0.51100000000E-03 0.  1.
         11    1    4    4    0    0 -0.22930505195E-01  0.67456818143E-01  0.95106706146E-02  0.71881460468E-01  0.51100000000E-03 0. -1.
</event>
<event>
 8    1  0.1060404E+005  0.1043930E+01  0.7957747E-01            NaN
         13   -1    0    0    0    0  0.00000000000E+00  0.00000000000E+00  0.74505805969E-08  0.10566000000E+00  0.10566000000E+00 0. -1.
     999900   -1    0    0    0    0 -0.00000000000E+00 -0.00000000000E+00 -0.74505805969E-08  0.93827000000E+00  0.93827000000E+00 0. -1.
     999902    2    1    2    0    0 -0.15275016132E-01  0.66104801140E-02 -0.16264135770E-01  0.10206588445E+01  0.10203935173E+01 0.  0.
     999903    2    3    3    0    0 -0.84401895611E-01 -0.26601183987E-01 -0.98190675238E-01  0.13353230452E+00  0.18925239082E-01 0.  0.
         14    1    1    2    0    0  0.15275016132E-01 -0.66104801140E-02  0.16264135770E-01  0.23271155483E-01  0.00000000000E+00 0. -1.
     999901    1    3    3    0    0  0.69126879479E-01  0.33211664101E-01  0.81926539469E-01  0.88712654000E+00  0.88000000000E+00 0. -1.
        -11    1    4    4    0    0 -0.38845248135E-01 -0.19760705512E-01 -0.38687736952E-01  0.58278991896E-01  0.51100000000E-03 0. -1.
         11    1    4    4    0    0 -0.45556647476E-01 -0.68404784745E-02 -0.59502938287E-01  0.75253312623E-01  0.51100000000E-03 0.  1.
</event>
<event>
 8    1  0.1060404E+005  0.1043930E+01  0.7957747E-01            NaN
         13   -1    0    0    0    0  0.00000000000E+00  0.00000000000E+00  0.74505805969E-08  0.10566000000E+00  0.10566000000E+00 0.  1.
     999900   -1    0    0    0    0 -0.00000000000E+00 -0.00000000000E+00 -0.74505805969E-08  0.93827000000E+00  0.93827000000E+00 0.  1.
     999902    2    1    2    0    0  0.21983200104E-01  0.72240308784E-02 -0.48796378798E-02  0.10202813515E+01  0.10200072439E+01 0.  0.
     999903    2    3    3    0    0  0.61456551410E-01  0.72689696466E-01 -0.90564227231E-01  0.13282107203E+00  0.19464281044E-01 0.  0.
         14    1    1    2    0    0 -0.21983200104E-01 -0.72240308784E-02  0.48796378798E-02  0.23648648477E-01  0.00000000000E+00 0.  1.
     999901    1    3    3    0    0 -0.39473351306E-01 -0.65465665587E-01  0.85684589351E-01  0.88746027950E+00  0.88000000000E+00 0.  1.
        -11    1    4    4    0    0  0.15941506005E-01  0.26084946632E-01 -0.40045172972E-01  0.50382864685E-01  0.51100000000E-03 0. -1.
         11    1    4    4    0    0  0.45515045405E-01  0.46604749834E-01 -0.50519054259E-01  0.82438207341E-01  0.51100000000E-03 0.  1.
</event>
<event>
 8    1  0.1060404E+005  0.1043930E+01  0.7957747E-01            NaN
         13   -1    0    0    0    0  0.00000000000E+00  0.00000000000E+00  0.74505805969E-08  0.10566000000E+00  0.10566000000E+00 0.  1.
     999900   -1    0    0    0    0 -0.00000000000E+00 -0.00000000000E+00 -0.74505805969E-08  0.93827000000E+00  0.93827000000E+00 0. -1.
     999902    2    1    2    0    0  0.26143891532E-02  0.11028702676E-01 -0.20690906757E-01  0.10203380324E+01  0.10200652525E+01 0.  0.
     999903    2    3    3    0    0  0.73330972667E-01 -0.60952308585E-02  0.10356772378E+00  0.12863501482E+00  0.20152176953E-01 0.  0.
         14    1    1    2    0    0 -0.26143891532E-02 -0.11028702676E-01  0.20690906757E-01  0.23591967612E-01  0.00000000000E+00 0.  1.
     999901    1    3    3    0    0 -0.70716583514E-01  0.17123933534E-01 -0.12425863054E+00  0.89170301757E+00  0.88000000000E+00 0.  1.
        -11    1    4    4    0    0  0.69262850716E-01 -0.69379485008E-02  0.86344136885E-01  0.11091009293E+00  0.51100000000E-03 0.  1.
         11    1    4    4    0    0  0.40681219516E-02  0.84271764235E-03  0.17223586897E-01  0.17724921885E-01  0.51100000000E-03 0. -1.
</event>
<event>
 8    1  0.1060404E+005  0.1043930E+01  0.7957747E-01            NaN
         13   -1    0    0    0    0  0.00000000000E+00  0.00000000000E+00  0.74505805969E-08  0.10566000000E+00  0.10566000000E+00 0. -1.
     999900   -1    0    0    0    0 -0.00000000000E+00 -0.00000000000E+00 -0.74505805969E-08  0.93827000000E+00  0.93827000000E+00 0. -1.
     999902    2    1    2    0    0  0.11618024859E-01  0.19130299907E-01 -0.77491674226E-02  0.10202446359E+01  0.10199696665E+01 0.  0.
     999903    2    3    3    0    0  0.10522066097E+00  0.77257186432E-01  0.21985306408E-01  0.13287530618E+00  0.11507951300E-01 0.  0.
         14    1    1    2    0    0 -0.11618024859E-01 -0.19130299907E-01  0.77491674226E-02  0.23685364086E-01  0.00000000000E+00 0. -1.
     999901    1    3    3    0    0 -0.93602636112E-01 -0.58126886525E-01 -0.29734473831E-01  0.88736932974E+00  0.88000000000E+00 0. -1.
        -11    1    4    4    0    0  0.74822112578E-01  0.54417578994E-01  0.20809950692E-01  0.94831095127E-01  0.51100000000E-03 0.  1.
         11    1    4    4    0    0  0.30398548393E-01  0.22839607438E-01  0.11753557159E-02  0.38044211050E-01  0.51100000000E-03 0. -1.
</event>
<event>
 8    1  0.1060404E+005  0.1043930E+01  0.7957747E-01            NaN
         13   -1    0    0    0    0  0.00000000000E+00  0.00000000000E+00  0.74505805969E-08  0.10566000000E+00  0.10566000000E+00 0.  1.
     999900   -1    0    0    0    0 -0.00000000000E+00 -0.00000000000E+00 -0.74505805969E-08  0.93827000000E+00  0.93827000000E+00 0.  1.
     999902    2    1    2    0    0 -0.17313459518E-01  0.25070682720E-01  0.15657859473E-01  0.10096741454E+01  0.10090928680E+01 0.  0.
     999903    2    3    3    0    0  0.34219142412E-01  0.11512967648E+00  0.21202469630E-01  0.12356073609E+00  0.19796935877E-01 0.  0.
         14    1    1    2    0    0  0.17313459518E-01 -0.25070682720E-01 -0.15657859473E-01  0.34255854621E-01  0.00000000000E+00 0.  1.
     999901    1    3    3    0    0 -0.51532601930E-01 -0.90058993763E-01 -0.55446101571E-02  0.88611340929E+00  0.88000000000E+00 0. -1.
        -11    1    4    4    0    0  0.16307803665E-01  0.84153220872E-01  0.11540875579E-01  0.86493710601E-01  0.51100000000E-03 0.  1.
         11    1    4    4    0    0  0.17911338747E-01  0.30976455612E-01  0.96615940511E-02  0.37067025489E-01  0.51100000000E-03 0. -1.
</event>
<event>
 8    1  0.1060404E+005  0.1043930E+01  0.7957747E-01            NaN
         13   -1    0    0    0    0  0.00000000000E+00  0.00000000000E+00  0.74505805969E-08  0.10566000000E+00  0.10566000000E+00 0. -1.
     999900   -1    0    0    0    0 -0.00000000000E+00 -0.00000000000E+00 -0.74505805969E-08  0.93827000000E+00  0.93827000000E+00 0. -1.
     999902    2    1    2    0    0 -0.10060375219E-01  0.22071329421E-01 -0.44545575912E-02  0.10192683331E+01  0.10189699392E+01 0.  0.
     999903    2    3    3    0    0 -0.11602464126E+00 -0.38373998290E-02 -0.57234689708E-01  0.13096352600E+00  0.19979800313E-01 0.  0.
         14    1    1    2    0    0  0.10060375219E-01 -0.22071329421E-01  0.44545575912E-02  0.24661666921E-01  0.00000000000E+00 0. -1.
     999901    1    3    3    0    0  0.10596426604E+00  0.25908729250E-01  0.52780132117E-01  0.88830480708E+00  0.88000000000E+00 0.  1.
        -11    1    4    4    0    0 -0.52167382768E-01  0.54676716084E-02 -0.33307995294E-01  0.62137065662E-01  0.51100000000E-03 0.  1.
         11    1    4    4    0    0 -0.63857258491E-01 -0.93050714374E-02 -0.23926694414E-01  0.68826460341E-01  0.51100000000E-03 0. -1.
</event>
<event>
 8    1  0.1060404E+005  0.1043930E+01  0.7957747E-01            NaN
         13   -1    0    0    0    0  0.00000000000E+00  0.00000000000E+00  0.74505805969E-08  0.10566000000E+00  0.10566000000E+00 0.  1.
     999900   -1    0    0    0    0 -0.00000000000E+00 -0.00000000000E+00 -0.74505805969E-08  0.93827000000E+00  0.93827000000E+00 0.  1.
     999902    2    1    2    0    0  0.17883527565E-01 -0.98316937713E-02 -0.11991728013E-01  0.10202596747E+01  0.10199850584E+01 0.  0.
     999903    2    3    3    0    0  0.19894156000E-01  0.12672459949E+00 -0.14876923235E-01  0.12972051876E+00  0.12295876722E-01 0.  0.
         14    1    1    2    0    0 -0.17883527565E-01  0.98316937713E-02  0.11991728013E-01  0.23670325332E-01  0.00000000000E+00 0. -1.
     999901    1    3    3    0    0 -0.20106284347E-02 -0.13655629326E+00  0.28851952224E-02  0.89053915591E+00  0.88000000000E+00 0. -1.
        -11    1    4    4    0    0  0.67157738415E-02  0.43273422821E-01 -0.10949210271E-01  0.45142408747E-01  0.51100000000E-03 0. -1.
         11    1    4    4    0    0  0.13178382158E-01  0.83451176666E-01 -0.39277129647E-02  0.84578110013E-01  0.51100000000E-03 0.  1.
</event>
<event>
 8    1  0.1060404E+005  0.1043930E+01  0.7957747E-01            NaN
         13   -1    0    0    0    0  0.00000000000E+00  0.00000000000E+00  0.74505805969E-08  0.10566000000E+00  0.10566000000E+00 0.  1.
     999900   -1    0    0    0    0 -0.00000000000E+00 -0.00000000000E+00 -0.74505805969E-08  0.93827000000E+00  0.93827000000E+00 0.  1.
     999902    2    1    2    0    0 -0.19190361071E-01 -0.75076715027E-02  0.10845210295E-01  0.10206436590E+01  0.10203779815E+01 0.  0.
     999903    2    3    3    0    0 -0.10205951336E+00  0.70977464460E-01 -0.39330910772E-01  0.13185523871E+00  0.19619854884E-01 0.  0.
         14    1    1    2    0    0  0.19190361071E-01  0.75076715027E-02 -0.10845210295E-01  0.23286340970E-01  0.00000000000E+00 0.  1.
     999901    1    3    3    0    0  0.82869152286E-01 -0.78485135962E-01  0.50176121067E-01  0.88878842032E+00  0.88000000000E+00 0.  1.
        -11    1    4    4    0    0 -0.28935797717E-01  0.15945269606E-01 -0.18960275357E-01  0.38095736966E-01  0.51100000000E-03 0. -1.
         11    1    4    4    0    0 -0.73123715640E-01  0.55032194853E-01 -0.20370635414E-01  0.93759501745E-01  0.51100000000E-03 0.  1.
</event>
<event>
 8    1  0.1060404E+005  0.1043930E+01  0.7957747E-01            NaN
         13   -1    0    0    0    0  0.00000000000E+00  0.00000000000E+00  0.74505805969E-08  0.10566000000E+00  0.10566000000E+00 0.  1.
     999900   -1    0    0    0    0 -0.00000000000E+00 -0.00000000000E+00 -0.74505805969E-08  0.93827000000E+00  0.93827000000E+00 0. -1.
     999902    2    1    2    0    0 -0.10502309535E-01 -0.11987830824E-01 -0.19387365528E-01  0.10188326588E+01  0.10185234951E+01 0.  0.
     999903    2    3    3    0    0  0.37601506974E-01 -0.11877863363E+00  0.30256482158E-01  0.12968544695E+00  0.19509569531E-01 0.  0.
         14    1    1    2    0    0  0.10502309535E-01  0.11987830824E-01  0.19387365528E-01  0.25097341205E-01  0.00000000000E+00 0.  1.
     999901    1    3    3    0    0 -0.48103816509E-01  0.10679080281E+00 -0.49643847686E-01  0.88914721185E+00  0.88000000000E+00 0. -1.
        -11    1    4    4    0    0  0.69778942185E-03 -0.81179384549E-02  0.69619190087E-02  0.10729271742E-01  0.51100000000E-03 0.  1.
         11    1    4    4    0    0  0.36903717552E-01 -0.11066069517E+00  0.23294563149E-01  0.11895617520E+00  0.51100000000E-03 0. -1.
</event>
<event>
 8    1  0.1060404E+005  0.1043930E+01  0.7957747E-01            NaN
         13   -1    0    0    0    0  0.00000000000E+00  0.00000000000E+00  0.74505805969E-08  0.10566000000E+00  0.10566000000E+00 0. -1.
     999900   -1    0    0    0    0 -0.00000000000E+00 -0.00000000000E+00 -0.74505805969E-08  0.93827000000E+00  0.93827000000E+00 0.  1.
     999902    2    1    2    0    0 -0.97135007036E-02  0.22257619175E-02 -0.21808941920E-01  0.10199521757E+01  0.10196702921E+01 0.  0.
     999903    2    3    3    0    0 -0.32788303562E-01 -0.11480016690E+00 -0.51015685920E-01  0.13142499632E+00  0.20390641937E-01 0.  0.
         14    1    1    2    0    0  0.97135007036E-02 -0.22257619175E-02  0.21808941920E-01  0.23977824332E-01  0.00000000000E+00 0. -1.
     999901    1    3    3    0    0  0.23074802859E-01  0.11702592881E+00  0.29206744000E-01  0.88852717935E+00  0.88000000000E+00 0. -1.
        -11    1    4    4    0    0 -0.24589682696E-01 -0.80153147454E-01 -0.25550228451E-01  0.87648473100E-01  0.51100000000E-03 0. -1.
         11    1    4    4    0    0 -0.81986208659E-02 -0.34647019442E-01 -0.25465457469E-01  0.43776523222E-01  0.51100000000E-03 0.  1.
</event>
<event>
 8    1  0.1060404E+005  0.1043930E+01  0.7957747E-01            NaN
         13   -1    0    0    0    0  0.00000000000E+00  0.00000000000E+00  0.74505805969E-08  0.10566000000E+00  0.10566000000E+00 0.  1.
     999900   -1    0    0    0    0 -0.00000000000E+00 -0.00000000000E+00 -0.74505805969E-08  0.93827000000E+00  0.93827000000E+00 0. -1.
     999902    2    1    2    0    0  0.20749634700E-01 -0.83838095791E-02  0.90826872765E-02  0.10197777576E+01  0.10194917087E+01 0.  0.
     999903    2    3    3    0    0 -0.92728124113E-01 -0.85484599406E-01  0.19039150640E-01  0.12909214267E+00  0.19904027358E-01 0.  0.
         14    1    1    2    0    0 -0.20749634700E-01  0.83838095791E-02 -0.90826872765E-02  0.24152242368E-01  0.00000000000E+00 0. -1.
     999901    1    3    3    0    0  0.11347775881E+00  0.77100789827E-01 -0.99564633638E-02  0.89068561496E+00  0.88000000000E+00 0. -1.
        -11    1    4    4    0    0 -0.18639432106E-01 -0.98776517871E-02  0.83618829850E-02  0.22697547051E-01  0.51100000000E-03 0. -1.
         11    1    4    4    0    0 -0.74088692007E-01 -0.75606947619E-01  0.10677267655E-01  0.10639459562E+00  0.51100000000E-03 0.  1.
</event>
<event>
 7    1  0.1402787E+005  0.1043930E+01  0.7957747E-01            NaN
         13   -1    0    0    0    0  0.00000000000E+00  0.00000000000E+00  0.74505805969E-08  0.10566000000E+00  0.10566000000E+00 0. -1.
     999900   -1    0    0    0    0 -0.00000000000E+00 -0.00000000000E+00 -0.74505805969E-08  0.93827000000E+00  0.93827000000E+00 0.  1.
     999903    2    1    2    0    0 -0.10413503831E+00  0.11206820701E-01  0.17693590262E-01  0.10804215518E+00  0.19757153807E-01 0.  0.
         14    1    1    2    0    0 -0.37451291496E-01 -0.17467640850E-01 -0.16637079154E-01  0.44547840737E-01  0.00000000000E+00 0.  1.
     999901    1    1    2    0    0  0.14158632980E+00  0.62608201484E-02 -0.10565111083E-02  0.89134000408E+00  0.88000000000E+00 0. -1.
        -11    1    3    3    0    0 -0.71439993663E-01 -0.16138142091E-02  0.11656540238E-01  0.72404510510E-01  0.51100000000E-03 0.  1.
         11    1    3    3    0    0 -0.32695044646E-01  0.12820634910E-01  0.60370500237E-02  0.35637644674E-01  0.51100000000E-03 0. -1.
</event>
<event>
 8    1  0.1084808E+005  0.1043930E+01  0.7957747E-01            NaN
         13   -1    0    0    0    0  0.00000000000E+00  0.00000000000E+00  0.74505805969E-08  0.10566000000E+00  0.10566000000E+00 0.  1.
     999900   -1    0    0    0    0 -0.00000000000E+00 -0.00000000000E+00 -0.74505805969E-08  0.93827000000E+00  0.93827000000E+00 0.  1.
     999902    2    1    2    0    0 -0.74385860606E-02  0.52224384452E-02 -0.14747914898E-01  0.10266063913E+01  0.10264602161E+01 0.  0.
     999903    2    3    3    0    0 -0.29286558327E-02  0.84577024260E-01 -0.10737925075E+00  0.13818191268E+00  0.20052118134E-01 0.  0.
         14    1    1    2    0    0  0.74385860606E-02 -0.52224384452E-02  0.14747914898E-01  0.17323608739E-01  0.00000000000E+00 0.  1.
     999901    1    3    3    0    0 -0.45099302279E-02 -0.79354585814E-01  0.92631335857E-01  0.88842447858E+00  0.88000000000E+00 0. -1.
        -11    1    4    4    0    0 -0.45368374569E-03  0.36058481801E-01 -0.30475275611E-01  0.47216771208E-01  0.51100000000E-03 0. -1.
         11    1    4    4    0    0 -0.24749720870E-02  0.48518542459E-01 -0.76903975143E-01  0.90965141472E-01  0.51100000000E-03 0.  1.
</event>
<event>
 8    1  0.1060404E+005  0.1043930E+01  0.7957747E-01            NaN
         13   -1    0    0    0    0  0.00000000000E+00  0.00000000000E+00  0.74505805969E-08  0.10566000000E+00  0.10566000000E+00 0. -1.
     999900   -1    0    0    0    0 -0.00000000000E+00 -0.00000000000E+00 -0.74505805969E-08  0.93827000000E+00  0.93827000000E+00 0. -1.
     999902    2    1    2    0    0  0.66672516951E-02 -0.20965451913E-01 -0.78268700631E-02  0.10205791475E+01  0.10203119787E+01 0.  0.
     999903    2    3    3    0    0 -0.96778116065E-01 -0.26896584798E-01  0.76045269414E-01  0.13053945272E+00  0.34179463022E-01 0.  0.
         14    1    1    2    0    0 -0.66672516951E-02  0.20965451913E-01  0.78268700631E-02  0.23350852534E-01  0.00000000000E+00 0. -1.
     999901    1    3    3    0    0  0.10344536776E+00  0.59311328841E-02 -0.83872139477E-01  0.89003969475E+00  0.88000000000E+00 0. -1.
        -11    1    4    4    0    0 -0.64621174802E-01 -0.22672830468E-02  0.55002595685E-01  0.84891598279E-01  0.51100000000E-03 0. -1.
         11    1    4    4    0    0 -0.32156941263E-01 -0.24629301751E-01  0.21042673728E-01  0.45647854438E-01  0.51100000000E-03 0.  1.
</event>
<event>
 8    1  0.1060404E+005  0.1043930E+01  0.7957747E-01            NaN
         13   -1    0    0    0    0  0.00000000000E+00  0.00000000000E+00  0.74505805969E-08  0.10566000000E+00  0.10566000000E+00 0. -1.
     999900   -1    0    0    0    0 -0.00000000000E+00 -0.00000000000E+00 -0.74505805969E-08  0.93827000000E+00  0.93827000000E+00 0.  1.
     999902    2    1    2    0    0 -0.60030733253E-02  0.18010583812E-01 -0.13297843762E-01  0.10207513316E+01  0.10204881334E+01 0.  0.
     999903    2    3    3    0    0 -0.75545942600E-01 -0.48206544741E-01  0.91197555305E-01  0.12938148291E+00  0.19786703306E-01 0.  0.
         14    1    1    2    0    0  0.60030733253E-02 -0.18010583812E-01  0.13297843762E-01  0.23178668368E-01  0.00000000000E+00 0. -1.
     999901    1    3    3    0    0  0.69542869274E-01  0.66217128553E-01 -0.10449539907E+00  0.89136984872E+00  0.88000000000E+00 0.  1.
        -11    1    4    4    0    0 -0.31053225589E-01 -0.27645621240E-01  0.52251955532E-01  0.66776576516E-01  0.51100000000E-03 0.  1.
         11    1    4    4    0    0 -0.44492717011E-01 -0.20560923500E-01  0.38945599773E-01  0.62604906396E-01  0.51100000000E-03 0. -1.
</event>
<event>
 8    1  0.1060404E+005  0.1043930E+01  0.7957747E-01            NaN
         13   -1    0    0    0    0  0.00000000000E+00  0.00000000000E+00  0.74505805969E-08  0.10566000000E+00  0.10566000000E+00 0. -1.
     999900   -1    0    0    0    0 -0.00000000000E+00 -0.00000000000E+00 -0.74505805969E-08  0.93827000000E+00  0.93827000000E+00 0. -1.
     999902    2    1    2    0    0 -0.12054062152E-01 -0.15046268650E-01  0.13552873771E-01  0.10203636893E+01  0.10200915093E+01 0.  0.
     999903    2    3    3    0    0 -0.42484419834E-01 -0.56229254578E-01  0.11156742629E+00  0.13344266825E+00  0.19824230149E-01 0.  0.
         14    1    1    2    0    0  0.12054062152E-01  0.15046268650E-01 -0.13552873771E-01  0.23566310745E-01  0.00000000000E+00 0.  1.
     999901    1    3    3    0    0  0.30430357683E-01  0.41182985928E-01 -0.98014552520E-01  0.88692102101E+00  0.88000000000E+00 0. -1.
        -11    1    4    4    0    0  0.46731066475E-03 -0.10038069161E-01  0.13407537707E-01  0.16763185858E-01  0.51100000000E-03 0. -1.
         11    1    4    4    0    0 -0.42951730499E-01 -0.46191185417E-01  0.98159888584E-01  0.11667948239E+00  0.51100000000E-03 0.  1.
</event>
<event>
 8    1  0.1060404E+005  0.1043930E+01  0.7957747E-01            NaN
         13   -1    0    0    0    0  0.00000000000E+00  0.00000000000E+00  0.74505805969E-08  0.10566000000E+00  0.10566000000E+00 0. -1.
     999900   -1    0    0    0    0 -0.00000000000E+00 -0.00000000000E+00 -0.74505805969E-08  0.93827000000E+00  0.93827000000E+00 0. -1.
     999902    2    1    2    0    0  0.68591782858E-03 -0.20836633569E-01 -0.85148567417E-02  0.10214102627E+01  0.10211619784E+01 0.  0.
     999903    2    3    3    0    0 -0.51314554070E-01 -0.10732915702E+00 -0.58735069955E-01  0.13421971075E+00  0.20307410137E-01 0.  0.
         14    1    1    2    0    0 -0.68591782858E-03  0.20836633569E-01  0.85148567417E-02  0.22519737278E-01  0.00000000000E+00 0. -1.
     999901    1    3    3    0    0  0.52000471898E-01  0.86492523447E-01  0.50220213213E-01  0.88719055197E+00  0.88000000000E+00 0.  1.
        -11    1    4    4    0    0 -0.28545763263E-01 -0.44720308171E-01 -0.17498484448E-01  0.55867921405E-01  0.51100000000E-03 0. -1.
         11    1    4    4    0    0 -0.22768790807E-01 -0.62608848845E-01 -0.41236585507E-01  0.78351789346E-01  0.51100000000E-03 0.  1.
</event>
<event>
 8    1  0.1060404E+005  0.1043930E+01  0.7957747E-01            NaN
         13   -1    0    0    0    0  0.00000000000E+00  0.00000000000E+00  0.74505805969E-08  0.10566000000E+00  0.10566000000E+00 0.  1.
     999900   -1    0    0    0    0 -0.00000000000E+00 -0.00000000000E+00 -0.74505805969E-08  0.93827000000E+00  0.93827000000E+00 0.  1.
     999902    2    1    2    0    0 -0.15921000211E-02 -0.23063056875E-01  0.55322473900E-02  0.10201593219E+01  0.10198823447E+01 0.  0.
     999903    2    3    3    0    0  0.64683982041E-01 -0.97031847830E-01  0.60208144429E-01  0.13288633417E+00  0.20846105797E-01 0.  0.
         14    1    1    2    0    0  0.15921000211E-02  0.23063056875E-01 -0.55322473900E-02  0.23770678074E-01  0.00000000000E+00 0. -1.
     999901    1    3    3    0    0 -0.66276082062E-01  0.73968790955E-01 -0.54675897039E-01  0.88727298776E+00  0.88000000000E+00 0.  1.
        -11    1    4    4    0    0  0.37019533952E-01 -0.43615087822E-01  0.20345126749E-01  0.60719906811E-01  0.51100000000E-03 0.  1.
         11    1    4    4    0    0  0.27664448090E-01 -0.53416760008E-01  0.39863017680E-01  0.72166427356E-01  0.51100000000E-03 0. -1.
</event>
<event>
 8    1  0.1060404E+005  0.1043930E+01  0.7957747E-01            NaN
         13   -1    0    0    0    0  0.00000000000E+00  0.00000000000E+00  0.74505805969E-08  0.10566000000E+00  0.10566000000E+00 0.  1.
     999900   -1    0    0    0    0 -0.00000000000E+00 -0.00000000000E+00 -0.74505805969E-08  0.93827000000E+00  0.93827000000E+00 0. -1.
     999902    2    1    2    0    0 -0.13299982484E-01  0.16227132713E-01  0.10613428706E-01  0.10204171474E+01  0.10201462152E+01 0.  0.
     999903    2    3    3    0    0 -0.68620273460E-01  0.56445310433E-02 -0.10899065966E+00  0.13054217637E+00  0.20535171225E-01 0.  0.
         14    1    1    2    0    0  0.13299982484E-01 -0.16227132713E-01 -0.10613428706E-01  0.23512852636E-01  0.00000000000E+00 0. -1.
     999901    1    3    3    0    0  0.55320290976E-01  0.10582601669E-01  0.11960408837E+00  0.88987497100E+00  0.88000000000E+00 0. -1.
        -11    1    4    4    0    0 -0.62917807321E-01  0.10914401690E-01 -0.10000955803E+00  0.11865895441E+00  0.51100000000E-03 0. -1.
         11    1    4    4    0    0 -0.57024661388E-02 -0.52698706464E-02 -0.89811016261E-02  0.11883221958E-01  0.51100000000E-03 0.  1.
</event>
<event>
 8    1  0.1060404E+005  0.1043930E+01  0.7957747E-01            NaN
         13   -1    0    0    0    0  0.00000000000E+00  0.00000000000E+00  0.74505805969E-08  0.10566000000E+00  0.10566000000E+00 0. -1.
     999900   -1    0    0    0    0 -0.00000000000E+00 -0.00000000000E+00 -0.74505805969E-08  0.93827000000E+00  0.93827000000E+00 0.  1.
     999902    2    1    2    0    0 -0.75356099299E-02  0.16260445359E-01 -0.16187284383E-01  0.10197801413E+01  0.10194941495E+01 0.  0.
     999903    2    3    3    0    0  0.12882101069E-01 -0.86227438285E-01  0.90555012445E-01  0.12719145261E+00  0.19399373631E-01 0.  0.
         14    1    1    2    0    0  0.75356099299E-02 -0.16260445359E-01  0.16187284383E-01  0.24149858715E-01  0.00000000000E+00 0. -1.
     999901    1    3    3    0    0 -0.20417710999E-01  0.10248788364E+00 -0.10674229683E+00  0.89258868867E+00  0.88000000000E+00 0.  1.
        -11    1    4    4    0    0 -0.31680483093E-02 -0.38554286615E-01  0.44775187104E-01  0.59173879776E-01  0.51100000000E-03 0.  1.
         11    1    4    4    0    0  0.16050149378E-01 -0.47673151670E-01  0.45779825341E-01  0.68017572835E-01  0.51100000000E-03 0. -1.
</event>
<event>
 8    1  0.1060404E+005  0.1043930E+01  0.7957747E-01            NaN
         13   -1    0    0    0    0  0.00000000000E+00  0.00000000000E+00  0.74505805969E-08  0.10566000000E+00  0.10566000000E+00 0. -1.
     999900   -1    0    0    0    0 -0.00000000000E+00 -0.00000000000E+00 -0.74505805969E-08  0.93827000000E+00  0.93827000000E+00 0. -1.
     999902    2    1    2    0    0  0.94199928617E-02  0.22287963560E-01 -0.75995839839E-03  0.10197211768E+01  0.10194337699E+01 0.  0.
     999903    2    3    3    0    0  0.11437754438E+00  0.10625541320E-01 -0.60857045975E-01  0.13137228155E+00  0.18972915674E-01 0.  0.
         14    1    1    2    0    0 -0.94199928617E-02 -0.22287963560E-01  0.75995839839E-03  0.24208823225E-01  0.00000000000E+00 0.  1.
     999901    1    3    3    0    0 -0.10495755151E+00  0.11662422241E-01  0.60097087576E-01  0.88834889522E+00  0.88000000000E+00 0.  1.
        -11    1    4    4    0    0  0.25787701060E-01 -0.43391498388E-02 -0.18536244655E-01  0.32057561264E-01  0.51100000000E-03 0.  1.
         11    1    4    4    0    0  0.88589843316E-01  0.14964691158E-01 -0.42320801319E-01  0.99314720286E-01  0.51100000000E-03 0. -1.
</event>
<event>
 8    1  0.1060404E+005  0.1043930E+01  0.7957747E-01            NaN
         13   -1    0    0    0    0  0.00000000000E+00  0.00000000000E+00  0.74505805969E-08  0.10566000000E+00  0.10566000000E+00 0.  1.
     999900   -1    0    0    0    0 -0.00000000000E+00 -0.00000000000E+00 -0.74505805969E-08  0.93827000000E+00  0.93827000000E+00 0.  1.
     999902    2    1    2    0    0  0.25273254640E-02  0.88007285734E-02 -0.21624699547E-01  0.10204466479E+01  0.10201764030E+01 0.  0.
     999903    2    3    3    0    0 -0.84939976224E-01 -0.86587648930E-01  0.39174754843E-01  0.12890526066E+00  0.19227176104E-01 0.  0.
         14    1    1    2    0    0 -0.25273254640E-02 -0.88007285734E-02  0.21624699547E-01  0.23483352144E-01  0.00000000000E+00 0.  1.
     999901    1    3    3    0    0  0.87467301688E-01  0.95388377503E-01 -0.60799454390E-01  0.89154138719E+00  0.88000000000E+00 0.  1.
        -11    1    4    4    0    0 -0.49033731561E-01 -0.47214873170E-01  0.31711023006E-01  0.75095946498E-01  0.51100000000E-03 0. -1.
         11    1    4    4    0    0 -0.35906244662E-01 -0.39372775759E-01  0.74637318375E-02  0.53809314163E-01  0.51100000000E-03 0.  1.
</event>
<event>
 8    1  0.1060404E+005  0.1043930E+01  0.7957747E-01            NaN
         13   -1    0    0    0    0  0.00000000000E+00  0.00000000000E+00  0.74505805969E-08  0.10566000000E+00  0.10566000000E+00 0. -1.
     999900   -1    0    0    0    0 -0.00000000000E+00 -0.00000000000E+00 -0.74505805969E-08  0.93827000000E+00  0.93827000000E+00 0.  1.
     999902    2    1    2    0    0 -0.21397769792E-01  0.20148016224E-02 -0.83645135706E-02  0.10208672798E+01  0.10206067381E+01 0.  0.
     999903    2    3    3    0    0 -0.94151782207E-01  0.78798249034E-01 -0.49054839371E-01  0.13359925558E+00  0.19200564627E-01 0.  0.
         14    1    1    2    0    0  0.21397769792E-01 -0.20148016224E-02  0.83645135706E-02  0.23062720241E-01  0.00000000000E+00 0. -1.
     999901    1    3    3    0    0  0.72754012415E-01 -0.76783447411E-01  0.40690325800E-01  0.88726802418E+00  0.88000000000E+00 0.  1.
        -11    1    4    4    0    0 -0.30385890977E-01  0.24075446353E-01 -0.61688909631E-02  0.39258703803E-01  0.51100000000E-03 0. -1.
         11    1    4    4    0    0 -0.63765891230E-01  0.54722802681E-01 -0.42885948408E-01  0.94340551776E-01  0.51100000000E-03 0.  1.
</event>
<event>
 8    1  0.1060404E+005  0.1043930E+01  0.7957747E-01            NaN
         13   -1    0    0    0    0  0.00000000000E+00  0.00000000000E+00  0.74505805969E-08  0.10566000000E+00  0.10566000000E+00 0.  1.
     999900   -1    0    0    0    0 -0.00000000000E+00 -0.00000000000E+00 -0.74505805969E-08  0.93827000000E+00  0.93827000000E+00 0. -1.
     999902    2    1    2    0    0  0.69169787348E-02  0.80734595076E-02 -0.21855607383E-01  0.10196258251E+01  0.10193361223E+01 0.  0.
     999903    2    3    3    0    0 -0.75430167732E-01  0.36558072094E-02 -0.10554859118E+00  0.13181667685E+00  0.23066340534E-01 0.  0.
         14    1    1    2    0    0 -0.69169787348E-02 -0.80734595076E-02  0.21855607383E-01  0.24304174895E-01  0.00000000000E+00 0.  1.
     999901    1    3    3    0    0  0.82347146466E-01  0.44176522982E-02  0.83692983798E-01  0.88780914825E+00  0.88000000000E+00 0.  1.
        -11    1    4    4    0    0 -0.66126540406E-01 -0.34809968431E-02 -0.96314616149E-01  0.11688286055E+00  0.51100000000E-03 0. -1.
         11    1    4    4    0    0 -0.93036273259E-02  0.71368040525E-02 -0.92339750331E-02  0.14933816304E-01  0.51100000000E-03 0.  1.
</event>
<event>
 8    1  0.1060404E+005  0.1043930E+01  0.7957747E-01            NaN
         13   -1    0    0    0    0  0.00000000000E+00  0.00000000000E+00  0.74505805969E-08  0.10566000000E+00  0.10566000000E+00 0.  1.
     999900   -1    0    0    0    0 -0.00000000000E+00 -0.00000000000E+00 -0.74505805969E-08  0.93827000000E+00  0.93827000000E+00 0. -1.
     999902    2    1    2    0    0 -0.20157892808E-01  0.84523909390E-03 -0.12234712877E-01  0.10203345922E+01  0.10200617318E+01 0.  0.
     999903    2    3    3    0    0  0.10957873294E+00  0.18292726149E-01 -0.62654723362E-01  0.12922394566E+00  0.20762736575E-01 0.  0.
         14    1    1    2    0    0  0.20157892808E-01 -0.84523909390E-03  0.12234712877E-01  0.23595407832E-01  0.00000000000E+00 0.  1.
     999901    1    3    3    0    0 -0.12973662574E+00 -0.17447487055E-01  0.50420010486E-01  0.89111064651E+00  0.88000000000E+00 0.  1.
        -11    1    4    4    0    0  0.45997923609E-01  0.15260436937E-01 -0.35203550540E-01  0.59901928212E-01  0.51100000000E-03 0. -1.
         11    1    4    4    0    0  0.63580809328E-01  0.30322892121E-02 -0.27451172822E-01  0.69322017448E-01  0.51100000000E-03 0.  1.
</event>
<event>
 8    1  0.1060404E+005  0.1043930E+01  0.7957747E-01            NaN
         13   -1    0    0    0    0  0.00000000000E+00  0.00000000000E+00  0.74505805969E-08  0.10566000000E+00  0.10566000000E+00 0.  1.
     999900   -1    0    0    0    0 -0.00000000000E+00 -0.00000000000E+00 -0.74505805969E-08  0.93827000000E+00  0.93827000000E+00 0. -1.
     999902    2    1    2    0    0 -0.16418241793E-01  0.98206115923E-02  0.14475608387E-01  0.10199394537E+01  0.10196572673E+01 0.  0.
     999903    2    3    3    0    0 -0.23570533965E-02  0.12649355074E+00  0.32898996513E-01  0.13193623690E+00  0.17850841883E-01 0.  0.
         14    1    1    2    0    0  0.16418241793E-01 -0.98206115923E-02 -0.14475608387E-01  0.23990546342E-01  0.00000000000E+00 0.  1.
     999901    1    3    3    0    0 -0.14061188396E-01 -0.11667293915E+00 -0.18423388126E-01  0.88800321676E+00  0.88000000000E+00 0.  1.
        -11    1    4    4    0    0 -0.77920487461E-02  0.30822217874E-01  0.54899433753E-02  0.32266480093E-01  0.51100000000E-03 0.  1.
         11    1    4    4    0    0  0.54349953496E-02  0.95671332864E-01  0.27409053138E-01  0.99669756804E-01  0.51100000000E-03 0. -1.
</event>
<event>
 8    1  0.1060404E+005  0.1043930E+01  0.7957747E-01            NaN
         13   -1    0    0    0    0  0.00000000000E+00  0.00000000000E+00  0.74505805969E-08  0.10566000000E+00  0.10566000000E+00 0.  1.
     999900   -1    0    0    0    0 -0.00000000000E+00 -0.00000000000E+00 -0.74505805969E-08  0.93827000000E+00  0.93827000000E+00 0. -1.
     999902    2    1    2    0    0  0.83704302284E-02  0.71439178961E-02  0.20336299409E-01  0.10208071814E+01  0.10205452645E+01 0.  0.
     999903    2    3    3    0    0  0.94306112616E-01 -0.27322526093E-01  0.87705038997E-01  0.13338877710E+00  0.21452941091E-01 0.  0.
         14    1    1    2    0    0 -0.83704302284E-02 -0.71439178961E-02 -0.20336299409E-01  0.23122818573E-01  0.00000000000E+00 0. -1.
     999901    1    3    3    0    0 -0.85935682387E-01  0.34466443989E-01 -0.67368739588E-01  0.88741840433E+00  0.88000000000E+00 0. -1.
        -11    1    4    4    0    0  0.19911579304E-01 -0.61905853885E-02  0.31515375682E-01  0.37792517291E-01  0.51100000000E-03 0. -1.
         11    1    4    4    0    0  0.74394533312E-01 -0.21131940704E-01  0.56189663315E-01  0.95596259807E-01  0.51100000000E-03 0.  1.
</event>
<event>
 8    1  0.1060404E+005  0.1043930E+01  0.7957747E-01            NaN
         13   -1    0    0    0    0  0.00000000000E+00  0.00000000000E+00  0.74505805969E-08  0.10566000000E+00  0.10566000000E+00 0. -1.
     999900   -1    0    0    0    0 -0.00000000000E+00 -0.00000000000E+00 -0.74505805969E-08  0.93827000000E+00  0.93827000000E+00 0.  1.
     999902    2    1    2    0    0 -0.43366410169E-02  0.16389911870E-01  0.16960462146E-01  0.10199489045E+01  0.10196669431E+01 0.  0.
     999903    2    3    3    0    0 -0.60079834590E-01  0.98277440335E-01  0.64062603025E-01  0.13313918271E+00  0.18814437594E-01 0.  0.
         14    1    1    2    0    0  0.43366410169E-02 -0.16389911870E-01 -0.16960462146E-01  0.23981095526E-01  0.00000000000E+00 0.  1.
     999901    1    3    3    0    0  0.55743193573E-01 -0.81887528465E-01 -0.47102140879E-01  0.88680972177E+00  0.88000000000E+00 0.  1.
        -11    1    4    4    0    0 -0.57518563903E-01  0.82322910408E-01  0.57211419295E-01  0.11558051043E+00  0.51100000000E-03 0.  1.
         11    1    4    4    0    0 -0.25612706869E-02  0.15954529927E-01  0.68511837298E-02  0.17558672280E-01  0.51100000000E-03 0. -1.
</event>
<event>
 8    1  0.1060404E+005  0.1043930E+01  0.7957747E-01            NaN
         13   -1    0    0    0    0  0.00000000000E+00  0.00000000000E+00  0.74505805969E-08  0.10566000000E+00  0.10566000000E+00 0.  1.
     999900   -1    0    0    0    0 -0.00000000000E+00 -0.00000000000E+00 -0.74505805969E-08  0.93827000000E+00  0.93827000000E+00 0. -1.
     999902    2    1    2    0    0  0.43256435858E-02  0.19414699970E-01  0.11215953920E-01  0.10210949526E+01  0.10208395872E+01 0.  0.
     999903    2    3    3    0    0  0.48698922348E-01 -0.23414284876E-01  0.11916980540E+00  0.13235576484E+00  0.19919643388E-01 0.  0.
         14    1    1    2    0    0 -0.43256435858E-02 -0.19414699970E-01 -0.11215953920E-01  0.22835047399E-01  0.00000000000E+00 0. -1.
     999901    1    3    3    0    0 -0.44373278762E-01  0.42828984846E-01 -0.10795385148E+00  0.88873918776E+00  0.88000000000E+00 0. -1.
        -11    1    4    4    0    0  0.14601061911E-01 -0.16610467132E-01  0.56649876981E-01  0.60815855747E-01  0.51100000000E-03 0. -1.
         11    1    4    4    0    0  0.34097860437E-01 -0.68038177440E-02  0.62519928422E-01  0.71539909093E-01  0.51100000000E-03 0.  1.
</event>
<event>
 8    1  0.1060404E+005  0.1043930E+01  0.7957747E-01            NaN
         13   -1    0    0    0    0  0.00000000000E+00  0.00000000000E+00  0.74505805969E-08  0.10566000000E+00  0.10566000000E+00 0. -1.
     999900   -1    0    0    0    0 -0.00000000000E+00 -0.00000000000E+00 -0.74505805969E-08  0.93827000000E+00  0.93827000000E+00 0.  1.
     999902    2    1    2    0    0  0.20894380901E-01  0.30377370966E-02  0.13445909571E-01  0.10188981107E+01  0.10185905774E+01 0.  0.
     999903    2    3    3    0    0  0.58178753997E-01 -0.10381304268E+00 -0.47103877701E-01  0.12958742796E+00  0.20302978709E-01 0.  0.
         14    1    1    2    0    0 -0.20894380901E-01 -0.30377370966E-02 -0.13445909571E-01  0.25031889343E-01  0.00000000000E+00 0.  1.
     999901    1    3    3    0    0 -0.37284373097E-01  0.10685077978E+00  0.60549787271E-01  0.88931068269E+00  0.88000000000E+00 0. -1.
        -11    1    4    4    0    0  0.20540619582E-01 -0.55392764253E-01 -0.27770327913E-01  0.65281908809E-01  0.51100000000E-03 0.  1.
         11    1    4    4    0    0  0.37638134416E-01 -0.48420278427E-01 -0.19333549788E-01  0.64305519153E-01  0.51100000000E-03 0. -1.
</event>
<event>
 8    1  0.1060404E+005  0.1043930E+01  0.7957747E-01            NaN
         13   -1    0    0    0    0  0.00000000000E+00  0.00000000000E+00  0.74505805969E-08  0.10566000000E+00  0.10566000000E+00 0.  1.
     999900   -1    0    0    0    0 -0.00000000000E+00 -0.00000000000E+00 -0.74505805969E-08  0.93827000000E+00  0.93827000000E+00 0. -1.
     999902    2    1    2    0    0  0.21811498351E-01  0.20728916480E-01 -0.33665489917E-02  0.10136519041E+01  0.10131995951E+01 0.  0.
     999903    2    3    3    0    0  0.50430625670E-01  0.33053984321E-01  0.10892516432E+00  0.12596930846E+00  0.19177105220E-01 0.  0.
         14    1    1    2    0    0 -0.21811498351E-01 -0.20728916480E-01  0.33665489917E-02  0.30278095892E-01  0.00000000000E+00 0.  1.
     999901    1    3    3    0    0 -0.28619127319E-01 -0.12325067841E-01 -0.11229171332E+00  0.88768259565E+00  0.88000000000E+00 0. -1.
        -11    1    4    4    0    0  0.31518825867E-01  0.30109347354E-01  0.82866240571E-01  0.93632708652E-01  0.51100000000E-03 0. -1.
         11    1    4    4    0    0  0.18911799803E-01  0.29446369672E-02  0.26058923753E-01  0.32336599803E-01  0.51100000000E-03 0.  1.
</event>
<event>
 8    1  0.1060404E+005  0.1043930E+01  0.7957747E-01            NaN
         13   -1    0    0    0    0  0.00000000000E+00  0.00000000000E+00  0.74505805969E-08  0.10566000000E+00  0.10566000000E+00 0. -1.
     999900   -1    0    0    0    0 -0.00000000000E+00 -0.00000000000E+00 -0.74505805969E-08  0.93827000000E+00  0.93827000000E+00 0. -1.
     999902    2    1    2    0    0 -0.60211712213E-02  0.58440856674E-02  0.24510994946E-01  0.10180225356E+01  0.10176928251E+01 0.  0.
     999903    2    3    3    0    0  0.28970230182E-01 -0.76583839380E-01 -0.93159058126E-01  0.12568571441E+00  0.20345269848E-01 0.  0.
         14    1    1    2    0    0  0.60211712213E-02 -0.58440856674E-02 -0.24510994946E-01  0.25907464434E-01  0.00000000000E+00 0.  1.
     999901    1    3    3    0    0 -0.34991401404E-01  0.82427925047E-01  0.11767005307E+00  0.89233682116E+00  0.88000000000E+00 0.  1.
        -11    1    4    4    0    0  0.30267052818E-01 -0.71395015500E-01 -0.79734246124E-01  0.11122568881E+00  0.51100000000E-03 0.  1.
         11    1    4    4    0    0 -0.12968226355E-02 -0.51888238801E-02 -0.13424812002E-01  0.14460025605E-01  0.51100000000E-03 0. -1.
</event>
<event>
 8    1  0.1060404E+005  0.1043930E+01  0.7957747E-01            NaN
         13   -1    0    0    0    0  0.00000000000E+00  0.00000000000E+00  0.74505805969E-08  0.10566000000E+00  0.10566000000E+00 0.  1.
     999900   -1    0    0    0    0 -0.00000000000E+00 -0.00000000000E+00 -0.74505805969E-08  0.93827000000E+00  0.93827000000E+00 0. -1.
     999902    2    1    2    0    0  0.12542131537E-01  0.25625000077E-02  0.32495607039E-01  0.10090038501E+01  0.10083991936E+01 0.  0.
     999903    2    3    3    0    0 -0.29315565487E-01 -0.67916414818E-01  0.95953599521E-01  0.12291905673E+00  0.20735463946E-01 0.  0.
         14    1    1    2    0    0 -0.12542131537E-01 -0.25625000077E-02 -0.32495607039E-01  0.34926149897E-01  0.00000000000E+00 0. -1.
     999901    1    3    3    0    0  0.41857697024E-01  0.70478914826E-01 -0.63457992482E-01  0.88608479337E+00  0.88000000000E+00 0.  1.
        -11    1    4    4    0    0 -0.22878857907E-01 -0.30378178993E-01  0.39654919895E-01  0.54945879654E-01  0.51100000000E-03 0.  1.
         11    1    4    4    0    0 -0.64367075797E-02 -0.37538235826E-01  0.56298679626E-01  0.67973177077E-01  0.51100000000E-03 0. -1.
</event>
<event>
 8    1  0.1060404E+005  0.1043930E+01  0.7957747E-01            NaN
         13   -1    0    0    0    0  0.00000000000E+00  0.00000000000E+00  0.74505805969E-08  0.10566000000E+00  0.10566000000E+00 0.  1.
     999900   -1    0    0    0    0 -0.00000000000E+00 -0.00000000000E+00 -0.74505805969E-08  0.93827000000E+00  0.93827000000E+00 0. -1.
     999902    2    1    2    0    0 -0.57886641425E-03 -0.10689630624E-01  0.21279964563E-01  0.10201089971E+01  0.10198308319E+01 0.  0.
     999903    2    3    3    0    0 -0.24193852609E-01 -0.11876727567E+00 -0.44792399277E-01  0.13072493930E+00  0.19789958241E-01 0.  0.
         14    1    1    2    0    0  0.57886641425E-03  0.10689630624E-01 -0.21279964563E-01  0.23821002939E-01  0.00000000000E+00 0. -1.
     999901    1    3    3    0    0  0.23614986195E-01  0.10807764505E+00  0.66072363840E-01  0.88938405776E+00  0.88000000000E+00 0.  1.
        -11    1    4    4    0    0 -0.16909839419E-01 -0.36612548138E-01 -0.14918407280E-01  0.43002806270E-01  0.51100000000E-03 0.  1.
         11    1    4    4    0    0 -0.72840131905E-02 -0.82154727537E-01 -0.29873991996E-01  0.87722133032E-01  0.51100000000E-03 0. -1.
</event>
<event>
 8    1  0.1060404E+005  0.1043930E+01  0.7957747E-01            NaN
         13   -1    0    0    0    0  0.00000000000E+00  0.00000000000E+00  0.74505805969E-08  0.10566000000E+00  0.10566000000E+00 0.  1.
     999900   -1    0    0    0    0 -0.00000000000E+00 -0.00000000000E+00 -0.74505805969E-08  0.93827000000E+00  0.93827000000E+00 0. -1.
     999902    2    1    2    0    0  0.14149911860E-01  0.16573018817E-01 -0.88936386612E-02  0.10203931827E+01  0.10201216916E+01 0.  0.
     999903    2    3    3    0    0 -0.19227440800E-02 -0.10265512298E+00  0.74205309910E-01  0.12832865854E+00  0.20495008331E-01 0.  0.
         14    1    1    2    0    0 -0.14149911860E-01 -0.16573018817E-01  0.88936386612E-02  0.23536817265E-01  0.00000000000E+00 0.  1.
     999901    1    3    3    0    0  0.16072655940E-01  0.11922814180E+00 -0.83098948571E-01  0.89206452419E+00  0.88000000000E+00 0.  1.
        -11    1    4    4    0    0 -0.97056395904E-02 -0.35637074543E-01  0.21750391302E-01  0.42866550650E-01  0.51100000000E-03 0.  1.
         11    1    4    4    0    0  0.77828955104E-02 -0.67018048435E-01  0.52454918608E-01  0.85462107894E-01  0.51100000000E-03 0. -1.
</event>
<event>
 8    1  0.1060404E+005  0.1043930E+01  0.7957747E-01            NaN
         13   -1    0    0    0    0  0.00000000000E+00  0.00000000000E+00  0.74505805969E-08  0.10566000000E+00  0.10566000000E+00 0.  1.
     999900   -1    0    0    0    0 -0.00000000000E+00 -0.00000000000E+00 -0.74505805969E-08  0.93827000000E+00  0.93827000000E+00 0.  1.
     999902    2    1    2    0    0 -0.12833223369E-01 -0.17246965392E-01  0.10468136864E-01  0.10200190961E+01  0.10197388024E+01 0.  0.
     999903    2    3    3    0    0 -0.82007625094E-01 -0.68335178056E-01  0.77208758647E-01  0.13331203400E+00  0.20395069609E-01 0.  0.
         14    1    1    2    0    0  0.12833223369E-01  0.17246965392E-01 -0.10468136864E-01  0.23910903929E-01  0.00000000000E+00 0. -1.
     999901    1    3    3    0    0  0.69174401725E-01  0.51088212664E-01 -0.66740621784E-01  0.88670706207E+00  0.88000000000E+00 0.  1.
        -11    1    4    4    0    0 -0.43847553658E-01 -0.49106213241E-01  0.49712525644E-01  0.82496208807E-01  0.51100000000E-03 0.  1.
         11    1    4    4    0    0 -0.38160071436E-01 -0.19228964816E-01  0.27496233003E-01  0.50815825195E-01  0.51100000000E-03 0. -1.
</event>
<event>
 8    1  0.1060404E+005  0.1043930E+01  0.7957747E-01            NaN
         13   -1    0    0    0    0  0.00000000000E+00  0.00000000000E+00  0.74505805969E-08  0.10566000000E+00  0.10566000000E+00 0. -1.
     999900   -1    0    0    0    0 -0.00000000000E+00 -0.00000000000E+00 -0.74505805969E-08  0.93827000000E+00  0.93827000000E+00 0.  1.
     999902    2    1    2    0    0  0.90282121414E-02  0.57083650825E-02 -0.21432103976E-01  0.10199836197E+01  0.10197024838E+01 0.  0.
     999903    2    3    3    0    0  0.51785508257E-01 -0.30219949497E-01  0.11168518414E+00  0.12822174427E+00  0.19293810787E-01 0.  0.
         14    1    1    2    0    0 -0.90282121414E-02 -0.57083650825E-02  0.21432103976E-01  0.23946380253E-01  0.00000000000E+00 0. -1.
     999901    1    3    3    0    0 -0.42757296116E-01  0.35928314580E-01 -0.13311728811E+00  0.89176187548E+00  0.88000000000E+00 0.  1.
        -11    1    4    4    0    0  0.20276246478E-01 -0.19929469578E-01  0.65157063296E-01  0.71091588442E-01  0.51100000000E-03 0. -1.
         11    1    4    4    0    0  0.31509261779E-01 -0.10290479920E-01  0.46528120841E-01  0.57130155827E-01  0.51100000000E-03 0.  1.
</event>
<event>
 8    1  0.1060404E+005  0.1043930E+01  0.7957747E-01            NaN
         13   -1    0    0    0    0  0.00000000000E+00  0.00000000000E+00  0.74505805969E-08  0.10566000000E+00  0.10566000000E+00 0. -1.
     999900   -1    0    0    0    0 -0.00000000000E+00 -0.00000000000E+00 -0.74505805969E-08  0.93827000000E+00  0.93827000000E+00 0.  1.
     999902    2    1    2    0    0 -0.14484574908E-01  0.16450327603E-01  0.94498023940E-02  0.10200612976E+01  0.10197820041E+01 0.  0.
     999903    2    3    3    0    0  0.62272404111E-01  0.52601441728E-01  0.10184216714E+00  0.13116597985E+00  0.13708511047E-01 0.  0.
         14    1    1    2    0    0  0.14484574908E-01 -0.16450327603E-01 -0.94498023940E-02  0.23868702390E-01  0.00000000000E+00 0.  1.
     999901    1    3    3    0    0 -0.76756979019E-01 -0.36151114126E-01 -0.92392364747E-01  0.88889531776E+00  0.88000000000E+00 0.  1.
        -11    1    4    4    0    0  0.23656215058E-01  0.22634181072E-01  0.51241874519E-01  0.60810471869E-01  0.51100000000E-03 0.  1.
         11    1    4    4    0    0  0.38616189053E-01  0.29967260657E-01  0.50600292622E-01  0.70355507977E-01  0.51100000000E-03 0. -1.
</event>
<event>
 8    1  0.1060404E+005  0.1043930E+01  0.7957747E-01            NaN
         13   -1    0    0    0    0  0.00000000000E+00  0.00000000000E+00  0.74505805969E-08  0.10566000000E+00  0.10566000000E+00 0.  1.
     999900   -1    0    0    0    0 -0.00000000000E+00 -0.00000000000E+00 -0.74505805969E-08  0.93827000000E+00  0.93827000000E+00 0.  1.
     999902    2    1    2    0    0  0.12998723905E-01  0.44308635047E-02  0.19391052218E-01  0.10201684285E+01  0.10198916659E+01 0.  0.
     999903    2    3    3    0    0  0.75399693855E-01 -0.53185965544E-01 -0.88529959975E-01  0.12951668683E+00  0.20570794610E-01 0.  0.
         14    1    1    2    0    0 -0.12998723905E-01 -0.44308635047E-02 -0.19391052218E-01  0.23761571511E-01  0.00000000000E+00 0. -1.
     999901    1    3    3    0    0 -0.62400969949E-01  0.57616829049E-01  0.10792101219E+00  0.89065174166E+00  0.88000000000E+00 0. -1.
        -11    1    4    4    0    0  0.21093863975E-01 -0.21616381456E-01 -0.40064491527E-01  0.50176126265E-01  0.51100000000E-03 0.  1.
         11    1    4    4    0    0  0.54305829880E-01 -0.31569584089E-01 -0.48465468448E-01  0.79340560569E-01  0.51100000000E-03 0. -1.
</event>
<event>
 8    1  0.1060404E+005  0.1043930E+01  0.7957747E-01            NaN
         13   -1    0    0    0    0  0.00000000000E+00  0.00000000000E+00  0.74505805969E-08  0.10566000000E+00  0.10566000000E+00 0.  1.
     999900   -1    0    0    0    0 -0.00000000000E+00 -0.00000000000E+00 -0.74505805969E-08  0.93827000000E+00  0.93827000000E+00 0. -1.
     999902    2    1    2    0    0  0.45862786974E-02  0.23280296472E-01  0.55770026527E-02  0.10195556464E+01  0.10192642478E+01 0.  0.
     999903    2    3    3    0    0 -0.25618133000E-01 -0.12279785870E+00 -0.46693804959E-02  0.12694368014E+00  0.18902168484E-01 0.  0.
         14    1    1    2    0    0 -0.45862786974E-02 -0.23280296472E-01 -0.55770026527E-02  0.24374353626E-01  0.00000000000E+00 0. -1.
     999901    1    3    3    0    0  0.30204411697E-01  0.14607815517E+00  0.10246383149E-01  0.89261196624E+00  0.88000000000E+00 0.  1.
        -11    1    4    4    0    0 -0.14647085614E-01 -0.30005873788E-01 -0.13771738794E-03  0.33394156164E-01  0.51100000000E-03 0. -1.
         11    1    4    4    0    0 -0.10971047386E-01 -0.92791984908E-01 -0.45316631080E-02  0.93549523973E-01  0.51100000000E-03 0.  1.
</event>
<event>
 8    1  0.1060404E+005  0.1043930E+01  0.7957747E-01            NaN
         13   -1    0    0    0    0  0.00000000000E+00  0.00000000000E+00  0.74505805969E-08  0.10566000000E+00  0.10566000000E+00 0. -1.
     999900   -1    0    0    0    0 -0.00000000000E+00 -0.00000000000E+00 -0.74505805969E-08  0.93827000000E+00  0.93827000000E+00 0. -1.
     999902    2    1    2    0    0 -0.10398647937E-02  0.67710211724E-02  0.22188044333E-01  0.10207085152E+01  0.10204443324E+01 0.  0.
     999903    2    3    3    0    0  0.64969848828E-01  0.11197963189E+00 -0.93040450440E-02  0.13142909577E+00  0.20652427121E-01 0.  0.
         14    1    1    2    0    0  0.10398647937E-02 -0.67710211724E-02 -0.22188044333E-01  0.23221484832E-01  0.00000000000E+00 0.  1.
     999901    1    3    3    0    0 -0.66009713622E-01 -0.10520861072E+00  0.31492089377E-01  0.88927941939E+00  0.88000000000E+00 0. -1.
        -11    1    4    4    0    0  0.27579229433E-01  0.39418282364E-01 -0.12596111878E-01  0.49732665685E-01  0.51100000000E-03 0. -1.
         11    1    4    4    0    0  0.37390619396E-01  0.72561349530E-01  0.32920668338E-02  0.81696430090E-01  0.51100000000E-03 0.  1.
</event>
<event>
 8    1  0.1060404E+005  0.1043930E+01  0.7957747E-01            NaN
         13   -1    0    0    0    0  0.00000000000E+00  0.00000000000E+00  0.74505805969E-08  0.10566000000E+00  0.10566000000E+00 0.  1.
     999900   -1    0    0    0    0 -0.00000000000E+00 -0.00000000000E+00 -0.74505805969E-08  0.93827000000E+00  0.93827000000E+00 0.  1.
     999902    2    1    2    0    0 -0.22445883322E-01 -0.58138910021E-02 -0.49040090718E-02  0.10202304576E+01  0.10199551550E+01 0.  0.
     999903    2    3    3    0    0 -0.59939052996E-01  0.62876847013E-01  0.95997275195E-01  0.13101438459E+00  0.20077454059E-01 0.  0.
         14    1    1    2    0    0  0.22445883322E-01  0.58138910021E-02  0.49040090718E-02  0.23699542436E-01  0.00000000000E+00 0.  1.
     999901    1    3    3    0    0  0.37493169674E-01 -0.68690738015E-01 -0.10090128427E+00  0.88921607297E+00  0.88000000000E+00 0.  1.
        -11    1    4    4    0    0 -0.55760884555E-01  0.47884130150E-01  0.76978455575E-01  0.10643359390E+00  0.51100000000E-03 0. -1.
         11    1    4    4    0    0 -0.41781684401E-02  0.14992716864E-01  0.19018819620E-01  0.24580790695E-01  0.51100000000E-03 0.  1.
</event>
<event>
 8    1  0.1060404E+005  0.1043930E+01  0.7957747E-01            NaN
         13   -1    0    0    0    0  0.00000000000E+00  0.00000000000E+00  0.74505805969E-08  0.10566000000E+00  0.10566000000E+00 0. -1.
     999900   -1    0    0    0    0 -0.00000000000E+00 -0.00000000000E+00 -0.74505805969E-08  0.93827000000E+00  0.93827000000E+00 0.  1.
     999902    2    1    2    0    0 -0.16633264498E-01 -0.11471661126E-01  0.56156375092E-02  0.10229585937E+01  0.10227436065E+01 0.  0.
     999903    2    3    3    0    0 -0.12230969736E+00 -0.38182518587E-01  0.39106470427E-01  0.13560149860E+00  0.20997228334E-01 0.  0.
         14    1    1    2    0    0  0.16633264498E-01  0.11471661126E-01 -0.56156375092E-02  0.20971406283E-01  0.00000000000E+00 0.  1.
     999901    1    3    3    0    0  0.10567643287E+00  0.26710857461E-01 -0.33490832918E-01  0.88735709512E+00  0.88000000000E+00 0.  1.
        -11    1    4    4    0    0 -0.10842951189E+00 -0.28898117886E-01  0.28383552921E-01  0.11574950308E+00  0.51100000000E-03 0. -1.
         11    1    4    4    0    0 -0.13880185475E-01 -0.92844007006E-02  0.10722917506E-01  0.19851995518E-01  0.51100000000E-03 0.  1.
</event>
<event>
 8    1  0.1099166E+005  0.1043930E+01  0.7957747E-01            NaN
         13   -1    0    0    0    0  0.00000000000E+00  0.00000000000E+00  0.74505805969E-08  0.10566000000E+00  0.10566000000E+00 0.  1.
     999900   -1    0    0    0    0 -0.00000000000E+00 -0.00000000000E+00 -0.74505805969E-08  0.93827000000E+00  0.93827000000E+00 0. -1.
     999902    2    1    2    0    0 -0.28836065729E-01 -0.12477965751E-01  0.13189635910E-01  0.10098538381E+01  0.10092787472E+01 0.  0.
     999903    2    3    3    0    0 -0.71340301866E-01  0.55299773837E-01 -0.78883981317E-01  0.12144065545E+00  0.19433132307E-01 0.  0.
         14    1    1    2    0    0  0.28836065729E-01  0.12477965751E-01 -0.13189635910E-01  0.34076161923E-01  0.00000000000E+00 0.  1.
     999901    1    3    3    0    0  0.42504236137E-01 -0.67777739588E-01  0.92073617227E-01  0.88841318263E+00  0.88000000000E+00 0.  1.
        -11    1    4    4    0    0 -0.51142380730E-01  0.44862484378E-01 -0.48783624175E-01  0.83715522575E-01  0.51100000000E-03 0.  1.
         11    1    4    4    0    0 -0.20197921136E-01  0.10437289458E-01 -0.30100357142E-01  0.37725132876E-01  0.51100000000E-03 0. -1.
</event>
<event>
 8    1  0.1060404E+005  0.1043930E+01  0.7957747E-01            NaN
         13   -1    0    0    0    0  0.00000000000E+00  0.00000000000E+00  0.74505805969E-08  0.10566000000E+00  0.10566000000E+00 0. -1.
     999900   -1    0    0    0    0 -0.00000000000E+00 -0.00000000000E+00 -0.74505805969E-08  0.93827000000E+00  0.93827000000E+00 0. -1.
     999902    2    1    2    0    0 -0.15408975402E-01 -0.11807040635E-01 -0.15654667588E-01  0.10189918495E+01  0.10186866437E+01 0.  0.
     999903    2    3    3    0    0  0.11948272369E+00  0.36538275718E-01  0.10290376544E-01  0.12702425740E+00  0.20447573590E-01 0.  0.
         14    1    1    2    0    0  0.15408975402E-01  0.11807040635E-01  0.15654667588E-01  0.24938150468E-01  0.00000000000E+00 0. -1.
     999901    1    3    3    0    0 -0.13489169909E+00 -0.48345316353E-01 -0.25945044132E-01  0.89196759213E+00  0.88000000000E+00 0. -1.
        -11    1    4    4    0    0  0.10628425630E+00  0.37128815552E-01  0.47364713922E-02  0.11268357185E+00  0.51100000000E-03 0.  1.
         11    1    4    4    0    0  0.13198467390E-01 -0.59053983397E-03  0.55539051516E-02  0.14340685555E-01  0.51100000000E-03 0. -1.
</event>
<event>
 8    1  0.1060404E+005  0.1043930E+01  0.7957747E-01            NaN
         13   -1    0    0    0    0  0.00000000000E+00  0.00000000000E+00  0.74505805969E-08  0.10566000000E+00  0.10566000000E+00 0.  1.
     999900   -1    0    0    0    0 -0.00000000000E+00 -0.00000000000E+00 -0.74505805969E-08  0.93827000000E+00  0.93827000000E+00 0.  1.
     999902    2    1    2    0    0  0.16232802711E-01  0.16114872308E-01  0.24818632583E-02  0.10209223352E+01  0.10206630501E+01 0.  0.
     999903    2    3    3    0    0  0.52747768096E-01  0.95704636292E-01 -0.73583507150E-01  0.13331103865E+00  0.20386173111E-01 0.  0.
         14    1    1    2    0    0 -0.16232802711E-01 -0.16114872308E-01 -0.24818632583E-02  0.23007664779E-01  0.00000000000E+00 0. -1.
     999901    1    3    3    0    0 -0.36514965385E-01 -0.79589763984E-01  0.76065370409E-01  0.88761129657E+00  0.88000000000E+00 0. -1.
        -11    1    4    4    0    0  0.14059862935E-01  0.12414506383E-01 -0.17772288948E-01  0.25844053280E-01  0.51100000000E-03 0.  1.
         11    1    4    4    0    0  0.38687905160E-01  0.83290129909E-01 -0.55811218202E-01  0.10746698537E+00  0.51100000000E-03 0. -1.
</event>
<event>
 8    1  0.1060404E+005  0.1043930E+01  0.7957747E-01            NaN
         13   -1    0    0    0    0  0.00000000000E+00  0.00000000000E+00  0.74505805969E-08  0.10566000000E+00  0.10566000000E+00 0.  1.
     999900   -1    0    0    0    0 -0.00000000000E+00 -0.00000000000E+00 -0.74505805969E-08  0.93827000000E+00  0.93827000000E+00 0.  1.
     999902    2    1    2    0    0 -0.16852856513E-01 -0.14423495962E-01 -0.23059659405E-02  0.10216281282E+01  0.10213846772E+01 0.  0.
     999903    2    3    3    0    0 -0.78089941122E-01 -0.10544786715E+00  0.22498863706E-01  0.13446935080E+00  0.18934514637E-01 0.  0.
         14    1    1    2    0    0  0.16852856513E-01  0.14423495962E-01  0.23059659405E-02  0.22301871835E-01  0.00000000000E+00 0.  1.
     999901    1    3    3    0    0  0.61237084609E-01  0.91024371193E-01 -0.24804829646E-01  0.88715877737E+00  0.88000000000E+00 0.  1.
        -11    1    4    4    0    0 -0.19552819160E-01 -0.16864553906E-01 -0.49001427764E-03  0.25830740418E-01  0.51100000000E-03 0. -1.
         11    1    4    4    0    0 -0.58537121962E-01 -0.88583313249E-01  0.22988877983E-01  0.10863861038E+00  0.51100000000E-03 0.  1.
</event>
<event>
 8    1  0.1060404E+005  0.1043930E+01  0.7957747E-01            NaN
         13   -1    0    0    0    0  0.00000000000E+00  0.00000000000E+00  0.74505805969E-08  0.10566000000E+00  0.10566000000E+00 0.  1.
     999900   -1    0    0    0    0 -0.00000000000E+00 -0.00000000000E+00 -0.74505805969E-08  0.93827000000E+00  0.93827000000E+00 0.  1.
     999902    2    1    2    0    0 -0.22446426904E-01  0.13518606943E-02 -0.73713227452E-02  0.10202655539E+01  0.10199910757E+01 0.  0.
     999903    2    3    3    0    0 -0.10415718454E+00 -0.70637911079E-01 -0.38323391447E-01  0.13301293732E+00  0.19629711876E-01 0.  0.
         14    1    1    2    0    0  0.22446426904E-01 -0.13518606943E-02  0.73713227452E-02  0.23664446056E-01  0.00000000000E+00 0.  1.
     999901    1    3    3    0    0  0.81710757638E-01  0.71989771774E-01  0.30952068702E-01  0.88725261663E+00  0.88000000000E+00 0. -1.
        -11    1    4    4    0    0 -0.52301398018E-01 -0.27304625646E-01 -0.25260411454E-01  0.64181993769E-01  0.51100000000E-03 0.  1.
         11    1    4    4    0    0 -0.51855786524E-01 -0.43333285433E-01 -0.13062979994E-01  0.68830943549E-01  0.51100000000E-03 0. -1.
</event>
<event>
 8    1  0.1060404E+005  0.1043930E+01  0.7957747E-01            NaN
         13   -1    0    0    0    0  0.00000000000E+00  0.00000000000E+00  0.74505805969E-08  0.10566000000E+00  0.10566000000E+00 0.  1.
     999900   -1    0    0    0    0 -0.00000000000E+00 -0.00000000000E+00 -0.74505805969E-08  0.93827000000E+00  0.93827000000E+00 0. -1.
     999902    2    1    2    0    0  0.20776618264E-02 -0.21937543454E-01 -0.85327480925E-02  0.10202999284E+01  0.10200262564E+01 0.  0.
     999903    2    3    3    0    0 -0.41812721844E-03  0.67954262759E-01  0.10670925995E+00  0.12824192237E+00  0.21003995742E-01 0.  0.
         14    1    1    2    0    0 -0.20776618264E-02  0.21937543454E-01  0.85327480925E-02  0.23630071551E-01  0.00000000000E+00 0.  1.
     999901    1    3    3    0    0  0.24957890448E-02 -0.89891806213E-01 -0.11524200804E+00  0.89205800608E+00  0.88000000000E+00 0. -1.
        -11    1    4    4    0    0 -0.62570166357E-02  0.63165966349E-01  0.97146579164E-01  0.11604657912E+00  0.51100000000E-03 0.  1.
         11    1    4    4    0    0  0.58388894172E-02  0.47882964092E-02  0.95626807876E-02  0.12195343250E-01  0.51100000000E-03 0. -1.
</event>
<event>
 8    1  0.1060404E+005  0.1043930E+01  0.7957747E-01            NaN
         13   -1    0    0    0    0  0.00000000000E+00  0.00000000000E+00  0.74505805969E-08  0.10566000000E+00  0.10566000000E+00 0. -1.
     999900   -1    0    0    0    0 -0.00000000000E+00 -0.00000000000E+00 -0.74505805969E-08  0.93827000000E+00  0.93827000000E+00 0.  1.
     999902    2    1    2    0    0  0.18864156864E-01  0.14392062887E-01 -0.58939342833E-03  0.10201953150E+01  0.10199191857E+01 0.  0.
     999903    2    3    3    0    0  0.91478322421E-01  0.56257274643E-02 -0.93278384413E-01  0.13230967216E+00  0.20126104098E-01 0.  0.
         14    1    1    2    0    0 -0.18864156864E-01 -0.14392062887E-01  0.58939342833E-03  0.23734685019E-01  0.00000000000E+00 0.  1.
     999901    1    3    3    0    0 -0.72614165556E-01  0.87663354226E-02  0.92688990985E-01  0.88788564282E+00  0.88000000000E+00 0. -1.
        -11    1    4    4    0    0  0.49136699363E-01 -0.35026787162E-02 -0.38800240883E-01  0.62708881317E-01  0.51100000000E-03 0.  1.
         11    1    4    4    0    0  0.42341623058E-01  0.91284061805E-02 -0.54478143530E-01  0.69600790844E-01  0.51100000000E-03 0. -1.
</event>
<event>
 8    1  0.1060404E+005  0.1043930E+01  0.7957747E-01            NaN
         13   -1    0    0    0    0  0.00000000000E+00  0.00000000000E+00  0.74505805969E-08  0.10566000000E+00  0.10566000000E+00 0. -1.
     999900   -1    0    0    0    0 -0.00000000000E+00 -0.00000000000E+00 -0.74505805969E-08  0.93827000000E+00  0.93827000000E+00 0. -1.
     999902    2    1    2    0    0 -0.18376649923E-01  0.96444222817E-02  0.11478332538E-01  0.10202135867E+01  0.10199378874E+01 0.  0.
     999903    2    3    3    0    0  0.39268843742E-01 -0.16639144269E-01  0.12226959758E+00  0.13100689910E+00  0.19850690324E-01 0.  0.
         14    1    1    2    0    0  0.18376649923E-01 -0.96444222817E-02 -0.11478332538E-01  0.23716413334E-01  0.00000000000E+00 0.  1.
     999901    1    3    3    0    0 -0.57645493665E-01  0.26283566551E-01 -0.11079126505E+00  0.88920668757E+00  0.88000000000E+00 0.  1.
        -11    1    4    4    0    0  0.15436569101E-01 -0.17275976516E-01  0.62279199406E-01  0.66450785021E-01  0.51100000000E-03 0. -1.
         11    1    4    4    0    0  0.23832274640E-01  0.63683224673E-03  0.59990398178E-01  0.64556114074E-01  0.51100000000E-03 0.  1.
</event>
<event>
 8    1  0.1060404E+005  0.1043930E+01  0.7957747E-01            NaN
         13   -1    0    0    0    0  0.00000000000E+00  0.00000000000E+00  0.74505805969E-08  0.10566000000E+00  0.10566000000E+00 0. -1.
     999900   -1    0    0    0    0 -0.00000000000E+00 -0.00000000000E+00 -0.74505805969E-08  0.93827000000E+00  0.93827000000E+00 0. -1.
     999902    2    1    2    0    0 -0.16664775446E-01 -0.94230877365E-02  0.12995605593E-01  0.10207913940E+01  0.10205291152E+01 0.  0.
     999903    2    3    3    0    0  0.11172458618E+00  0.38649387067E-01  0.48491737658E-01  0.12946947325E+00  0.20850362209E-01 0.  0.
         14    1    1    2    0    0  0.16664775446E-01  0.94230877365E-02 -0.12995605593E-01  0.23138606005E-01  0.00000000000E+00 0. -1.
     999901    1    3    3    0    0 -0.12838936163E+00 -0.48072474804E-01 -0.35496132064E-01  0.89132192075E+00  0.88000000000E+00 0. -1.
        -11    1    4    4    0    0  0.38407108226E-01  0.22528387606E-01  0.12714548759E-01  0.46309341191E-01  0.51100000000E-03 0. -1.
         11    1    4    4    0    0  0.73317477954E-01  0.16120999461E-01  0.35777188899E-01  0.83160132057E-01  0.51100000000E-03 0.  1.
</event>
<event>
 8    1  0.1060404E+005  0.1043930E+01  0.7957747E-01            NaN
         13   -1    0    0    0    0  0.00000000000E+00  0.00000000000E+00  0.74505805969E-08  0.10566000000E+00  0.10566000000E+00 0. -1.
     999900   -1    0    0    0    0 -0.00000000000E+00 -0.00000000000E+00 -0.74505805969E-08  0.93827000000E+00  0.93827000000E+00 0.  1.
     999902    2    1    2    0    0  0.34060472594E-02  0.19637495824E-02 -0.23953529661E-01  0.10196559593E+01  0.10193669831E+01 0.  0.
     999903    2    3    3    0    0 -0.68733370144E-02  0.10189485080E+00 -0.81383091304E-01  0.13208058484E+00  0.19805806224E-01 0.  0.
         14    1    1    2    0    0 -0.34060472594E-02 -0.19637495824E-02  0.23953529661E-01  0.24274040735E-01  0.00000000000E+00 0. -1.
     999901    1    3    3    0    0  0.10279384274E-01 -0.99931101220E-01  0.57429561643E-01  0.88757537442E+00  0.88000000000E+00 0.  1.
        -11    1    4    4    0    0 -0.70222135318E-02  0.63881811930E-01 -0.39136595837E-01  0.75247137042E-01  0.51100000000E-03 0. -1.
         11    1    4    4    0    0  0.14887651741E-03  0.38013038872E-01 -0.42246495467E-01  0.56833447800E-01  0.51100000000E-03 0.  1.
</event>
<event>
 8    1  0.1060404E+005  0.1043930E+01  0.7957747E-01            NaN
         13   -1    0    0    0    0  0.00000000000E+00  0.00000000000E+00  0.74505805969E-08  0.10566000000E+00  0.10566000000E+00 0.  1.
     999900   -1    0    0    0    0 -0.00000000000E+00 -0.00000000000E+00 -0.74505805969E-08  0.93827000000E+00  0.93827000000E+00 0. -1.
     999902    2    1    2    0    0  0.76965985056E-02 -0.20123232049E-01 -0.85679937446E-02  0.10207439565E+01  0.10204805888E+01 0.  0.
     999903    2    3    3    0    0  0.16559149186E-01  0.10940408954E+00  0.61975137140E-01  0.12842551269E+00  0.20217182184E-01 0.  0.
         14    1    1    2    0    0 -0.76965985056E-02  0.20123232049E-01  0.85679937446E-02  0.23186043506E-01  0.00000000000E+00 0.  1.
     999901    1    3    3    0    0 -0.88625506806E-02 -0.12952732159E+00 -0.70543130885E-01  0.89231844381E+00  0.88000000000E+00 0.  1.
        -11    1    4    4    0    0  0.14480212017E-01  0.72787972570E-01  0.31049744040E-01  0.80449445100E-01  0.51100000000E-03 0. -1.
         11    1    4    4    0    0  0.20789371688E-02  0.36616116970E-01  0.30925393100E-01  0.47976067587E-01  0.51100000000E-03 0.  1.
</event>
<event>
 8    1  0.1060404E+005  0.1043930E+01  0.7957747E-01            NaN
         13   -1    0    0    0    0  0.00000000000E+00  0.00000000000E+00  0.74505805969E-08  0.10566000000E+00  0.10566000000E+00 0. -1.
     999900   -1    0    0    0    0 -0.00000000000E+00 -0.00000000000E+00 -0.74505805969E-08  0.93827000000E+00  0.93827000000E+00 0. -1.
     999902    2    1    2    0    0 -0.30964866300E-02  0.20256672206E-01 -0.12213507847E-01  0.10200743765E+01  0.10197953926E+01 0.  0.
     999903    2    3    3    0    0 -0.12890775609E+00  0.36220414193E-02 -0.14810817072E-01  0.13096699689E+00  0.17397275875E-01 0.  0.
         14    1    1    2    0    0  0.30964866300E-02 -0.20256672206E-01  0.12213507847E-01  0.23855623493E-01  0.00000000000E+00 0. -1.
     999901    1    3    3    0    0  0.12581126946E+00  0.16634630787E-01  0.25973092253E-02  0.88910737961E+00  0.88000000000E+00 0. -1.
        -11    1    4    4    0    0 -0.43984131630E-01  0.94700579854E-02 -0.45438324342E-02  0.45223814166E-01  0.51100000000E-03 0. -1.
         11    1    4    4    0    0 -0.84923624464E-01 -0.58480165661E-02 -0.10266984638E-01  0.85743182729E-01  0.51100000000E-03 0.  1.
</event>
<event>
 8    1  0.1060404E+005  0.1043930E+01  0.7957747E-01            NaN
         13   -1    0    0    0    0  0.00000000000E+00  0.00000000000E+00  0.74505805969E-08  0.10566000000E+00  0.10566000000E+00 0. -1.
     999900   -1    0    0    0    0 -0.00000000000E+00 -0.00000000000E+00 -0.74505805969E-08  0.93827000000E+00  0.93827000000E+00 0. -1.
     999902    2    1    2    0    0 -0.28570682954E-02  0.23212724207E-01  0.83892881105E-02  0.10190829970E+01  0.10187800455E+01 0.  0.
     999903    2    3    3    0    0  0.94456678185E-01 -0.81139564493E-01 -0.17726059185E-01  0.12720779451E+00  0.19024111789E-01 0.  0.
         14    1    1    2    0    0  0.28570682954E-02 -0.23212724207E-01 -0.83892881105E-02  0.24847003026E-01  0.00000000000E+00 0. -1.
     999901    1    3    3    0    0 -0.97313746480E-01  0.10435228870E+00  0.26115347296E-01  0.89187520247E+00  0.88000000000E+00 0. -1.
        -11    1    4    4    0    0  0.40721299941E-01 -0.34025618264E-01 -0.17043731423E-01  0.55737930254E-01  0.51100000000E-03 0. -1.
         11    1    4    4    0    0  0.53735378244E-01 -0.47113946228E-01 -0.68232776210E-03  0.71469864253E-01  0.51100000000E-03 0.  1.
</event>
<event>
 8    1  0.1060404E+005  0.1043930E+01  0.7957747E-01            NaN
         13   -1    0    0    0    0  0.00000000000E+00  0.00000000000E+00  0.74505805969E-08  0.10566000000E+00  0.10566000000E+00 0.  1.
     999900   -1    0    0    0    0 -0.00000000000E+00 -0.00000000000E+00 -0.74505805969E-08  0.93827000000E+00  0.93827000000E+00 0. -1.
     999902    2    1    2    0    0 -0.81186920922E-02 -0.18638218017E-01 -0.12053526412E-01  0.10202956218E+01  0.10200218488E+01 0.  0.
     999903    2    3    3    0    0  0.12469752713E+00  0.18235944165E-01 -0.22265853872E-01  0.12950712643E+00  0.19857104871E-01 0.  0.
         14    1    1    2    0    0  0.81186920922E-02  0.18638218017E-01  0.12053526412E-01  0.23634378162E-01  0.00000000000E+00 0.  1.
     999901    1    3    3    0    0 -0.13281621923E+00 -0.36874162182E-01  0.10212327459E-01  0.89078849541E+00  0.88000000000E+00 0.  1.
        -11    1    4    4    0    0  0.96671970651E-01  0.11763166253E-01 -0.25188824076E-01  0.10059115254E+00  0.51100000000E-03 0.  1.
         11    1    4    4    0    0  0.28025556482E-01  0.64727779118E-02  0.29229702040E-02  0.28915973887E-01  0.51100000000E-03 0. -1.
</event>
<event>
 8    1  0.1060404E+005  0.1043930E+01  0.7957747E-01            NaN
         13   -1    0    0    0    0  0.00000000000E+00  0.00000000000E+00  0.74505805969E-08  0.10566000000E+00  0.10566000000E+00 0. -1.
     999900   -1    0    0    0    0 -0.00000000000E+00 -0.00000000000E+00 -0.74505805969E-08  0.93827000000E+00  0.93827000000E+00 0. -1.
     999902    2    1    2    0    0  0.64181389416E-02  0.22694094221E-01 -0.55515284894E-02  0.10197012178E+01  0.10194133311E+01 0.  0.
     999903    2    3    3    0    0 -0.10285818351E+00 -0.70141350845E-01  0.16220235701E-01  0.12783029424E+00  0.24038990552E-01 0.  0.
         14    1    1    2    0    0 -0.64181389416E-02 -0.22694094221E-01  0.55515284894E-02  0.24228782234E-01  0.00000000000E+00 0. -1.
     999901    1    3    3    0    0  0.10927632245E+00  0.92835445066E-01 -0.21771764191E-01  0.89187092352E+00  0.88000000000E+00 0. -1.
        -11    1    4    4    0    0 -0.33181220687E-01 -0.18056909525E-01 -0.54688211660E-02  0.38173479195E-01  0.51100000000E-03 0. -1.
         11    1    4    4    0    0 -0.69676962823E-01 -0.52084441320E-01  0.21689056867E-01  0.89656815049E-01  0.51100000000E-03 0.  1.
</event>
<event>
 8    1  0.1060404E+005  0.1043930E+01  0.7957747E-01            NaN
         13   -1    0    0    0    0  0.00000000000E+00  0.00000000000E+00  0.74505805969E-08  0.10566000000E+00  0.10566000000E+00 0.  1.
     999900   -1    0    0    0    0 -0.00000000000E+00 -0.00000000000E+00 -0.74505805969E-08  0.93827000000E+00  0.93827000000E+00 0.  1.
     999902    2    1    2    0    0 -0.25888071922E-01  0.68015479923E-02 -0.19346531306E-01  0.10109036227E+01  0.10103639903E+01 0.  0.
     999903    2    3    3    0    0 -0.10299326551E+00 -0.29120524320E-01 -0.63009662127E-01  0.12572450234E+00  0.19514489241E-01 0.  0.
         14    1    1    2    0    0  0.25888071922E-01 -0.68015479923E-02  0.19346531306E-01  0.33026377284E-01  0.00000000000E+00 0. -1.
     999901    1    3    3    0    0  0.77105193587E-01  0.35922072313E-01  0.43663130821E-01  0.88517912038E+00  0.88000000000E+00 0.  1.
        -11    1    4    4    0    0 -0.77914449441E-01 -0.13044499867E-01 -0.46044005743E-01  0.91439225687E-01  0.51100000000E-03 0. -1.
         11    1    4    4    0    0 -0.25078816068E-01 -0.16076024453E-01 -0.16965656384E-01  0.34285276653E-01  0.51100000000E-03 0.  1.
</event>
<event>
 8    1  0.1060404E+005  0.1043930E+01  0.7957747E-01            NaN
         13   -1    0    0    0    0  0.00000000000E+00  0.00000000000E+00  0.74505805969E-08  0.10566000000E+00  0.10566000000E+00 0.  1.
     999900   -1    0    0    0    0 -0.00000000000E+00 -0.00000000000E+00 -0.74505805969E-08  0.93827000000E+00  0.93827000000E+00 0. -1.
     999902    2    1    2    0    0  0.19486911527E-01 -0.99046323590E-02  0.11307729137E-01  0.10193189009E+01  0.10190217443E+01 0.  0.
     999903    2    3    3    0    0  0.86228595779E-01  0.34252552900E-01  0.91624611304E-01  0.13204492344E+00  0.20789042791E-01 0.  0.
         14    1    1    2    0    0 -0.19486911527E-01  0.99046323590E-02 -0.11307729137E-01  0.24611099148E-01  0.00000000000E+00 0.  1.
     999901    1    3    3    0    0 -0.66741684251E-01 -0.44157185259E-01 -0.80316882166E-01  0.88727397741E+00  0.88000000000E+00 0. -1.
        -11    1    4    4    0    0 -0.19737078177E-03  0.22764427244E-02  0.39935727742E-03  0.23752376593E-02  0.51100000000E-03 0.  1.
         11    1    4    4    0    0  0.86425966561E-01  0.31976110176E-01  0.91225254026E-01  0.12966968578E+00  0.51100000000E-03 0. -1.
</event>
<event>
 8    1  0.1060404E+005  0.1043930E+01  0.7957747E-01            NaN
         13   -1    0    0    0    0  0.00000000000E+00  0.00000000000E+00  0.74505805969E-08  0.10566000000E+00  0.10566000000E+00 0.  1.
     999900   -1    0    0    0    0 -0.00000000000E+00 -0.00000000000E+00 -0.74505805969E-08  0.93827000000E+00  0.93827000000E+00 0.  1.
     999902    2    1    2    0    0  0.15889008231E-01  0.98199987048E-02  0.14406930955E-01  0.10203407521E+01  0.10200680359E+01 0.  0.
     999903    2    3    3    0    0  0.88962683998E-01 -0.12508648611E-01  0.96325505919E-01  0.13323930158E+00  0.20081906310E-01 0.  0.
         14    1    1    2    0    0 -0.15889008231E-01 -0.98199987048E-02 -0.14406930955E-01  0.23589247904E-01  0.00000000000E+00 0. -1.
     999901    1    3    3    0    0 -0.73073675767E-01  0.22328647315E-01 -0.81918574964E-01  0.88710145051E+00  0.88000000000E+00 0.  1.
        -11    1    4    4    0    0  0.46060003389E-01 -0.88196128642E-02  0.64231271805E-01  0.79531294985E-01  0.51100000000E-03 0.  1.
         11    1    4    4    0    0  0.42902680609E-01 -0.36890357464E-02  0.32094234114E-01  0.53708006596E-01  0.51100000000E-03 0. -1.
</event>
<event>
 8    1  0.1060404E+005  0.1043930E+01  0.7957747E-01            NaN
         13   -1    0    0    0    0  0.00000000000E+00  0.00000000000E+00  0.74505805969E-08  0.10566000000E+00  0.10566000000E+00 0.  1.
     999900   -1    0    0    0    0 -0.00000000000E+00 -0.00000000000E+00 -0.74505805969E-08  0.93827000000E+00  0.93827000000E+00 0.  1.
     999902    2    1    2    0    0 -0.17562721367E-01  0.59495831346E-02  0.14176920174E-01  0.10205883679E+01  0.10203214126E+01 0.  0.
     999903    2    3    3    0    0 -0.55241585412E-01  0.11857058875E+00  0.11027227669E-01  0.13260576211E+00  0.18763558328E-01 0.  0.
         14    1    1    2    0    0  0.17562721367E-01 -0.59495831346E-02 -0.14176920174E-01  0.23341632053E-01  0.00000000000E+00 0.  1.
     999901    1    3    3    0    0  0.37678864045E-01 -0.11262100561E+00  0.31496925049E-02  0.88798260583E+00  0.88000000000E+00 0. -1.
        -11    1    4    4    0    0 -0.14844118402E-01  0.44858309531E-01 -0.31609742072E-02  0.47358934363E-01  0.51100000000E-03 0.  1.
         11    1    4    4    0    0 -0.40397467010E-01  0.73712279215E-01  0.14188201876E-01  0.85246827750E-01  0.51100000000E-03 0. -1.
</event>
<event>
 8    1  0.1060404E+005  0.1043930E+01  0.7957747E-01            NaN
         13   -1    0    0    0    0  0.00000000000E+00  0.00000000000E+00  0.74505805969E-08  0.10566000000E+00  0.10566000000E+00 0. -1.
     999900   -1    0    0    0    0 -0.00000000000E+00 -0.00000000000E+00 -0.74505805969E-08  0.93827000000E+00  0.93827000000E+00 0.  1.
     999902    2    1    2    0    0 -0.27825186243E-02  0.11699101962E-01 -0.18096891690E-01  0.10222019332E+01  0.10219709797E+01 0.  0.
     999903    2    3    3    0    0  0.12215249694E+00 -0.43216848189E-03  0.43175773455E-01  0.13118551064E+00  0.20592996610E-01 0.  0.
         14    1    1    2    0    0  0.27825186243E-02 -0.11699101962E-01  0.18096891690E-01  0.21728066767E-01  0.00000000000E+00 0.  1.
     999901    1    3    3    0    0 -0.12493501557E+00  0.12131270444E-01 -0.61272665145E-01  0.89101642259E+00  0.88000000000E+00 0.  1.
        -11    1    4    4    0    0  0.66112860159E-01  0.52486918281E-02  0.32483614111E-01  0.73850560939E-01  0.51100000000E-03 0. -1.
         11    1    4    4    0    0  0.56039636784E-01 -0.56808603099E-02  0.10692159344E-01  0.57334949700E-01  0.51100000000E-03 0.  1.
</event>
<event>
 8    1  0.1060404E+005  0.1043930E+01  0.7957747E-01            NaN
         13   -1    0    0    0    0  0.00000000000E+00  0.00000000000E+00  0.74505805969E-08  0.10566000000E+00  0.10566000000E+00 0. -1.
     999900   -1    0    0    0    0 -0.00000000000E+00 -0.00000000000E+00 -0.74505805969E-08  0.93827000000E+00  0.93827000000E+00 0.  1.
     999902    2    1    2    0    0  0.86499208528E-02 -0.32195014767E-03  0.22506644379E-01  0.10198162317E+01  0.10195311042E+01 0.  0.
     999903    2    3    3    0    0 -0.60087872851E-01  0.11185892027E+00  0.20329702828E-01  0.13003301590E+00  0.19295540919E-01 0.  0.
         14    1    1    2    0    0 -0.86499208528E-02  0.32195014767E-03 -0.22506644379E-01  0.24113768346E-01  0.00000000000E+00 0.  1.
     999901    1    3    3    0    0  0.68737793703E-01 -0.11218087041E+00  0.21769415512E-02  0.88978321576E+00  0.88000000000E+00 0. -1.
        -11    1    4    4    0    0 -0.49278686147E-01  0.78009290352E-01  0.20379920044E-01  0.94495717107E-01  0.51100000000E-03 0. -1.
         11    1    4    4    0    0 -0.10809186704E-01  0.33849629913E-01 -0.50217216420E-04  0.35537298789E-01  0.51100000000E-03 0.  1.
</event>
<event>
 8    1  0.1060404E+005  0.1043930E+01  0.7957747E-01            NaN
         13   -1    0    0    0    0  0.00000000000E+00  0.00000000000E+00  0.74505805969E-08  0.10566000000E+00  0.10566000000E+00 0.  1.
     999900   -1    0    0    0    0 -0.00000000000E+00 -0.00000000000E+00 -0.74505805969E-08  0.93827000000E+00  0.93827000000E+00 0.  1.
     999902    2    1    2    0    0 -0.21699711617E-01 -0.12729547389E-01  0.86272302583E-03  0.10187573332E+01  0.10184462877E+01 0.  0.
     999903    2    3    3    0    0 -0.32640978816E-01 -0.12157217016E+00  0.31534050233E-01  0.13145402648E+00  0.20989013753E-01 0.  0.
         14    1    1    2    0    0  0.21699711617E-01  0.12729547389E-01 -0.86272302583E-03  0.25172666764E-01  0.00000000000E+00 0.  1.
     999901    1    3    3    0    0  0.10941267199E-01  0.10884262278E+00 -0.30671327207E-01  0.88730330675E+00  0.88000000000E+00 0.  1.
        -11    1    4    4    0    0 -0.14455872608E-01 -0.55397601890E-01  0.36345195803E-02  0.57370178679E-01  0.51100000000E-03 0.  1.
         11    1    4    4    0    0 -0.18185106207E-01 -0.66174568274E-01  0.27899530652E-01  0.74083847805E-01  0.51100000000E-03 0. -1.
</event>
<event>
 8    1  0.1060404E+005  0.1043930E+01  0.7957747E-01            NaN
         13   -1    0    0    0    0  0.00000000000E+00  0.00000000000E+00  0.74505805969E-08  0.10566000000E+00  0.10566000000E+00 0.  1.
     999900   -1    0    0    0    0 -0.00000000000E+00 -0.00000000000E+00 -0.74505805969E-08  0.93827000000E+00  0.93827000000E+00 0.  1.
     999902    2    1    2    0    0  0.17872748056E-03 -0.22741888685E-01 -0.81491764683E-02  0.10197714710E+01  0.10194852714E+01 0.  0.
     999903    2    3    3    0    0  0.25142070030E-01 -0.87042345190E-01 -0.94575482886E-01  0.13285139368E+00  0.22281770542E-01 0.  0.
         14    1    1    2    0    0 -0.17872748056E-03  0.22741888685E-01  0.81491764683E-02  0.24158528961E-01  0.00000000000E+00 0.  1.
     999901    1    3    3    0    0 -0.24963342549E-01  0.64300456505E-01  0.86426306418E-01  0.88692007736E+00  0.88000000000E+00 0. -1.
        -11    1    4    4    0    0  0.22250333125E-01 -0.61088418678E-01 -0.53614691270E-01  0.84271397650E-01  0.51100000000E-03 0.  1.
         11    1    4    4    0    0  0.28917369049E-02 -0.25953926512E-01 -0.40960791616E-01  0.48579996032E-01  0.51100000000E-03 0. -1.
</event>
<event>
 8    1  0.1060404E+005  0.1043930E+01  0.7957747E-01            NaN
         13   -1    0    0    0    0  0.00000000000E+00  0.00000000000E+00  0.74505805969E-08  0.10566000000E+00  0.10566000000E+00 0.  1.
     999900   -1    0    0    0    0 -0.00000000000E+00 -0.00000000000E+00 -0.74505805969E-08  0.93827000000E+00  0.93827000000E+00 0. -1.
     999902    2    1    2    0    0 -0.13538469270E-01  0.31349218820E-03  0.19697024062E-01  0.10200268374E+01  0.10197467273E+01 0.  0.
     999903    2    3    3    0    0  0.19997106334E-02 -0.18030097874E-01  0.13010271475E+00  0.13280232300E+00  0.19510441762E-01 0.  0.
         14    1    1    2    0    0  0.13538469270E-01 -0.31349218820E-03 -0.19697024062E-01  0.23903162645E-01  0.00000000000E+00 0. -1.
     999901    1    3    3    0    0 -0.15538179903E-01  0.18343590063E-01 -0.11040569069E+00  0.88722451435E+00  0.88000000000E+00 0. -1.
        -11    1    4    4    0    0  0.22005119915E-02  0.39649598336E-02  0.18810009648E-01  0.19355638544E-01  0.51100000000E-03 0.  1.
         11    1    4    4    0    0 -0.20080135809E-03 -0.21995057708E-01  0.11129270510E+00  0.11344668446E+00  0.51100000000E-03 0. -1.
</event>
<event>
 8    1  0.1060404E+005  0.1043930E+01  0.7957747E-01            NaN
         13   -1    0    0    0    0  0.00000000000E+00  0.00000000000E+00  0.74505805969E-08  0.10566000000E+00  0.10566000000E+00 0.  1.
     999900   -1    0    0    0    0 -0.00000000000E+00 -0.00000000000E+00 -0.74505805969E-08  0.93827000000E+00  0.93827000000E+00 0. -1.
     999902    2    1    2    0    0 -0.11380187869E-01  0.12540636716E-01  0.14802670825E-01  0.10214378834E+01  0.10211902146E+01 0.  0.
     999903    2    3    3    0    0 -0.52165377521E-01 -0.64835070050E-01 -0.96872942677E-01  0.13007831828E+00  0.24722235822E-01 0.  0.
         14    1    1    2    0    0  0.11380187869E-01 -0.12540636716E-01 -0.14802670825E-01  0.22492116590E-01  0.00000000000E+00 0.  1.
     999901    1    3    3    0    0  0.40785189652E-01  0.77375706766E-01  0.11167561350E+00  0.89135956513E+00  0.88000000000E+00 0.  1.
        -11    1    4    4    0    0 -0.40557016673E-01 -0.54913432853E-01 -0.62901417554E-01  0.92828908000E-01  0.51100000000E-03 0. -1.
         11    1    4    4    0    0 -0.11608360848E-01 -0.99216371968E-02 -0.33971525123E-01  0.37249410283E-01  0.51100000000E-03 0.  1.
</event>
<event>
 8    1  0.1060404E+005  0.1043930E+01  0.7957747E-01            NaN
         13   -1    0    0    0    0  0.00000000000E+00  0.00000000000E+00  0.74505805969E-08  0.10566000000E+00  0.10566000000E+00 0. -1.
     999900   -1    0    0    0    0 -0.00000000000E+00 -0.00000000000E+00 -0.74505805969E-08  0.93827000000E+00  0.93827000000E+00 0.  1.
     999902    2    1    2    0    0  0.89720319509E-02  0.18748981764E-01  0.96652158916E-02  0.10210075640E+01  0.10207502180E+01 0.  0.
     999903    2    3    3    0    0 -0.95654694825E-01 -0.92252638862E-02 -0.84372078835E-01  0.12939535951E+00  0.19737913760E-01 0.  0.
         14    1    1    2    0    0 -0.89720319509E-02 -0.18748981764E-01 -0.96652158916E-02  0.22922436013E-01  0.00000000000E+00 0.  1.
     999901    1    3    3    0    0  0.10462672678E+00  0.27974245651E-01  0.94037294727E-01  0.89161220448E+00  0.88000000000E+00 0. -1.
        -11    1    4    4    0    0 -0.35990992007E-01 -0.12797627173E-01 -0.36169079055E-01  0.52607928752E-01  0.51100000000E-03 0.  1.
         11    1    4    4    0    0 -0.59663702818E-01  0.35723632863E-02 -0.48202999781E-01  0.76787430757E-01  0.51100000000E-03 0. -1.
</event>
<event>
 8    1  0.1060404E+005  0.1043930E+01  0.7957747E-01            NaN
         13   -1    0    0    0    0  0.00000000000E+00  0.00000000000E+00  0.74505805969E-08  0.10566000000E+00  0.10566000000E+00 0.  1.
     999900   -1    0    0    0    0 -0.00000000000E+00 -0.00000000000E+00 -0.74505805969E-08  0.93827000000E+00  0.93827000000E+00 0. -1.
     999902    2    1    2    0    0 -0.19302684343E-01  0.93570462266E-03 -0.15366275784E-01  0.10192400912E+01  0.10189410051E+01 0.  0.
     999903    2    3    3    0    0 -0.63660841868E-01 -0.11216897768E+00 -0.81840858655E-02  0.13086410144E+00  0.20587652707E-01 0.  0.
         14    1    1    2    0    0  0.19302684343E-01 -0.93570462266E-03  0.15366275784E-01  0.24689908818E-01  0.00000000000E+00 0.  1.
     999901    1    3    3    0    0  0.44358157526E-01  0.11310468230E+00 -0.71821899189E-02  0.88837598974E+00  0.88000000000E+00 0.  1.
        -11    1    4    4    0    0 -0.29433376554E-01 -0.47416235239E-01 -0.13521664383E-01  0.57425774251E-01  0.51100000000E-03 0. -1.
         11    1    4    4    0    0 -0.34227465314E-01 -0.64752742437E-01  0.53375785170E-02  0.73438327189E-01  0.51100000000E-03 0.  1.
</event>
<event>
 8    1  0.1060404E+005  0.1043930E+01  0.7957747E-01            NaN
         13   -1    0    0    0    0  0.00000000000E+00  0.00000000000E+00  0.74505805969E-08  0.10566000000E+00  0.10566000000E+00 0. -1.
     999900   -1    0    0    0    0 -0.00000000000E+00 -0.00000000000E+00 -0.74505805969E-08  0.93827000000E+00  0.93827000000E+00 0.  1.
     999902    2    1    2    0    0  0.17576854937E-01  0.13431978461E-01 -0.43535973149E-02  0.10213840983E+01  0.10211352303E+01 0.  0.
     999903    2    3    3    0    0 -0.85111789455E-01  0.83394382923E-01  0.50006044493E-01  0.13099392179E+00  0.21451416116E-01 0.  0.
         14    1    1    2    0    0 -0.17576854937E-01 -0.13431978461E-01  0.43535973149E-02  0.22545901722E-01  0.00000000000E+00 0. -1.
     999901    1    3    3    0    0  0.10268864439E+00 -0.69962404461E-01 -0.54359641808E-01  0.89039017649E+00  0.88000000000E+00 0.  1.
        -11    1    4    4    0    0 -0.38664630563E-01  0.23392926042E-01  0.18569824440E-01  0.48859821388E-01  0.51100000000E-03 0.  1.
         11    1    4    4    0    0 -0.46447158892E-01  0.60001456880E-01  0.31436220054E-01  0.82134100404E-01  0.51100000000E-03 0. -1.
</event>
<event>
 8    1  0.1060404E+005  0.1043930E+01  0.7957747E-01            NaN
         13   -1    0    0    0    0  0.00000000000E+00  0.00000000000E+00  0.74505805969E-08  0.10566000000E+00  0.10566000000E+00 0.  1.
     999900   -1    0    0    0    0 -0.00000000000E+00 -0.00000000000E+00 -0.74505805969E-08  0.93827000000E+00  0.93827000000E+00 0. -1.
     999902    2    1    2    0    0  0.10256292017E-01 -0.20293312423E-01 -0.10335834103E-02  0.10211686655E+01  0.10209149646E+01 0.  0.
     999903    2    3    3    0    0  0.11964209340E+00 -0.36250376410E-01 -0.41747256318E-01  0.13331874313E+00  0.20068222570E-01 0.  0.
         14    1    1    2    0    0 -0.10256292017E-01  0.20293312423E-01  0.10335834103E-02  0.22761334533E-01  0.00000000000E+00 0. -1.
     999901    1    3    3    0    0 -0.10938580138E+00  0.15957063987E-01  0.40713672908E-01  0.88784992234E+00  0.88000000000E+00 0.  1.
        -11    1    4    4    0    0  0.90609690278E-01 -0.30823727219E-01 -0.39983900565E-01  0.10372652292E+00  0.51100000000E-03 0. -1.
         11    1    4    4    0    0  0.29032403119E-01 -0.54266491915E-02 -0.17633557526E-02  0.29592220207E-01  0.51100000000E-03 0.  1.
</event>
<event>
 8    1  0.1060404E+005  0.1043930E+01  0.7957747E-01            NaN
         13   -1    0    0    0    0  0.00000000000E+00  0.00000000000E+00  0.74505805969E-08  0.10566000000E+00  0.10566000000E+00 0.  1.
     999900   -1    0    0    0    0 -0.00000000000E+00 -0.00000000000E+00 -0.74505805969E-08  0.93827000000E+00  0.93827000000E+00 0. -1.
     999902    2    1    2    0    0  0.16175684164E-01 -0.14685132963E-01  0.61420187952E-02  0.10212357214E+01  0.10209835299E+01 0.  0.
     999903    2    3    3    0    0 -0.36033932215E-01 -0.11348138063E+00 -0.54101699442E-01  0.13212613971E+00  0.18811031102E-01 0.  0.
         14    1    1    2    0    0 -0.16175684164E-01  0.14685132963E-01 -0.61420187952E-02  0.22694278644E-01  0.00000000000E+00 0.  1.
     999901    1    3    3    0    0  0.52209616379E-01  0.98796247664E-01  0.60243718237E-01  0.88910958165E+00  0.88000000000E+00 0.  1.
        -11    1    4    4    0    0 -0.45893954833E-02 -0.32132968242E-01 -0.21881652917E-01  0.39149176930E-01  0.51100000000E-03 0.  1.
         11    1    4    4    0    0 -0.31444536732E-01 -0.81348412386E-01 -0.32220046525E-01  0.92976962776E-01  0.51100000000E-03 0. -1.
</event>
<event>
 8    1  0.1060404E+005  0.1043930E+01  0.7957747E-01            NaN
         13   -1    0    0    0    0  0.00000000000E+00  0.00000000000E+00  0.74505805969E-08  0.10566000000E+00  0.10566000000E+00 0.  1.
     999900   -1    0    0    0    0 -0.00000000000E+00 -0.00000000000E+00 -0.74505805969E-08  0.93827000000E+00  0.93827000000E+00 0. -1.
     999902    2    1    2    0    0  0.23408413734E-01  0.61830313822E-03 -0.38925694755E-02  0.10201920930E+01  0.10199158879E+01 0.  0.
     999903    2    3    3    0    0 -0.69778433302E-01 -0.42647196632E-01  0.97139984174E-01  0.12847281607E+00  0.19526259449E-01 0.  0.
         14    1    1    2    0    0 -0.23408413734E-01 -0.61830313822E-03  0.38925694755E-02  0.23737907015E-01  0.00000000000E+00 0.  1.
     999901    1    3    3    0    0  0.93186847036E-01  0.43265499770E-01 -0.10103255365E+00  0.89171927692E+00  0.88000000000E+00 0. -1.
        -11    1    4    4    0    0 -0.27520150799E-01 -0.60716719024E-02  0.32743079830E-01  0.43204100470E-01  0.51100000000E-03 0.  1.
         11    1    4    4    0    0 -0.42258282503E-01 -0.36575524729E-01  0.64396904344E-01  0.85268715596E-01  0.51100000000E-03 0. -1.
</event>
<event>
 8    1  0.1060404E+005  0.1043930E+01  0.7957747E-01            NaN
         13   -1    0    0    0    0  0.00000000000E+00  0.00000000000E+00  0.74505805969E-08  0.10566000000E+00  0.10566000000E+00 0.  1.
     999900   -1    0    0    0    0 -0.00000000000E+00 -0.00000000000E+00 -0.74505805969E-08  0.93827000000E+00  0.93827000000E+00 0.  1.
     999902    2    1    2    0    0  0.44598828400E-03 -0.15129223207E-01  0.18312528514E-01  0.10201720329E+01  0.10198953553E+01 0.  0.
     999903    2    3    3    0    0 -0.48964714654E-01  0.10973637048E+00 -0.40818164565E-01  0.12802334971E+00  0.16859455071E-01 0.  0.
         14    1    1    2    0    0 -0.44598828400E-03  0.15129223207E-01 -0.18312528514E-01  0.23757967105E-01  0.00000000000E+00 0. -1.
     999901    1    3    3    0    0  0.49410702938E-01 -0.12486559368E+00  0.59130693079E-01  0.89214868319E+00  0.88000000000E+00 0. -1.
        -11    1    4    4    0    0 -0.26441925003E-01  0.73171232707E-01 -0.20205736924E-01  0.80384934032E-01  0.51100000000E-03 0.  1.
         11    1    4    4    0    0 -0.22522789651E-01  0.36565137770E-01 -0.20612427641E-01  0.47638415675E-01  0.51100000000E-03 0. -1.
</event>
<event>
 8    1  0.1060404E+005  0.1043930E+01  0.7957747E-01            NaN
         13   -1    0    0    0    0  0.00000000000E+00  0.00000000000E+00  0.74505805969E-08  0.10566000000E+00  0.10566000000E+00 0. -1.
     999900   -1    0    0    0    0 -0.00000000000E+00 -0.00000000000E+00 -0.74505805969E-08  0.93827000000E+00  0.93827000000E+00 0. -1.
     999902    2    1    2    0    0 -0.19159653514E-01  0.81056361892E-02  0.10818033544E-01  0.10204816843E+01  0.10202122546E+01 0.  0.
     999903    2    3    3    0    0 -0.59884074353E-01  0.11687153116E+00 -0.41948712493E-02  0.13272389880E+00  0.18787740972E-01 0.  0.
         14    1    1    2    0    0  0.19159653514E-01 -0.81056361892E-02 -0.10818033544E-01  0.23448315730E-01  0.00000000000E+00 0.  1.
     999901    1    3    3    0    0  0.40724420839E-01 -0.10876589497E+00  0.15012904794E-01  0.88775778547E+00  0.88000000000E+00 0. -1.
        -11    1    4    4    0    0 -0.43597714867E-02  0.23110173987E-01  0.17790287994E-02  0.23590545004E-01  0.51100000000E-03 0.  1.
         11    1    4    4    0    0 -0.55524302866E-01  0.93761357169E-01 -0.59739000487E-02  0.10913335379E+00  0.51100000000E-03 0. -1.
</event>
<event>
 8    1  0.1060404E+005  0.1043930E+01  0.7957747E-01            NaN
         13   -1    0    0    0    0  0.00000000000E+00  0.00000000000E+00  0.74505805969E-08  0.10566000000E+00  0.10566000000E+00 0. -1.
     999900   -1    0    0    0    0 -0.00000000000E+00 -0.00000000000E+00 -0.74505805969E-08  0.93827000000E+00  0.93827000000E+00 0. -1.
     999902    2    1    2    0    0  0.15647985297E-02 -0.26726021300E-03  0.23701018165E-01  0.10201758786E+01  0.10198992916E+01 0.  0.
     999903    2    3    3    0    0 -0.83928418709E-01  0.58909855073E-01 -0.75059348580E-01  0.12856798763E+00  0.19531286222E-01 0.  0.
         14    1    1    2    0    0 -0.15647985297E-02  0.26726021300E-03 -0.23701018165E-01  0.23754121422E-01  0.00000000000E+00 0.  1.
     999901    1    3    3    0    0  0.85493217239E-01 -0.59177115286E-01  0.98760366745E-01  0.89160789095E+00  0.88000000000E+00 0.  1.
        -11    1    4    4    0    0 -0.29151136790E-01  0.14144713445E-01 -0.14744265645E-01  0.35602193542E-01  0.51100000000E-03 0.  1.
         11    1    4    4    0    0 -0.54777281919E-01  0.44765141629E-01 -0.60315082935E-01  0.92965794085E-01  0.51100000000E-03 0. -1.
</event>
<event>
 8    1  0.1060404E+005  0.1043930E+01  0.7957747E-01            NaN
         13   -1    0    0    0    0  0.00000000000E+00  0.00000000000E+00  0.74505805969E-08  0.10566000000E+00  0.10566000000E+00 0.  1.
     999900   -1    0    0    0    0 -0.00000000000E+00 -0.00000000000E+00 -0.74505805969E-08  0.93827000000E+00  0.93827000000E+00 0. -1.
     999902    2    1    2    0    0  0.22831085272E-01 -0.56156319328E-02  0.55857544430E-02  0.10197640233E+01  0.10194776451E+01 0.  0.
     999903    2    3    3    0    0 -0.11993146812E+00  0.36992817278E-01 -0.22780056927E-02  0.12720676166E+00  0.20599643884E-01 0.  0.
         14    1    1    2    0    0 -0.22831085272E-01  0.56156319328E-02 -0.55857544430E-02  0.24165976690E-01  0.00000000000E+00 0.  1.
     999901    1    3    3    0    0  0.14276255339E+00 -0.42608449211E-01  0.78637601358E-02  0.89255726165E+00  0.88000000000E+00 0. -1.
        -11    1    4    4    0    0 -0.73781961443E-01  0.32444000724E-01  0.20618617366E-02  0.80628180013E-01  0.51100000000E-03 0. -1.
         11    1    4    4    0    0 -0.46149506674E-01  0.45488165543E-02 -0.43398674293E-02  0.46578581651E-01  0.51100000000E-03 0.  1.
</event>
<event>
 8    1  0.1060404E+005  0.1043930E+01  0.7957747E-01            NaN
         13   -1    0    0    0    0  0.00000000000E+00  0.00000000000E+00  0.74505805969E-08  0.10566000000E+00  0.10566000000E+00 0. -1.
     999900   -1    0    0    0    0 -0.00000000000E+00 -0.00000000000E+00 -0.74505805969E-08  0.93827000000E+00  0.93827000000E+00 0.  1.
     999902    2    1    2    0    0  0.17554562017E-01 -0.16383566297E-01  0.24208181120E-03  0.10199166184E+01  0.10196338882E+01 0.  0.
     999903    2    3    3    0    0 -0.54489556063E-01  0.10792363692E+00 -0.33057941107E-01  0.12764338264E+00  0.24153313148E-01 0.  0.
         14    1    1    2    0    0 -0.17554562017E-01  0.16383566297E-01 -0.24208181120E-03  0.24013381599E-01  0.00000000000E+00 0.  1.
     999901    1    3    3    0    0  0.72044118080E-01 -0.12430720322E+00  0.33300022918E-01  0.89227323576E+00  0.88000000000E+00 0.  1.
        -11    1    4    4    0    0 -0.35433144366E-01  0.43570516361E-01 -0.14287769001E-01  0.57950833295E-01  0.51100000000E-03 0. -1.
         11    1    4    4    0    0 -0.19056411697E-01  0.64353120562E-01 -0.18770172106E-01  0.69692549348E-01  0.51100000000E-03 0.  1.
</event>
<event>
 8    1  0.1060404E+005  0.1043930E+01  0.7957747E-01            NaN
         13   -1    0    0    0    0  0.00000000000E+00  0.00000000000E+00  0.74505805969E-08  0.10566000000E+00  0.10566000000E+00 0.  1.
     999900   -1    0    0    0    0 -0.00000000000E+00 -0.00000000000E+00 -0.74505805969E-08  0.93827000000E+00  0.93827000000E+00 0. -1.
     999902    2    1    2    0    0 -0.32727471374E-02  0.21579758279E-01  0.91678911116E-02  0.10202562367E+01  0.10199815398E+01 0.  0.
     999903    2    3    3    0    0 -0.24070726285E-01 -0.12221441325E-01  0.12743972798E+00  0.13145743808E+00  0.17646820373E-01 0.  0.
         14    1    1    2    0    0  0.32727471374E-02 -0.21579758279E-01 -0.91678911116E-02  0.23673763297E-01  0.00000000000E+00 0.  1.
     999901    1    3    3    0    0  0.20797979148E-01  0.33801199605E-01 -0.11827183686E+00  0.88879879862E+00  0.88000000000E+00 0. -1.
        -11    1    4    4    0    0 -0.24159779508E-01 -0.72473411408E-02  0.83335597227E-01  0.87070671214E-01  0.51100000000E-03 0. -1.
         11    1    4    4    0    0  0.89053222637E-04 -0.49741001845E-02  0.44104130748E-01  0.44386766870E-01  0.51100000000E-03 0.  1.
</event>
<event>
 8    1  0.1060404E+005  0.1043930E+01  0.7957747E-01            NaN
         13   -1    0    0    0    0  0.00000000000E+00  0.00000000000E+00  0.74505805969E-08  0.10566000000E+00  0.10566000000E+00 0.  1.
     999900   -1    0    0    0    0 -0.00000000000E+00 -0.00000000000E+00 -0.74505805969E-08  0.93827000000E+00  0.93827000000E+00 0.  1.
     999902    2    1    2    0    0  0.16141566305E-01 -0.10154036869E-01  0.12507425006E-01  0.10211245115E+01  0.10208698142E+01 0.  0.
     999903    2    3    3    0    0  0.75556306437E-01  0.10150567045E-02  0.10881296690E+00  0.13380854891E+00  0.18832955498E-01 0.  0.
         14    1    1    2    0    0 -0.16141566305E-01  0.10154036869E-01 -0.12507425006E-01  0.22805488545E-01  0.00000000000E+00 0. -1.
     999901    1    3    3    0    0 -0.59414740132E-01 -0.11169093573E-01 -0.96305541891E-01  0.88731596255E+00  0.88000000000E+00 0.  1.
        -11    1    4    4    0    0  0.91107945446E-02 -0.59465204797E-02  0.12333429229E-01  0.16454248102E-01  0.51100000000E-03 0.  1.
         11    1    4    4    0    0  0.66445511893E-01  0.69615771842E-02  0.96479537668E-01  0.11735430080E+00  0.51100000000E-03 0. -1.
</event>
<event>
 8    1  0.1060404E+005  0.1043930E+01  0.7957747E-01            NaN
         13   -1    0    0    0    0  0.00000000000E+00  0.00000000000E+00  0.74505805969E-08  0.10566000000E+00  0.10566000000E+00 0.  1.
     999900   -1    0    0    0    0 -0.00000000000E+00 -0.00000000000E+00 -0.74505805969E-08  0.93827000000E+00  0.93827000000E+00 0.  1.
     999902    2    1    2    0    0 -0.15947961138E-01  0.29134458687E-02 -0.17220667581E-01  0.10202788473E+01  0.10200046810E+01 0.  0.
     999903    2    3    3    0    0 -0.75652401055E-01 -0.58199023896E-01 -0.90639409825E-01  0.13309810710E+00  0.19727932767E-01 0.  0.
         14    1    1    2    0    0  0.15947961138E-01 -0.29134458687E-02  0.17220667581E-01  0.23651152683E-01  0.00000000000E+00 0.  1.
     999901    1    3    3    0    0  0.59704439917E-01  0.61112469765E-01  0.73418742244E-01  0.88718074022E+00  0.88000000000E+00 0.  1.
        -11    1    4    4    0    0 -0.42505351353E-01 -0.44658774087E-01 -0.57038623239E-01  0.83992717890E-01  0.51100000000E-03 0. -1.
         11    1    4    4    0    0 -0.33147049702E-01 -0.13540249809E-01 -0.33600786586E-01  0.49105389206E-01  0.51100000000E-03 0.  1.
</event>
<event>
 8    1  0.1060404E+005  0.1043930E+01  0.7957747E-01            NaN
         13   -1    0    0    0    0  0.00000000000E+00  0.00000000000E+00  0.74505805969E-08  0.10566000000E+00  0.10566000000E+00 0.  1.
     999900   -1    0    0    0    0 -0.00000000000E+00 -0.00000000000E+00 -0.74505805969E-08  0.93827000000E+00  0.93827000000E+00 0. -1.
     999902    2    1    2    0    0 -0.15876119462E-01  0.17097832310E-01  0.43617628326E-02  0.10201936984E+01  0.10199175311E+01 0.  0.
     999903    2    3    3    0    0  0.88298364320E-01 -0.89443424292E-01 -0.91601519767E-02  0.12756488158E+00  0.19803114331E-01 0.  0.
         14    1    1    2    0    0  0.15876119462E-01 -0.17097832310E-01 -0.43617628326E-02  0.23736301605E-01  0.00000000000E+00 0. -1.
     999901    1    3    3    0    0 -0.10417448378E+00  0.10654125660E+00  0.13521914809E-01  0.89262881682E+00  0.88000000000E+00 0.  1.
        -11    1    4    4    0    0  0.33592696967E-01 -0.33492536682E-01  0.61262514818E-02  0.47833161940E-01  0.51100000000E-03 0. -1.
         11    1    4    4    0    0  0.54705667353E-01 -0.55950887610E-01 -0.15286403458E-01  0.79731719639E-01  0.51100000000E-03 0.  1.
</event>
<event>
 8    1  0.1196476E+005  0.1043930E+01  0.7957747E-01            NaN
         13   -1    0    0    0    0  0.00000000000E+00  0.00000000000E+00  0.74505805969E-08  0.10566000000E+00  0.10566000000E+00 0. -1.
     999900   -1    0    0    0    0 -0.00000000000E+00 -0.00000000000E+00 -0.74505805969E-08  0.93827000000E+00  0.93827000000E+00 0.  1.
     999902    2    1    2    0    0 -0.12152360745E-01 -0.18633414555E-01 -0.16904620167E-01  0.10159898820E+01  0.10156056273E+01 0.  0.
     999903    2    3    3    0    0 -0.10994775410E+00 -0.62233212297E-01 -0.20499937387E-01  0.12949238759E+00  0.19660866355E-01 0.  0.
         14    1    1    2    0    0  0.12152360745E-01  0.18633414555E-01  0.16904620167E-01  0.27940117978E-01  0.00000000000E+00 0. -1.
     999901    1    3    3    0    0  0.97795393359E-01  0.43599797742E-01  0.35953172204E-02  0.88649749443E+00  0.88000000000E+00 0. -1.
        -11    1    4    4    0    0 -0.53900905248E-01 -0.19876020551E-01 -0.12388033877E-01  0.58771492101E-01  0.51100000000E-03 0.  1.
         11    1    4    4    0    0 -0.56046848856E-01 -0.42357191746E-01 -0.81119035105E-02  0.70720895490E-01  0.51100000000E-03 0. -1.
</event>
<event>
 8    1  0.1060404E+005  0.1043930E+01  0.7957747E-01            NaN
         13   -1    0    0    0    0  0.00000000000E+00  0.00000000000E+00  0.74505805969E-08  0.10566000000E+00  0.10566000000E+00 0. -1.
     999900   -1    0    0    0    0 -0.00000000000E+00 -0.00000000000E+00 -0.74505805969E-08  0.93827000000E+00  0.93827000000E+00 0.  1.
     999902    2    1    2    0    0  0.21882406335E-01 -0.91927465364E-02 -0.13570373639E-02  0.10201563203E+01  0.10198792723E+01 0.  0.
     999903    2    3    3    0    0 -0.55131555572E-01  0.10900844083E+00 -0.33968303160E-01  0.12832328342E+00  0.19765901325E-01 0.  0.
         14    1    1    2    0    0 -0.21882406335E-01  0.91927465364E-02  0.13570373639E-02  0.23773679696E-01  0.00000000000E+00 0. -1.
     999901    1    3    3    0    0  0.77013961907E-01 -0.11820118737E+00  0.32611265796E-01  0.89183303689E+00  0.88000000000E+00 0. -1.
        -11    1    4    4    0    0 -0.38403930574E-02  0.62168344830E-02 -0.73994320347E-02  0.10412029834E-01  0.51100000000E-03 0. -1.
         11    1    4    4    0    0 -0.51291162515E-01  0.10279160635E+00 -0.26568871125E-01  0.11791125358E+00  0.51100000000E-03 0.  1.
</event>
<event>
 8    1  0.1060404E+005  0.1043930E+01  0.7957747E-01            NaN
         13   -1    0    0    0    0  0.00000000000E+00  0.00000000000E+00  0.74505805969E-08  0.10566000000E+00  0.10566000000E+00 0. -1.
     999900   -1    0    0    0    0 -0.00000000000E+00 -0.00000000000E+00 -0.74505805969E-08  0.93827000000E+00  0.93827000000E+00 0. -1.
     999902    2    1    2    0    0 -0.12467015638E-02  0.15245995028E-01 -0.28866995752E-01  0.10112604718E+01  0.10107326272E+01 0.  0.
     999903    2    3    3    0    0  0.10958426536E+00 -0.24322551132E-01  0.40631551548E-01  0.12071051747E+00  0.17883185953E-01 0.  0.
         14    1    1    2    0    0  0.12467015638E-02 -0.15245995028E-01  0.28866995752E-01  0.32669528202E-01  0.00000000000E+00 0. -1.
     999901    1    3    3    0    0 -0.11083096692E+00  0.39568546160E-01 -0.69498547300E-01  0.89054995433E+00  0.88000000000E+00 0. -1.
        -11    1    4    4    0    0  0.69668594900E-01 -0.23914926947E-01  0.24114052274E-01  0.77507325359E-01  0.51100000000E-03 0. -1.
         11    1    4    4    0    0  0.39915670456E-01 -0.40762418437E-03  0.16517499274E-01  0.43203192112E-01  0.51100000000E-03 0.  1.
</event>
<event>
 8    1  0.1060404E+005  0.1043930E+01  0.7957747E-01            NaN
         13   -1    0    0    0    0  0.00000000000E+00  0.00000000000E+00  0.74505805969E-08  0.10566000000E+00  0.10566000000E+00 0. -1.
     999900   -1    0    0    0    0 -0.00000000000E+00 -0.00000000000E+00 -0.74505805969E-08  0.93827000000E+00  0.93827000000E+00 0.  1.
     999902    2    1    2    0    0 -0.10906883650E-01 -0.22134916716E-01 -0.58904004402E-02  0.10185605013E+01  0.10182445105E+01 0.  0.
     999903    2    3    3    0    0  0.10210584016E+00  0.15963255686E-01 -0.73587860088E-01  0.12793920546E+00  0.16517839312E-01 0.  0.
         14    1    1    2    0    0  0.10906883650E-01  0.22134916716E-01  0.58904004402E-02  0.25369498740E-01  0.00000000000E+00 0. -1.
     999901    1    3    3    0    0 -0.11301272381E+00 -0.38098172402E-01  0.67697459648E-01  0.89062129580E+00  0.88000000000E+00 0.  1.
        -11    1    4    4    0    0  0.73345149534E-01  0.12999553649E-01 -0.43749239334E-01  0.86387246851E-01  0.51100000000E-03 0.  1.
         11    1    4    4    0    0  0.28760690626E-01  0.29637020361E-02 -0.29838620753E-01  0.41551958612E-01  0.51100000000E-03 0. -1.
</event>
<event>
 8    1  0.1060404E+005  0.1043930E+01  0.7957747E-01            NaN
         13   -1    0    0    0    0  0.00000000000E+00  0.00000000000E+00  0.74505805969E-08  0.10566000000E+00  0.10566000000E+00 0.  1.
     999900   -1    0    0    0    0 -0.00000000000E+00 -0.00000000000E+00 -0.74505805969E-08  0.93827000000E+00  0.93827000000E+00 0.  1.
     999902    2    1    2    0    0 -0.13583546433E-01 -0.11048458151E-01 -0.14446278560E-01  0.10212303056E+01  0.10209779924E+01 0.  0.
     999903    2    3    3    0    0 -0.10219154604E+00  0.55996363282E-01 -0.61259536826E-01  0.13300856143E+00  0.18969496051E-01 0.  0.
         14    1    1    2    0    0  0.13583546433E-01  0.11048458151E-01  0.14446278560E-01  0.22699694391E-01  0.00000000000E+00 0.  1.
     999901    1    3    3    0    0  0.88607999603E-01 -0.67044821434E-01  0.46813258266E-01  0.88822174417E+00  0.88000000000E+00 0. -1.
        -11    1    4    4    0    0 -0.27248487720E-01  0.59676377303E-02 -0.12790931391E-01  0.30691396677E-01  0.51100000000E-03 0. -1.
         11    1    4    4    0    0 -0.74943058316E-01  0.50028725552E-01 -0.48468605435E-01  0.10231716476E+00  0.51100000000E-03 0.  1.
</event>
<event>
 8    1  0.1060404E+005  0.1043930E+01  0.7957747E-01            NaN
         13   -1    0    0    0    0  0.00000000000E+00  0.00000000000E+00  0.74505805969E-08  0.10566000000E+00  0.10566000000E+00 0.  1.
     999900   -1    0    0    0    0 -0.00000000000E+00 -0.00000000000E+00 -0.74505805969E-08  0.93827000000E+00  0.93827000000E+00 0.  1.
     999902    2    1    2    0    0 -0.81532220105E-02 -0.96413155577E-02 -0.20281836905E-01  0.10200389368E+01  0.10197591135E+01 0.  0.
     999903    2    3    3    0    0  0.11775330085E+00  0.22768278232E-01  0.40819641931E-01  0.12839089802E+00  0.20826549661E-01 0.  0.
         14    1    1    2    0    0  0.81532220105E-02  0.96413155577E-02  0.20281836905E-01  0.23891063247E-01  0.00000000000E+00 0.  1.
     999901    1    3    3    0    0 -0.12590652286E+00 -0.32409593789E-01 -0.61101478836E-01  0.89164803874E+00  0.88000000000E+00 0.  1.
        -11    1    4    4    0    0  0.57151635589E-01  0.17127314370E-01  0.29195409039E-01  0.66425050832E-01  0.51100000000E-03 0. -1.
         11    1    4    4    0    0  0.60601665262E-01  0.56409638613E-02  0.11624232892E-01  0.61965847183E-01  0.51100000000E-03 0.  1.
</event>
<event>
 8    1  0.1060404E+005  0.1043930E+01  0.7957747E-01            NaN
         13   -1    0    0    0    0  0.00000000000E+00  0.00000000000E+00  0.74505805969E-08  0.10566000000E+00  0.10566000000E+00 0. -1.
     999900   -1    0    0    0    0 -0.00000000000E+00 -0.00000000000E+00 -0.74505805969E-08  0.93827000000E+00  0.93827000000E+00 0. -1.
     999902    2    1    2    0    0 -0.15467489403E-01  0.15903313377E-01  0.98793031264E-02  0.10196450410E+01  0.10193558016E+01 0.  0.
     999903    2    3    3    0    0  0.51722397669E-03  0.81571558681E-01 -0.99542811626E-01  0.13029638679E+00  0.20351667174E-01 0.  0.
         14    1    1    2    0    0  0.15467489403E-01 -0.15903313377E-01 -0.98793031264E-02  0.24284959030E-01  0.00000000000E+00 0.  1.
     999901    1    3    3    0    0 -0.15984713380E-01 -0.65668245304E-01  0.10942211475E+00  0.88934865418E+00  0.88000000000E+00 0.  1.
        -11    1    4    4    0    0 -0.85111282813E-02  0.58325170821E-01 -0.65902812464E-01  0.88417796103E-01  0.51100000000E-03 0.  1.
         11    1    4    4    0    0  0.90283522580E-02  0.23246387860E-01 -0.33639999161E-01  0.41878590683E-01  0.51100000000E-03 0. -1.
</event>
<event>
 8    1  0.1060404E+005  0.1043930E+01  0.7957747E-01            NaN
         13   -1    0    0    0    0  0.00000000000E+00  0.00000000000E+00  0.74505805969E-08  0.10566000000E+00  0.10566000000E+00 0.  1.
     999900   -1    0    0    0    0 -0.00000000000E+00 -0.00000000000E+00 -0.74505805969E-08  0.93827000000E+00  0.93827000000E+00 0.  1.
     999902    2    1    2    0    0  0.10381566946E-01  0.20195282924E-01 -0.45049137998E-02  0.10207800403E+01  0.10205175011E+01 0.  0.
     999903    2    3    3    0    0  0.51954807611E-02 -0.11907402918E+00  0.43904970593E-01  0.12849849636E+00  0.19457638056E-01 0.  0.
         14    1    1    2    0    0 -0.10381566946E-01 -0.20195282924E-01  0.45049137998E-02  0.23149959676E-01  0.00000000000E+00 0.  1.
     999901    1    3    3    0    0  0.51860861846E-02  0.13926931211E+00 -0.48409884393E-01  0.89228154396E+00  0.88000000000E+00 0.  1.
        -11    1    4    4    0    0 -0.64156553020E-02 -0.21467073302E-01  0.97077459862E-02  0.24423294664E-01  0.51100000000E-03 0.  1.
         11    1    4    4    0    0  0.11611136063E-01 -0.97606955881E-01  0.34197224607E-01  0.10407520170E+00  0.51100000000E-03 0. -1.
</event>
<event>
 8    1  0.1060404E+005  0.1043930E+01  0.7957747E-01            NaN
         13   -1    0    0    0    0  0.00000000000E+00  0.00000000000E+00  0.74505805969E-08  0.10566000000E+00  0.10566000000E+00 0.  1.
     999900   -1    0    0    0    0 -0.00000000000E+00 -0.00000000000E+00 -0.74505805969E-08  0.93827000000E+00  0.93827000000E+00 0. -1.
     999902    2    1    2    0    0 -0.11317370503E-01  0.43285869728E-03  0.18087334993E-01  0.10225893831E+01  0.10223666781E+01 0.  0.
     999903    2    3    3    0    0 -0.76629831483E-01 -0.56591480471E-01 -0.89127769801E-01  0.13185228862E+00  0.19145232563E-01 0.  0.
         14    1    1    2    0    0  0.11317370503E-01 -0.43285869728E-03 -0.18087334993E-01  0.21340616882E-01  0.00000000000E+00 0. -1.
     999901    1    3    3    0    0  0.65312460980E-01  0.57024339169E-01  0.10721510479E+00  0.89073709450E+00  0.88000000000E+00 0.  1.
        -11    1    4    4    0    0 -0.66618678810E-01 -0.51524403475E-01 -0.85585767636E-01  0.12007496518E+00  0.51100000000E-03 0.  1.
         11    1    4    4    0    0 -0.10011152673E-01 -0.50670769968E-02 -0.35420021652E-02  0.11777323443E-01  0.51100000000E-03 0. -1.
</event>
<event>
 8    1  0.1060404E+005  0.1043930E+01  0.7957747E-01            NaN
         13   -1    0    0    0    0  0.00000000000E+00  0.00000000000E+00  0.74505805969E-08  0.10566000000E+00  0.10566000000E+00 0. -1.
     999900   -1    0    0    0    0 -0.00000000000E+00 -0.00000000000E+00 -0.74505805969E-08  0.93827000000E+00  0.93827000000E+00 0. -1.
     999902    2    1    2    0    0  0.14026539851E-01  0.16636164966E-01 -0.76735584533E-02  0.10208564371E+01  0.10205956476E+01 0.  0.
     999903    2    3    3    0    0 -0.23957593256E-01  0.29044302753E-01  0.12405128554E+00  0.13015548237E+00  0.11584055888E-01 0.  0.
         14    1    1    2    0    0 -0.14026539851E-01 -0.16636164966E-01  0.76735584533E-02  0.23073562887E-01  0.00000000000E+00 0. -1.
     999901    1    3    3    0    0  0.37984133107E-01 -0.12408137787E-01 -0.13172484399E+00  0.89070095474E+00  0.88000000000E+00 0. -1.
        -11    1    4    4    0    0 -0.67154868856E-02  0.15406046725E-02  0.23286565910E-01  0.24289843552E-01  0.51100000000E-03 0.  1.
         11    1    4    4    0    0 -0.17242106371E-01  0.27503698081E-01  0.10076471963E+00  0.10586563882E+00  0.51100000000E-03 0. -1.
</event>
<event>
 8    1  0.1060404E+005  0.1043930E+01  0.7957747E-01            NaN
         13   -1    0    0    0    0  0.00000000000E+00  0.00000000000E+00  0.74505805969E-08  0.10566000000E+00  0.10566000000E+00 0. -1.
     999900   -1    0    0    0    0 -0.00000000000E+00 -0.00000000000E+00 -0.74505805969E-08  0.93827000000E+00  0.93827000000E+00 0.  1.
     999902    2    1    2    0    0 -0.34675032716E-02 -0.19883032164E-01  0.13754643079E-01  0.10195056525E+01  0.10192130428E+01 0.  0.
     999903    2    3    3    0    0 -0.11237553026E+00 -0.62592148199E-01  0.19851548895E-01  0.13174318467E+00  0.20399654348E-01 0.  0.
         14    1    1    2    0    0  0.34675032716E-02  0.19883032164E-01 -0.13754643079E-01  0.24424347549E-01  0.00000000000E+00 0.  1.
     999901    1    3    3    0    0  0.10890802699E+00  0.42709116035E-01 -0.60969058163E-02  0.88776246778E+00  0.88000000000E+00 0. -1.
        -11    1    4    4    0    0 -0.29796005173E-01 -0.27029160976E-01  0.84495770294E-02  0.41110022383E-01  0.51100000000E-03 0. -1.
         11    1    4    4    0    0 -0.82579525083E-01 -0.35562987224E-01  0.11401971866E-01  0.90633162290E-01  0.51100000000E-03 0.  1.
</event>
<event>
 8    1  0.1060404E+005  0.1043930E+01  0.7957747E-01            NaN
         13   -1    0    0    0    0  0.00000000000E+00  0.00000000000E+00  0.74505805969E-08  0.10566000000E+00  0.10566000000E+00 0. -1.
     999900   -1    0    0    0    0 -0.00000000000E+00 -0.00000000000E+00 -0.74505805969E-08  0.93827000000E+00  0.93827000000E+00 0.  1.
     999902    2    1    2    0    0 -0.14191015343E-01 -0.10054644845E-01  0.15675238752E-01  0.10205164588E+01  0.10202478370E+01 0.  0.
     999903    2    3    3    0    0  0.29175091250E-02 -0.13037036956E+00  0.50940255379E-02  0.13210183870E+00  0.20493939862E-01 0.  0.
         14    1    1    2    0    0  0.14191015343E-01  0.10054644845E-01 -0.15675238752E-01  0.23413541154E-01  0.00000000000E+00 0.  1.
     999901    1    3    3    0    0 -0.17108524468E-01  0.12031572472E+00  0.10581213214E-01  0.88841462015E+00  0.88000000000E+00 0. -1.
        -11    1    4    4    0    0  0.82312348689E-02 -0.50629012533E-01 -0.50343669923E-02  0.51542760011E-01  0.51100000000E-03 0. -1.
         11    1    4    4    0    0 -0.53137257439E-02 -0.79741357030E-01  0.10128392530E-01  0.80559078684E-01  0.51100000000E-03 0.  1.
</event>
<event>
 8    1  0.1060404E+005  0.1043930E+01  0.7957747E-01            NaN
         13   -1    0    0    0    0  0.00000000000E+00  0.00000000000E+00  0.74505805969E-08  0.10566000000E+00  0.10566000000E+00 0. -1.
     999900   -1    0    0    0    0 -0.00000000000E+00 -0.00000000000E+00 -0.74505805969E-08  0.93827000000E+00  0.93827000000E+00 0. -1.
     999902    2    1    2    0    0  0.19808950950E-01  0.11091763650E-01 -0.75186360911E-02  0.10200144894E+01  0.10197340864E+01 0.  0.
     999903    2    3    3    0    0  0.18069332169E-01  0.12196456633E+00 -0.43825161421E-01  0.13231298077E+00  0.19601630072E-01 0.  0.
         14    1    1    2    0    0 -0.19808950950E-01 -0.11091763650E-01  0.75186360911E-02  0.23915510600E-01  0.00000000000E+00 0.  1.
     999901    1    3    3    0    0  0.17396187812E-02 -0.11087280268E+00  0.36306525330E-01  0.88770150863E+00  0.88000000000E+00 0.  1.
        -11    1    4    4    0    0  0.14941960157E-02  0.18151625677E-01  0.48689384840E-03  0.18226692598E-01  0.51100000000E-03 0.  1.
         11    1    4    4    0    0  0.16575136153E-01  0.10381294065E+00 -0.44312055270E-01  0.11408628817E+00  0.51100000000E-03 0. -1.
</event>
<event>
 8    1  0.1060404E+005  0.1043930E+01  0.7957747E-01            NaN
         13   -1    0    0    0    0  0.00000000000E+00  0.00000000000E+00  0.74505805969E-08  0.10566000000E+00  0.10566000000E+00 0. -1.
     999900   -1    0    0    0    0 -0.00000000000E+00 -0.00000000000E+00 -0.74505805969E-08  0.93827000000E+00  0.93827000000E+00 0. -1.
     999902    2    1    2    0    0  0.18001958397E-01 -0.79706882592E-02  0.14029382424E-01  0.10197550967E+01  0.10194685043E+01 0.  0.
     999903    2    3    3    0    0  0.42342980712E-01  0.96282503837E-01  0.75833860954E-01  0.13111512069E+00  0.19420397671E-01 0.  0.
         14    1    1    2    0    0 -0.18001958397E-01  0.79706882592E-02 -0.14029382424E-01  0.24174903281E-01  0.00000000000E+00 0.  1.
     999901    1    3    3    0    0 -0.24341022315E-01 -0.10425319210E+00 -0.61804478529E-01  0.88863997603E+00  0.88000000000E+00 0. -1.
        -11    1    4    4    0    0  0.28827895770E-01  0.67346608895E-01  0.41398070138E-01  0.84146744657E-01  0.51100000000E-03 0. -1.
         11    1    4    4    0    0  0.13515084943E-01  0.28935894942E-01  0.34435790816E-01  0.46968376033E-01  0.51100000000E-03 0.  1.
</event>
<event>
 8    1  0.1060404E+005  0.1043930E+01  0.7957747E-01            NaN
         13   -1    0    0    0    0  0.00000000000E+00  0.00000000000E+00  0.74505805969E-08  0.10566000000E+00  0.10566000000E+00 0.  1.
     999900   -1    0    0    0    0 -0.00000000000E+00 -0.00000000000E+00 -0.74505805969E-08  0.93827000000E+00  0.93827000000E+00 0.  1.
     999902    2    1    2    0    0 -0.59931878013E-02  0.21739946387E-01 -0.70399514679E-02  0.10203057649E+01  0.10200322296E+01 0.  0.
     999903    2    3    3    0    0  0.72185457527E-01  0.10348152935E+00 -0.35899450464E-01  0.13259722168E+00  0.19341288946E-01 0.  0.
         14    1    1    2    0    0  0.59931878013E-02 -0.21739946387E-01  0.70399514679E-02  0.23624235132E-01  0.00000000000E+00 0. -1.
     999901    1    3    3    0    0 -0.78178645328E-01 -0.81741582963E-01  0.28859498996E-01  0.88770854319E+00  0.88000000000E+00 0. -1.
        -11    1    4    4    0    0  0.13327466815E-01  0.33594988276E-01 -0.12872419625E-01  0.38369322603E-01  0.51100000000E-03 0.  1.
         11    1    4    4    0    0  0.58857990711E-01  0.69886541074E-01 -0.23027030839E-01  0.94227899075E-01  0.51100000000E-03 0. -1.
</event>
<event>
 8    1  0.1060404E+005  0.1043930E+01  0.7957747E-01            NaN
         13   -1    0    0    0    0  0.00000000000E+00  0.00000000000E+00  0.74505805969E-08  0.10566000000E+00  0.10566000000E+00 0. -1.
     999900   -1    0    0    0    0 -0.00000000000E+00 -0.00000000000E+00 -0.74505805969E-08  0.93827000000E+00  0.93827000000E+00 0.  1.
     999902    2    1    2    0    0 -0.11539559713E-03  0.20500309061E-01  0.10636867542E-01  0.10208341359E+01  0.10205728362E+01 0.  0.
     999903    2    3    3    0    0 -0.95572063296E-01  0.46137300028E-02  0.89189151504E-01  0.13205136147E+00  0.18098384789E-01 0.  0.
         14    1    1    2    0    0  0.11539559713E-03 -0.20500309061E-01 -0.10636867542E-01  0.23095864107E-01  0.00000000000E+00 0.  1.
     999901    1    3    3    0    0  0.95456667699E-01  0.15886579058E-01 -0.78552283963E-01  0.88878277443E+00  0.88000000000E+00 0.  1.
        -11    1    4    4    0    0 -0.23113665839E-01  0.78325268795E-02  0.17217155731E-01  0.29871082979E-01  0.51100000000E-03 0.  1.
         11    1    4    4    0    0 -0.72458397456E-01 -0.32187968767E-02  0.71971995773E-01  0.10218027849E+00  0.51100000000E-03 0. -1.
</event>
<event>
 8    1  0.1060404E+005  0.1043930E+01  0.7957747E-01            NaN
         13   -1    0    0    0    0  0.00000000000E+00  0.00000000000E+00  0.74505805969E-08  0.10566000000E+00  0.10566000000E+00 0. -1.
     999900   -1    0    0    0    0 -0.00000000000E+00 -0.00000000000E+00 -0.74505805969E-08  0.93827000000E+00  0.93827000000E+00 0.  1.
     999902    2    1    2    0    0 -0.66928144996E-02  0.21812890567E-01 -0.53605783601E-02  0.10204921724E+01  0.10202229865E+01 0.  0.
     999903    2    3    3    0    0 -0.99061477828E-01 -0.55290557351E-01 -0.61298600301E-01  0.13054499762E+00  0.20353276994E-01 0.  0.
         14    1    1    2    0    0  0.66928144996E-02 -0.21812890567E-01  0.53605783601E-02  0.23437827570E-01  0.00000000000E+00 0. -1.
     999901    1    3    3    0    0  0.92368663328E-01  0.77103447918E-01  0.55938021941E-01  0.88994717481E+00  0.88000000000E+00 0. -1.
        -11    1    4    4    0    0 -0.50132222821E-01 -0.31501915984E-01 -0.20946197464E-01  0.62806168366E-01  0.51100000000E-03 0.  1.
         11    1    4    4    0    0 -0.48929255006E-01 -0.23788641367E-01 -0.40352402837E-01  0.67738829258E-01  0.51100000000E-03 0. -1.
</event>
<event>
 8    1  0.1060404E+005  0.1043930E+01  0.7957747E-01            NaN
         13   -1    0    0    0    0  0.00000000000E+00  0.00000000000E+00  0.74505805969E-08  0.10566000000E+00  0.10566000000E+00 0. -1.
     999900   -1    0    0    0    0 -0.00000000000E+00 -0.00000000000E+00 -0.74505805969E-08  0.93827000000E+00  0.93827000000E+00 0.  1.
     999902    2    1    2    0    0 -0.16995763543E-01 -0.13469485807E-01 -0.10492494298E-01  0.10198390170E+01  0.10195544346E+01 0.  0.
     999903    2    3    3    0    0 -0.13537176566E-01 -0.12387022198E+00 -0.40400871103E-01  0.13242998199E+00  0.19452061619E-01 0.  0.
         14    1    1    2    0    0  0.16995763543E-01  0.13469485807E-01  0.10492494298E-01  0.24090983020E-01  0.00000000000E+00 0. -1.
     999901    1    3    3    0    0 -0.34585869773E-02  0.11040073618E+00  0.29908376806E-01  0.88740903499E+00  0.88000000000E+00 0.  1.
        -11    1    4    4    0    0 -0.15318215969E-01 -0.89424430858E-01 -0.22103307570E-01  0.93381978461E-01  0.51100000000E-03 0. -1.
         11    1    4    4    0    0  0.17810394030E-02 -0.34445791126E-01 -0.18297563533E-01  0.39048003533E-01  0.51100000000E-03 0.  1.
</event>
<event>
 8    1  0.1060404E+005  0.1043930E+01  0.7957747E-01            NaN
         13   -1    0    0    0    0  0.00000000000E+00  0.00000000000E+00  0.74505805969E-08  0.10566000000E+00  0.10566000000E+00 0. -1.
     999900   -1    0    0    0    0 -0.00000000000E+00 -0.00000000000E+00 -0.74505805969E-08  0.93827000000E+00  0.93827000000E+00 0.  1.
     999902    2    1    2    0    0  0.24000401318E-01  0.58354879800E-02  0.48147954650E-02  0.10187654527E+01  0.10184546103E+01 0.  0.
     999903    2    3    3    0    0  0.12151752708E+00 -0.45363666300E-01  0.12277102375E-01  0.13186826071E+00  0.20350413556E-01 0.  0.
         14    1    1    2    0    0 -0.24000401318E-01 -0.58354879800E-02 -0.48147954650E-02  0.25164547259E-01  0.00000000000E+00 0. -1.
     999901    1    3    3    0    0 -0.97517125759E-01  0.51199154281E-01 -0.74623069096E-02  0.88689719204E+00  0.88000000000E+00 0. -1.
        -11    1    4    4    0    0  0.79662504775E-01 -0.38357782964E-01  0.32440755845E-02  0.88477224913E-01  0.51100000000E-03 0.  1.
         11    1    4    4    0    0  0.41855022302E-01 -0.70058833364E-02  0.90330267900E-02  0.43391035793E-01  0.51100000000E-03 0. -1.
</event>
<event>
 8    1  0.1060404E+005  0.1043930E+01  0.7957747E-01            NaN
         13   -1    0    0    0    0  0.00000000000E+00  0.00000000000E+00  0.74505805969E-08  0.10566000000E+00  0.10566000000E+00 0. -1.
     999900   -1    0    0    0    0 -0.00000000000E+00 -0.00000000000E+00 -0.74505805969E-08  0.93827000000E+00  0.93827000000E+00 0.  1.
     999902    2    1    2    0    0  0.14036546336E-01 -0.10245868630E-01 -0.16826105449E-01  0.10197407404E+01  0.10194538034E+01 0.  0.
     999903    2    3    3    0    0  0.11607733523E+00 -0.12171232138E-01 -0.60301659370E-01  0.13277616756E+00  0.19264835967E-01 0.  0.
         14    1    1    2    0    0 -0.14036546336E-01  0.10245868630E-01  0.16826105449E-01  0.24189259633E-01  0.00000000000E+00 0. -1.
     999901    1    3    3    0    0 -0.10204078889E+00  0.19253635086E-02  0.43475553921E-01  0.88696457280E+00  0.88000000000E+00 0. -1.
        -11    1    4    4    0    0  0.96080737322E-01 -0.37393536696E-02 -0.44659712383E-01  0.10602000699E+00  0.51100000000E-03 0. -1.
         11    1    4    4    0    0  0.19996597905E-01 -0.84318784687E-02 -0.15641946986E-01  0.26756160576E-01  0.51100000000E-03 0.  1.
</event>
<event>
 8    1  0.1060404E+005  0.1043930E+01  0.7957747E-01            NaN
         13   -1    0    0    0    0  0.00000000000E+00  0.00000000000E+00  0.74505805969E-08  0.10566000000E+00  0.10566000000E+00 0.  1.
     999900   -1    0    0    0    0 -0.00000000000E+00 -0.00000000000E+00 -0.74505805969E-08  0.93827000000E+00  0.93827000000E+00 0.  1.
     999902    2    1    2    0    0 -0.17527320827E-01  0.15103926416E-01 -0.83522412956E-03  0.10207776099E+01  0.10205150149E+01 0.  0.
     999903    2    3    3    0    0  0.11818321713E+00  0.39735841867E-01 -0.29110863590E-01  0.12958537857E+00  0.19967924801E-01 0.  0.
         14    1    1    2    0    0  0.17527320827E-01 -0.15103926416E-01  0.83522412956E-03  0.23152390112E-01  0.00000000000E+00 0.  1.
     999901    1    3    3    0    0 -0.13571053796E+00 -0.24631915451E-01  0.28275639460E-01  0.89119223132E+00  0.88000000000E+00 0.  1.
        -11    1    4    4    0    0  0.25442926580E-01  0.11315062190E-01 -0.14794236309E-01  0.31535752636E-01  0.51100000000E-03 0. -1.
         11    1    4    4    0    0  0.92740290549E-01  0.28420779676E-01 -0.14316627281E-01  0.98049625936E-01  0.51100000000E-03 0.  1.
</event>
<event>
 8    1  0.1060404E+005  0.1043930E+01  0.7957747E-01            NaN
         13   -1    0    0    0    0  0.00000000000E+00  0.00000000000E+00  0.74505805969E-08  0.10566000000E+00  0.10566000000E+00 0. -1.
     999900   -1    0    0    0    0 -0.00000000000E+00 -0.00000000000E+00 -0.74505805969E-08  0.93827000000E+00  0.93827000000E+00 0. -1.
     999902    2    1    2    0    0 -0.21733440150E-01  0.32104336391E-02 -0.41784131028E-02  0.10215668955E+01  0.10213220910E+01 0.  0.
     999903    2    3    3    0    0 -0.11723659525E+00 -0.57509310207E-01  0.20108891442E-01  0.13398725794E+00  0.22281780618E-01 0.  0.
         14    1    1    2    0    0  0.21733440150E-01 -0.32104336391E-02  0.41784131028E-02  0.22363104458E-01  0.00000000000E+00 0.  1.
     999901    1    3    3    0    0  0.95503155103E-01  0.60719743847E-01 -0.24287304545E-01  0.88757963760E+00  0.88000000000E+00 0. -1.
        -11    1    4    4    0    0 -0.66491037178E-01 -0.21149402339E-01  0.14839241817E-01  0.71335961919E-01  0.51100000000E-03 0. -1.
         11    1    4    4    0    0 -0.50745558076E-01 -0.36359907868E-01  0.52696496255E-02  0.62651296019E-01  0.51100000000E-03 0.  1.
</event>
<event>
 8    1  0.1060404E+005  0.1043930E+01  0.7957747E-01            NaN
         13   -1    0    0    0    0  0.00000000000E+00  0.00000000000E+00  0.74505805969E-08  0.10566000000E+00  0.10566000000E+00 0.  1.
     999900   -1    0    0    0    0 -0.00000000000E+00 -0.00000000000E+00 -0.74505805969E-08  0.93827000000E+00  0.93827000000E+00 0. -1.
     999902    2    1    2    0    0  0.26846914449E-02  0.17261229021E-01  0.17024261951E-01  0.10195377248E+01  0.10192458924E+01 0.  0.
     999903    2    3    3    0    0  0.51304560406E-01  0.29214830262E-01  0.11684090663E+00  0.13248071263E+00  0.20339064210E-01 0.  0.
         14    1    1    2    0    0 -0.26846914449E-02 -0.17261229021E-01 -0.17024261951E-01  0.24392275221E-01  0.00000000000E+00 0. -1.
     999901    1    3    3    0    0 -0.48619868961E-01 -0.11953601241E-01 -0.99816644677E-01  0.88705701214E+00  0.88000000000E+00 0. -1.
        -11    1    4    4    0    0  0.26023104340E-01  0.25381471971E-01  0.76778249993E-01  0.84950467167E-01  0.51100000000E-03 0. -1.
         11    1    4    4    0    0  0.25281456066E-01  0.38333582911E-02  0.40062656635E-01  0.47530245468E-01  0.51100000000E-03 0.  1.
</event>
<event>
 8    1  0.1060404E+005  0.1043930E+01  0.7957747E-01            NaN
         13   -1    0    0    0    0  0.00000000000E+00  0.00000000000E+00  0.74505805969E-08  0.10566000000E+00  0.10566000000E+00 0.  1.
     999900   -1    0    0    0    0 -0.00000000000E+00 -0.00000000000E+00 -0.74505805969E-08  0.93827000000E+00  0.93827000000E+00 0.  1.
     999902    2    1    2    0    0 -0.68162185016E-02  0.19971233182E-01 -0.10715627448E-01  0.10202628147E+01  0.10199882722E+01 0.  0.
     999903    2    3    3    0    0 -0.70966056797E-01  0.51843279583E-01 -0.97814569387E-01  0.13306652592E+00  0.20374088480E-01 0.  0.
         14    1    1    2    0    0  0.68162185016E-02 -0.19971233182E-01  0.10715627448E-01  0.23667185322E-01  0.00000000000E+00 0.  1.
     999901    1    3    3    0    0  0.64149838296E-01 -0.31872046402E-01  0.87098941940E-01  0.88719628876E+00  0.88000000000E+00 0. -1.
        -11    1    4    4    0    0 -0.48013401002E-01  0.31965499712E-01 -0.49550091163E-01  0.76043096353E-01  0.51100000000E-03 0. -1.
         11    1    4    4    0    0 -0.22952655795E-01  0.19877779872E-01 -0.48264478224E-01  0.57023429570E-01  0.51100000000E-03 0.  1.
</event>
<event>
 8    1  0.1060404E+005  0.1043930E+01  0.7957747E-01            NaN
         13   -1    0    0    0    0  0.00000000000E+00  0.00000000000E+00  0.74505805969E-08  0.10566000000E+00  0.10566000000E+00 0. -1.
     999900   -1    0    0    0    0 -0.00000000000E+00 -0.00000000000E+00 -0.74505805969E-08  0.93827000000E+00  0.93827000000E+00 0.  1.
     999902    2    1    2    0    0 -0.15854251880E-01  0.13755608684E-01 -0.10706021218E-01  0.10203674670E+01  0.10200953753E+01 0.  0.
     999903    2    3    3    0    0 -0.11101378757E+00  0.62930813192E-01  0.30687328020E-01  0.13290651158E+00  0.20930371207E-01 0.  0.
         14    1    1    2    0    0  0.15854251880E-01 -0.13755608684E-01  0.10706021218E-01  0.23562533040E-01  0.00000000000E+00 0. -1.
     999901    1    3    3    0    0  0.95159535689E-01 -0.49175204509E-01 -0.41393349239E-01  0.88746095538E+00  0.88000000000E+00 0.  1.
        -11    1    4    4    0    0 -0.27371978431E-01  0.23455146799E-01  0.15219108710E-01  0.39131208843E-01  0.51100000000E-03 0.  1.
         11    1    4    4    0    0 -0.83641809137E-01  0.39475666393E-01  0.15468219310E-01  0.93775302733E-01  0.51100000000E-03 0. -1.
</event>
<event>
 8    1  0.1060404E+005  0.1043930E+01  0.7957747E-01            NaN
         13   -1    0    0    0    0  0.00000000000E+00  0.00000000000E+00  0.74505805969E-08  0.10566000000E+00  0.10566000000E+00 0.  1.
     999900   -1    0    0    0    0 -0.00000000000E+00 -0.00000000000E+00 -0.74505805969E-08  0.93827000000E+00  0.93827000000E+00 0. -1.
     999902    2    1    2    0    0 -0.80034212985E-02 -0.16105084065E-01  0.16179689695E-01  0.10197388685E+01  0.10194518866E+01 0.  0.
     999903    2    3    3    0    0  0.12283398823E+00  0.27686402659E-01  0.19897760279E-01  0.12898079466E+00  0.19631580922E-01 0.  0.
         14    1    1    2    0    0  0.80034212985E-02  0.16105084065E-01 -0.16179689695E-01  0.24191131513E-01  0.00000000000E+00 0. -1.
     999901    1    3    3    0    0 -0.13083740953E+00 -0.43791486725E-01 -0.37180705842E-02  0.89075807383E+00  0.88000000000E+00 0. -1.
        -11    1    4    4    0    0  0.54365372285E-01  0.22088017585E-01  0.72892191188E-02  0.59134322190E-01  0.51100000000E-03 0.  1.
         11    1    4    4    0    0  0.68468615946E-01  0.55983850745E-02  0.12608541160E-01  0.69846472468E-01  0.51100000000E-03 0. -1.
</event>
<event>
 8    1  0.1060404E+005  0.1043930E+01  0.7957747E-01            NaN
         13   -1    0    0    0    0  0.00000000000E+00  0.00000000000E+00  0.74505805969E-08  0.10566000000E+00  0.10566000000E+00 0. -1.
     999900   -1    0    0    0    0 -0.00000000000E+00 -0.00000000000E+00 -0.74505805969E-08  0.93827000000E+00  0.93827000000E+00 0. -1.
     999902    2    1    2    0    0  0.17603660138E-01 -0.42230018926E-02 -0.14920106162E-01  0.10204708405E+01  0.10202011587E+01 0.  0.
     999903    2    3    3    0    0  0.96741162599E-01  0.65853985205E-02 -0.89114755586E-01  0.13374404392E+00  0.23319725704E-01 0.  0.
         14    1    1    2    0    0 -0.17603660138E-01  0.42230018926E-02  0.14920106162E-01  0.23459159472E-01  0.00000000000E+00 0.  1.
     999901    1    3    3    0    0 -0.79137502461E-01 -0.10808400413E-01  0.74194649424E-01  0.88672679661E+00  0.88000000000E+00 0. -1.
        -11    1    4    4    0    0  0.62425297318E-01 -0.45543083500E-02 -0.65625249226E-01  0.90689546955E-01  0.51100000000E-03 0. -1.
         11    1    4    4    0    0  0.34315865281E-01  0.11139706871E-01 -0.23489506359E-01  0.43054496968E-01  0.51100000000E-03 0.  1.
</event>
<event>
 8    1  0.1060404E+005  0.1043930E+01  0.7957747E-01            NaN
         13   -1    0    0    0    0  0.00000000000E+00  0.00000000000E+00  0.74505805969E-08  0.10566000000E+00  0.10566000000E+00 0.  1.
     999900   -1    0    0    0    0 -0.00000000000E+00 -0.00000000000E+00 -0.74505805969E-08  0.93827000000E+00  0.93827000000E+00 0.  1.
     999902    2    1    2    0    0 -0.15544443948E-02 -0.23819709235E-01  0.12772093450E-01  0.10168574823E+01  0.10164970330E+01 0.  0.
     999903    2    3    3    0    0  0.12044279042E+00 -0.19146071143E-02  0.37548716208E-01  0.12782596435E+00  0.20480224335E-01 0.  0.
         14    1    1    2    0    0  0.15544443948E-02  0.23819709235E-01 -0.12772093450E-01  0.27072517735E-01  0.00000000000E+00 0. -1.
     999901    1    3    3    0    0 -0.12199723482E+00 -0.21905102121E-01 -0.24776622758E-01  0.88903151791E+00  0.88000000000E+00 0. -1.
        -11    1    4    4    0    0  0.67429779822E-01  0.82225167823E-02  0.16621478080E-01  0.69935110236E-01  0.51100000000E-03 0. -1.
         11    1    4    4    0    0  0.53013010601E-01 -0.10137123897E-01  0.20927238128E-01  0.57890854119E-01  0.51100000000E-03 0.  1.
</event>
<event>
 8    1  0.1060404E+005  0.1043930E+01  0.7957747E-01            NaN
         13   -1    0    0    0    0  0.00000000000E+00  0.00000000000E+00  0.74505805969E-08  0.10566000000E+00  0.10566000000E+00 0.  1.
     999900   -1    0    0    0    0 -0.00000000000E+00 -0.00000000000E+00 -0.74505805969E-08  0.93827000000E+00  0.93827000000E+00 0. -1.
     999902    2    1    2    0    0 -0.41059975518E-02 -0.14599895896E-01 -0.18307489398E-01  0.10201564781E+01  0.10198794338E+01 0.  0.
     999903    2    3    3    0    0 -0.36968214941E-01  0.63271781222E-01 -0.10738541781E+00  0.13163028221E+00  0.20613976388E-01 0.  0.
         14    1    1    2    0    0  0.41059975518E-02  0.14599895896E-01  0.18307489398E-01  0.23773521912E-01  0.00000000000E+00 0.  1.
     999901    1    3    3    0    0  0.32862217389E-01 -0.77871677117E-01  0.89077928409E-01  0.88852619588E+00  0.88000000000E+00 0.  1.
        -11    1    4    4    0    0 -0.14012937713E-01  0.39545022089E-01 -0.71216630983E-01  0.82657370179E-01  0.51100000000E-03 0. -1.
         11    1    4    4    0    0 -0.22955277229E-01  0.23726759133E-01 -0.36168786824E-01  0.48972912032E-01  0.51100000000E-03 0.  1.
</event>
<event>
 8    1  0.1089107E+005  0.1043930E+01  0.7957747E-01            NaN
         13   -1    0    0    0    0  0.00000000000E+00  0.00000000000E+00  0.74505805969E-08  0.10566000000E+00  0.10566000000E+00 0.  1.
     999900   -1    0    0    0    0 -0.00000000000E+00 -0.00000000000E+00 -0.74505805969E-08  0.93827000000E+00  0.93827000000E+00 0.  1.
     999902    2    1    2    0    0 -0.30601498575E-01 -0.25652449351E-02 -0.95828290265E-03  0.10132062225E+01  0.10127402919E+01 0.  0.
     999903    2    3    3    0    0  0.34005766608E-01  0.34501768659E-01 -0.11175421801E+00  0.12313667386E+00  0.18079574173E-01 0.  0.
         14    1    1    2    0    0  0.30601498575E-01  0.25652449351E-02  0.95828290265E-03  0.30723777481E-01  0.00000000000E+00 0. -1.
     999901    1    3    3    0    0 -0.64607265183E-01 -0.37067013594E-01  0.11079593511E+00  0.89006954866E+00  0.88000000000E+00 0. -1.
        -11    1    4    4    0    0  0.19510024694E-01  0.31187794768E-01 -0.77411667442E-01  0.85709666801E-01  0.51100000000E-03 0.  1.
         11    1    4    4    0    0  0.14495741915E-01  0.33139738907E-02 -0.34342550573E-01  0.37427007060E-01  0.51100000000E-03 0. -1.
</event>
<event>
 8    1  0.1060404E+005  0.1043930E+01  0.7957747E-01            NaN
         13   -1    0    0    0    0  0.00000000000E+00  0.00000000000E+00  0.74505805969E-08  0.10566000000E+00  0.10566000000E+00 0.  1.
     999900   -1    0    0    0    0 -0.00000000000E+00 -0.00000000000E+00 -0.74505805969E-08  0.93827000000E+00  0.93827000000E+00 0. -1.
     999902    2    1    2    0    0 -0.56177943890E-02  0.17688656173E-01 -0.15540962795E-01  0.10197231891E+01  0.10194358306E+01 0.  0.
     999903    2    3    3    0    0 -0.47924553992E-01 -0.48233945288E-01 -0.11041072598E+00  0.13116484925E+00  0.19758869244E-01 0.  0.
         14    1    1    2    0    0  0.56177943890E-02 -0.17688656173E-01  0.15540962795E-01  0.24206810934E-01  0.00000000000E+00 0.  1.
     999901    1    3    3    0    0  0.42306759603E-01  0.65922601461E-01  0.94869763184E-01  0.88855833982E+00  0.88000000000E+00 0.  1.
        -11    1    4    4    0    0 -0.23654351461E-01 -0.22872456780E-01 -0.71785145715E-01  0.78968638639E-01  0.51100000000E-03 0.  1.
         11    1    4    4    0    0 -0.24270202531E-01 -0.25361488508E-01 -0.38625580264E-01  0.52196210610E-01  0.51100000000E-03 0. -1.
</event>
<event>
 7    1  0.1060404E+005  0.1043930E+01  0.7957747E-01            NaN
         13   -1    0    0    0    0  0.00000000000E+00  0.00000000000E+00  0.74505805969E-08  0.10566000000E+00  0.10566000000E+00 0.  1.
     999900   -1    0    0    0    0 -0.00000000000E+00 -0.00000000000E+00 -0.74505805969E-08  0.93827000000E+00  0.93827000000E+00 0.  1.
     999903    2    1    2    0    0 -0.10014881005E+00  0.56296305667E-01  0.28408323358E-01  0.11996848921E+00  0.19655721355E-01 0.  0.
         14    1    1    2    0    0  0.22639858466E-01 -0.32581332182E-01  0.18554120240E-02  0.39718370459E-01  0.00000000000E+00 0.  1.
     999901    1    1    2    0    0  0.77508951581E-01 -0.23714973485E-01 -0.30263735382E-01  0.88424314033E+00  0.88000000000E+00 0.  1.
        -11    1    3    3    0    0 -0.48695975524E-01  0.37296084629E-01  0.10253267264E-01  0.62190727375E-01  0.51100000000E-03 0.  1.
         11    1    3    3    0    0 -0.51452834523E-01  0.19000221037E-01  0.18155056095E-01  0.57777761835E-01  0.51100000000E-03 0. -1.
</event>
<event>
 8    1  0.1060404E+005  0.1043930E+01  0.7957747E-01            NaN
         13   -1    0    0    0    0  0.00000000000E+00  0.00000000000E+00  0.74505805969E-08  0.10566000000E+00  0.10566000000E+00 0. -1.
     999900   -1    0    0    0    0 -0.00000000000E+00 -0.00000000000E+00 -0.74505805969E-08  0.93827000000E+00  0.93827000000E+00 0.  1.
     999902    2    1    2    0    0  0.21610401703E-01  0.91635953469E-02 -0.32127417158E-02  0.10202381733E+01  0.10199630521E+01 0.  0.
     999903    2    3    3    0    0  0.41511356027E-01 -0.91843470396E-01  0.79630189958E-01  0.13037221340E+00  0.22305406107E-01 0.  0.
         14    1    1    2    0    0 -0.21610401703E-01 -0.91635953469E-02  0.32127417158E-02  0.23691826666E-01  0.00000000000E+00 0. -1.
     999901    1    3    3    0    0 -0.19900954324E-01  0.10100706574E+00 -0.82842931674E-01  0.88986595993E+00  0.88000000000E+00 0.  1.
        -11    1    4    4    0    0  0.35884858454E-01 -0.77230007464E-01  0.55665302119E-01  0.10174027767E+00  0.51100000000E-03 0.  1.
         11    1    4    4    0    0  0.56264975730E-02 -0.14613462931E-01  0.23964887840E-01  0.28631935735E-01  0.51100000000E-03 0. -1.
</event>
<event>
 8    1  0.1060404E+005  0.1043930E+01  0.7957747E-01            NaN
         13   -1    0    0    0    0  0.00000000000E+00  0.00000000000E+00  0.74505805969E-08  0.10566000000E+00  0.10566000000E+00 0. -1.
     999900   -1    0    0    0    0 -0.00000000000E+00 -0.00000000000E+00 -0.74505805969E-08  0.93827000000E+00  0.93827000000E+00 0. -1.
     999902    2    1    2    0    0 -0.29376017067E-02 -0.20077837389E-01  0.15337473656E-01  0.10184940578E+01  0.10181763887E+01 0.  0.
     999903    2    3    3    0    0 -0.41670108597E-01  0.13163171793E-01  0.12144982010E+00  0.13065116524E+00  0.20248484714E-01 0.  0.
         14    1    1    2    0    0  0.29376017067E-02  0.20077837389E-01 -0.15337473656E-01  0.25435942211E-01  0.00000000000E+00 0.  1.
     999901    1    3    3    0    0  0.38732506890E-01 -0.33241009182E-01 -0.10611234645E+00  0.88784289255E+00  0.88000000000E+00 0. -1.
        -11    1    4    4    0    0 -0.32059057024E-01  0.66211976142E-03  0.74101320189E-01  0.80743348423E-01  0.51100000000E-03 0.  1.
         11    1    4    4    0    0 -0.96110515727E-02  0.12501052032E-01  0.47348499915E-01  0.49907816817E-01  0.51100000000E-03 0. -1.
</event>
<event>
 8    1  0.1060404E+005  0.1043930E+01  0.7957747E-01            NaN
         13   -1    0    0    0    0  0.00000000000E+00  0.00000000000E+00  0.74505805969E-08  0.10566000000E+00  0.10566000000E+00 0. -1.
     999900   -1    0    0    0    0 -0.00000000000E+00 -0.00000000000E+00 -0.74505805969E-08  0.93827000000E+00  0.93827000000E+00 0. -1.
     999902    2    1    2    0    0 -0.18576047074E-01  0.20377996999E-01 -0.59089800395E-02  0.10157298523E+01  0.10153383104E+01 0.  0.
     999903    2    3    3    0    0 -0.50511147676E-01  0.11443169521E+00 -0.29032626764E-01  0.12984010076E+00  0.19224188960E-01 0.  0.
         14    1    1    2    0    0  0.18576047074E-01 -0.20377996999E-01  0.59089800395E-02  0.28200147724E-01  0.00000000000E+00 0. -1.
     999901    1    3    3    0    0  0.31935100602E-01 -0.94053698211E-01  0.23123646724E-01  0.88588975151E+00  0.88000000000E+00 0. -1.
        -11    1    4    4    0    0 -0.94871840450E-02  0.43995112591E-01 -0.89937452151E-02  0.45899075884E-01  0.51100000000E-03 0.  1.
         11    1    4    4    0    0 -0.41023963631E-01  0.70436582619E-01 -0.20038881549E-01  0.83941024879E-01  0.51100000000E-03 0. -1.
</event>
<event>
 8    1  0.1060404E+005  0.1043930E+01  0.7957747E-01            NaN
         13   -1    0    0    0    0  0.00000000000E+00  0.00000000000E+00  0.74505805969E-08  0.10566000000E+00  0.10566000000E+00 0.  1.
     999900   -1    0    0    0    0 -0.00000000000E+00 -0.00000000000E+00 -0.74505805969E-08  0.93827000000E+00  0.93827000000E+00 0.  1.
     999902    2    1    2    0    0  0.16700960479E-01 -0.81538134873E-02 -0.14130608372E-01  0.10205830334E+01  0.10203159546E+01 0.  0.
     999903    2    3    3    0    0  0.15158881368E-01 -0.99704066086E-01 -0.84724177702E-01  0.13302048420E+00  0.18589525288E-01 0.  0.
         14    1    1    2    0    0 -0.16700960479E-01  0.81538134873E-02  0.14130608372E-01  0.23346966576E-01  0.00000000000E+00 0.  1.
     999901    1    3    3    0    0  0.15420791109E-02  0.91550252598E-01  0.70593569330E-01  0.88756254923E+00  0.88000000000E+00 0. -1.
        -11    1    4    4    0    0  0.17398634142E-01 -0.56810130676E-01 -0.53000973968E-01  0.79620774802E-01  0.51100000000E-03 0. -1.
         11    1    4    4    0    0 -0.22397527734E-02 -0.42893935409E-01 -0.31723203734E-01  0.53399709396E-01  0.51100000000E-03 0.  1.
</event>
<event>
 8    1  0.1122800E+005  0.1043930E+01  0.7957747E-01            NaN
         13   -1    0    0    0    0  0.00000000000E+00  0.00000000000E+00  0.74505805969E-08  0.10566000000E+00  0.10566000000E+00 0. -1.
     999900   -1    0    0    0    0 -0.00000000000E+00 -0.00000000000E+00 -0.74505805969E-08  0.93827000000E+00  0.93827000000E+00 0. -1.
     999902    2    1    2    0    0  0.20836550154E-01  0.14687849524E-02  0.10327059174E-01  0.10206283412E+01  0.10203623099E+01 0.  0.
     999903    2    3    3    0    0 -0.77029828487E-01 -0.61321178660E-01  0.82908424523E-01  0.13001705551E+00  0.18350652268E-01 0.  0.
         14    1    1    2    0    0 -0.20836550154E-01 -0.14687849524E-02 -0.10327059174E-01  0.23301658798E-01  0.00000000000E+00 0.  1.
     999901    1    3    3    0    0  0.97866378641E-01  0.62789963612E-01 -0.72581365349E-01  0.89061128569E+00  0.88000000000E+00 0. -1.
        -11    1    4    4    0    0 -0.41886485724E-01 -0.44735159379E-01  0.50243301998E-01  0.79248739344E-01  0.51100000000E-03 0.  1.
         11    1    4    4    0    0 -0.35143342763E-01 -0.16586019281E-01  0.32665122526E-01  0.50768316170E-01  0.51100000000E-03 0. -1.
</event>
<event>
 8    1  0.1060404E+005  0.1043930E+01  0.7957747E-01            NaN
         13   -1    0    0    0    0  0.00000000000E+00  0.00000000000E+00  0.74505805969E-08  0.10566000000E+00  0.10566000000E+00 0.  1.
     999900   -1    0    0    0    0 -0.00000000000E+00 -0.00000000000E+00 -0.74505805969E-08  0.93827000000E+00  0.93827000000E+00 0.  1.
     999902    2    1    2    0    0 -0.71076609780E-02 -0.19906755652E-01  0.11064793215E-01  0.10200715127E+01  0.10197924611E+01 0.  0.
     999903    2    3    3    0    0  0.11318765790E+00  0.25256313886E-01  0.54874540415E-01  0.12966151699E+00  0.18750106937E-01 0.  0.
         14    1    1    2    0    0  0.71076609780E-02  0.19906755652E-01 -0.11064793215E-01  0.23858487254E-01  0.00000000000E+00 0.  1.
     999901    1    3    3    0    0 -0.12029531888E+00 -0.45163069538E-01 -0.43809747201E-01  0.89040999576E+00  0.88000000000E+00 0. -1.
        -11    1    4    4    0    0  0.10332953896E+00  0.18577227001E-01  0.52964370082E-01  0.11759078452E+00  0.51100000000E-03 0. -1.
         11    1    4    4    0    0  0.98581189397E-02  0.66790868850E-02  0.19101703334E-02  0.12070732469E-01  0.51100000000E-03 0.  1.
</event>
<event>
 8    1  0.1060404E+005  0.1043930E+01  0.7957747E-01            NaN
         13   -1    0    0    0    0  0.00000000000E+00  0.00000000000E+00  0.74505805969E-08  0.10566000000E+00  0.10566000000E+00 0.  1.
     999900   -1    0    0    0    0 -0.00000000000E+00 -0.00000000000E+00 -0.74505805969E-08  0.93827000000E+00  0.93827000000E+00 0.  1.
     999902    2    1    2    0    0  0.22787079685E-01 -0.44280544529E-02  0.62571243168E-02  0.10198881558E+01  0.10196047470E+01 0.  0.
     999903    2    3    3    0    0  0.44374175817E-01 -0.86315147690E-01 -0.85515830422E-01  0.13107221651E+00  0.21156476244E-01 0.  0.
         14    1    1    2    0    0 -0.22787079685E-01  0.44280544529E-02 -0.62571243168E-02  0.24041844179E-01  0.00000000000E+00 0. -1.
     999901    1    3    3    0    0 -0.21587096132E-01  0.81887093237E-01  0.91772954739E-01  0.88881593931E+00  0.88000000000E+00 0. -1.
        -11    1    4    4    0    0  0.29846702480E-01 -0.63163599902E-01 -0.72879309388E-01  0.10095603429E+00  0.51100000000E-03 0. -1.
         11    1    4    4    0    0  0.14527473337E-01 -0.23151547788E-01 -0.12636521034E-01  0.30116182218E-01  0.51100000000E-03 0.  1.
</event>
<event>
 8    1  0.1060404E+005  0.1043930E+01  0.7957747E-01            NaN
         13   -1    0    0    0    0  0.00000000000E+00  0.00000000000E+00  0.74505805969E-08  0.10566000000E+00  0.10566000000E+00 0.  1.
     999900   -1    0    0    0    0 -0.00000000000E+00 -0.00000000000E+00 -0.74505805969E-08  0.93827000000E+00  0.93827000000E+00 0. -1.
     999902    2    1    2    0    0  0.10715351322E-02  0.15895181801E-01  0.18337537294E-01  0.10196386380E+01  0.10193492443E+01 0.  0.
     999903    2    3    3    0    0 -0.12004776878E+00 -0.27224753552E-02  0.47340982123E-01  0.13067423900E+00  0.20388955053E-01 0.  0.
         14    1    1    2    0    0 -0.10715351322E-02 -0.15895181801E-01 -0.18337537294E-01  0.24291361963E-01  0.00000000000E+00 0.  1.
     999901    1    3    3    0    0  0.12111930392E+00  0.18617657156E-01 -0.29003444829E-01  0.88896439903E+00  0.88000000000E+00 0. -1.
        -11    1    4    4    0    0 -0.76131501851E-01  0.73708409941E-02  0.33759345029E-01  0.83607950392E-01  0.51100000000E-03 0. -1.
         11    1    4    4    0    0 -0.43916266934E-01 -0.10093316349E-01  0.13581637094E-01  0.47066288610E-01  0.51100000000E-03 0.  1.
</event>
<event>
 8    1  0.1060404E+005  0.1043930E+01  0.7957747E-01            NaN
         13   -1    0    0    0    0  0.00000000000E+00  0.00000000000E+00  0.74505805969E-08  0.10566000000E+00  0.10566000000E+00 0. -1.
     999900   -1    0    0    0    0 -0.00000000000E+00 -0.00000000000E+00 -0.74505805969E-08  0.93827000000E+00  0.93827000000E+00 0. -1.
     999902    2    1    2    0    0  0.23382488352E-01  0.55181738824E-03 -0.37367899292E-02  0.10202443743E+01  0.10199693988E+01 0.  0.
     999903    2    3    3    0    0  0.11634650170E+00 -0.32857591751E-01  0.51626293727E-01  0.13298817265E+00  0.20110944017E-01 0.  0.
         14    1    1    2    0    0 -0.23382488352E-01 -0.55181738824E-03  0.37367899292E-02  0.23685625661E-01  0.00000000000E+00 0. -1.
     999901    1    3    3    0    0 -0.92964013345E-01  0.33409409139E-01 -0.55363083656E-01  0.88725620168E+00  0.88000000000E+00 0. -1.
        -11    1    4    4    0    0  0.88384968596E-01 -0.32759076307E-01  0.35636608764E-01  0.10077345265E+00  0.51100000000E-03 0.  1.
         11    1    4    4    0    0  0.27961533101E-01 -0.98515444557E-04  0.15989684963E-01  0.32214720003E-01  0.51100000000E-03 0. -1.
</event>
<event>
 8    1  0.1060404E+005  0.1043930E+01  0.7957747E-01            NaN
         13   -1    0    0    0    0  0.00000000000E+00  0.00000000000E+00  0.74505805969E-08  0.10566000000E+00  0.10566000000E+00 0.  1.
     999900   -1    0    0    0    0 -0.00000000000E+00 -0.00000000000E+00 -0.74505805969E-08  0.93827000000E+00  0.93827000000E+00 0.  1.
     999902    2    1    2    0    0 -0.20446620845E-02 -0.21323435163E-01 -0.95244140168E-02  0.10204867922E+01  0.10202174812E+01 0.  0.
     999903    2    3    3    0    0 -0.37819631990E-01 -0.12619494155E+00  0.31871135123E-02  0.13344707253E+00  0.21035104900E-01 0.  0.
         14    1    1    2    0    0  0.20446620845E-02  0.21323435163E-01  0.95244140168E-02  0.23443207812E-01  0.00000000000E+00 0. -1.
     999901    1    3    3    0    0  0.35774969906E-01  0.10487150638E+00 -0.12711527529E-01  0.88703971966E+00  0.88000000000E+00 0.  1.
        -11    1    4    4    0    0 -0.12330353437E-01 -0.15588886342E-01 -0.35424352222E-03  0.19885612958E-01  0.51100000000E-03 0.  1.
         11    1    4    4    0    0 -0.25489278554E-01 -0.11060605520E+00  0.35413570346E-02  0.11356145957E+00  0.51100000000E-03 0. -1.
</event>
<event>
 8    1  0.1060404E+005  0.1043930E+01  0.7957747E-01            NaN
         13   -1    0    0    0    0  0.00000000000E+00  0.00000000000E+00  0.74505805969E-08  0.10566000000E+00  0.10566000000E+00 0.  1.
     999900   -1    0    0    0    0 -0.00000000000E+00 -0.00000000000E+00 -0.74505805969E-08  0.93827000000E+00  0.93827000000E+00 0.  1.
     999902    2    1    2    0    0 -0.52186339253E-02  0.18486322258E-01  0.13026250591E-01  0.10207209187E+01  0.10204570213E+01 0.  0.
     999903    2    3    3    0    0  0.12545078194E+00  0.14347320936E-01  0.28996405046E-01  0.13091943892E+00  0.18851092096E-01 0.  0.
         14    1    1    2    0    0  0.52186339253E-02 -0.18486322258E-01 -0.13026250591E-01  0.23209081308E-01  0.00000000000E+00 0. -1.
     999901    1    3    3    0    0 -0.13066941587E+00  0.41390013224E-02 -0.15970154455E-01  0.88980147977E+00  0.88000000000E+00 0. -1.
        -11    1    4    4    0    0  0.32559647684E-01 -0.18619294773E-02  0.13758946090E-01  0.35400101090E-01  0.51100000000E-03 0.  1.
         11    1    4    4    0    0  0.92891134258E-01  0.16209250413E-01  0.15237458956E-01  0.95519337828E-01  0.51100000000E-03 0. -1.
</event>
<event>
 8    1  0.1060404E+005  0.1043930E+01  0.7957747E-01            NaN
         13   -1    0    0    0    0  0.00000000000E+00  0.00000000000E+00  0.74505805969E-08  0.10566000000E+00  0.10566000000E+00 0.  1.
     999900   -1    0    0    0    0 -0.00000000000E+00 -0.00000000000E+00 -0.74505805969E-08  0.93827000000E+00  0.93827000000E+00 0. -1.
     999902    2    1    2    0    0  0.10307396248E-01  0.11658829743E-01  0.18781192477E-01  0.10195393477E+01  0.10192475546E+01 0.  0.
     999903    2    3    3    0    0 -0.66489647731E-01 -0.84245180594E-01 -0.64237921824E-01  0.12713386896E+00  0.22768098894E-01 0.  0.
         14    1    1    2    0    0 -0.10307396248E-01 -0.11658829743E-01 -0.18781192477E-01  0.24390652293E-01  0.00000000000E+00 0. -1.
     999901    1    3    3    0    0  0.76797043979E-01  0.95904010337E-01  0.83019114301E-01  0.89240547875E+00  0.88000000000E+00 0.  1.
        -11    1    4    4    0    0 -0.38570313083E-01 -0.36920737423E-01 -0.21667616551E-01  0.57624271198E-01  0.51100000000E-03 0. -1.
         11    1    4    4    0    0 -0.27919334648E-01 -0.47324443171E-01 -0.42570305273E-01  0.69509597759E-01  0.51100000000E-03 0.  1.
</event>
<event>
 8    1  0.1060404E+005  0.1043930E+01  0.7957747E-01            NaN
         13   -1    0    0    0    0  0.00000000000E+00  0.00000000000E+00  0.74505805969E-08  0.10566000000E+00  0.10566000000E+00 0.  1.
     999900   -1    0    0    0    0 -0.00000000000E+00 -0.00000000000E+00 -0.74505805969E-08  0.93827000000E+00  0.93827000000E+00 0. -1.
     999902    2    1    2    0    0 -0.86020016006E-02  0.15375207546E-01 -0.15773572855E-01  0.10202826526E+01  0.10200085755E+01 0.  0.
     999903    2    3    3    0    0  0.65514077753E-01  0.36585648888E-02 -0.11272055153E+00  0.13178437482E+00  0.18860520347E-01 0.  0.
         14    1    1    2    0    0  0.86020016006E-02 -0.15375207546E-01  0.15773572855E-01  0.23647347404E-01  0.00000000000E+00 0.  1.
     999901    1    3    3    0    0 -0.74116079354E-01  0.11716642657E-01  0.96946978680E-01  0.88849827777E+00  0.88000000000E+00 0.  1.
        -11    1    4    4    0    0  0.28948554431E-01  0.52071741405E-02 -0.67321720408E-01  0.73468419242E-01  0.51100000000E-03 0.  1.
         11    1    4    4    0    0  0.36565523322E-01 -0.15486092517E-02 -0.45398831127E-01  0.58315955579E-01  0.51100000000E-03 0. -1.
</event>
<event>
 8    1  0.1060404E+005  0.1043930E+01  0.7957747E-01            NaN
         13   -1    0    0    0    0  0.00000000000E+00  0.00000000000E+00  0.74505805969E-08  0.10566000000E+00  0.10566000000E+00 0.  1.
     999900   -1    0    0    0    0 -0.00000000000E+00 -0.00000000000E+00 -0.74505805969E-08  0.93827000000E+00  0.93827000000E+00 0.  1.
     999902    2    1    2    0    0  0.19900286661E-01 -0.11901842738E-01  0.10485076179E-02  0.10207184805E+01  0.10204545270E+01 0.  0.
     999903    2    3    3    0    0  0.41926088704E-01  0.88388973819E-01 -0.84138425168E-01  0.13066219162E+00  0.20565167689E-01 0.  0.
         14    1    1    2    0    0 -0.19900286661E-01  0.11901842738E-01 -0.10485076179E-02  0.23211519510E-01  0.00000000000E+00 0. -1.
     999901    1    3    3    0    0 -0.22025802043E-01 -0.10029081656E+00  0.85186932786E-01  0.89005628887E+00  0.88000000000E+00 0. -1.
        -11    1    4    4    0    0  0.19180552037E-01  0.26795510393E-01 -0.18384920805E-01  0.37738036352E-01  0.51100000000E-03 0. -1.
         11    1    4    4    0    0  0.22745536667E-01  0.61593463426E-01 -0.65753504363E-01  0.92924155267E-01  0.51100000000E-03 0.  1.
</event>
<event>
 8    1  0.1060404E+005  0.1043930E+01  0.7957747E-01            NaN
         13   -1    0    0    0    0  0.00000000000E+00  0.00000000000E+00  0.74505805969E-08  0.10566000000E+00  0.10566000000E+00 0.  1.
     999900   -1    0    0    0    0 -0.00000000000E+00 -0.00000000000E+00 -0.74505805969E-08  0.93827000000E+00  0.93827000000E+00 0. -1.
     999902    2    1    2    0    0  0.57856380921E-02  0.30844748646E-02  0.26062863823E-01  0.10170550960E+01  0.10166999596E+01 0.  0.
     999903    2    3    3    0    0 -0.80967283767E-01  0.96416693951E-01 -0.33686492703E-02  0.12739044766E+00  0.19107549426E-01 0.  0.
         14    1    1    2    0    0 -0.57856380921E-02 -0.30844748646E-02 -0.26062863823E-01  0.26874903980E-01  0.00000000000E+00 0. -1.
     999901    1    3    3    0    0  0.86752921859E-01 -0.93332219087E-01  0.29431513093E-01  0.88966464836E+00  0.88000000000E+00 0. -1.
        -11    1    4    4    0    0 -0.40866688851E-01  0.62835015370E-01  0.25735032794E-03  0.74957673152E-01  0.51100000000E-03 0.  1.
         11    1    4    4    0    0 -0.40100594916E-01  0.33581678581E-01 -0.36259995982E-02  0.52432774512E-01  0.51100000000E-03 0. -1.
</event>
<event>
 8    1  0.1060404E+005  0.1043930E+01  0.7957747E-01            NaN
         13   -1    0    0    0    0  0.00000000000E+00  0.00000000000E+00  0.74505805969E-08  0.10566000000E+00  0.10566000000E+00 0.  1.
     999900   -1    0    0    0    0 -0.00000000000E+00 -0.00000000000E+00 -0.74505805969E-08  0.93827000000E+00  0.93827000000E+00 0. -1.
     999902    2    1    2    0    0 -0.18119135998E-01 -0.19495034620E-01 -0.95077782554E-03  0.10172979997E+01  0.10169493383E+01 0.  0.
     999903    2    3    3    0    0 -0.90123214182E-01  0.27853664300E-01  0.85842380522E-01  0.12883891849E+00  0.18235467476E-01 0.  0.
         14    1    1    2    0    0  0.18119135998E-01  0.19495034620E-01  0.95077782554E-03  0.26632000350E-01  0.00000000000E+00 0. -1.
     999901    1    3    3    0    0  0.72004078184E-01 -0.47348698920E-01 -0.86793158347E-01  0.88845908116E+00  0.88000000000E+00 0. -1.
        -11    1    4    4    0    0 -0.80129739076E-01  0.18613089021E-01  0.70689676651E-01  0.10846434287E+00  0.51100000000E-03 0.  1.
         11    1    4    4    0    0 -0.99934751056E-02  0.92405752793E-02  0.15152703871E-01  0.20374575622E-01  0.51100000000E-03 0. -1.
</event>
<event>
 8    1  0.1060404E+005  0.1043930E+01  0.7957747E-01            NaN
         13   -1    0    0    0    0  0.00000000000E+00  0.00000000000E+00  0.74505805969E-08  0.10566000000E+00  0.10566000000E+00 0.  1.
     999900   -1    0    0    0    0 -0.00000000000E+00 -0.00000000000E+00 -0.74505805969E-08  0.93827000000E+00  0.93827000000E+00 0.  1.
     999902    2    1    2    0    0 -0.65199001848E-02  0.12079144662E-01 -0.19571286487E-01  0.10200249777E+01  0.10197448235E+01 0.  0.
     999903    2    3    3    0    0 -0.21170609123E-01  0.12618127045E+00  0.23546774957E-01  0.13149073215E+00  0.19116859739E-01 0.  0.
         14    1    1    2    0    0  0.65199001848E-02 -0.12079144662E-01  0.19571286487E-01  0.23905022254E-01  0.00000000000E+00 0.  1.
     999901    1    3    3    0    0  0.14650708938E-01 -0.11410212579E+00 -0.43118061445E-01  0.88853424560E+00  0.88000000000E+00 0.  1.
        -11    1    4    4    0    0 -0.13833806055E-01  0.69174639750E-01  0.35604242766E-02  0.70635987404E-01  0.51100000000E-03 0.  1.
         11    1    4    4    0    0 -0.73368030680E-02  0.57006630700E-01  0.19986350681E-01  0.60854744741E-01  0.51100000000E-03 0. -1.
</event>
<event>
 8    1  0.1060404E+005  0.1043930E+01  0.7957747E-01            NaN
         13   -1    0    0    0    0  0.00000000000E+00  0.00000000000E+00  0.74505805969E-08  0.10566000000E+00  0.10566000000E+00 0. -1.
     999900   -1    0    0    0    0 -0.00000000000E+00 -0.00000000000E+00 -0.74505805969E-08  0.93827000000E+00  0.93827000000E+00 0. -1.
     999902    2    1    2    0    0  0.16791040888E-01 -0.15563547197E-01  0.70774565257E-02  0.10199664142E+01  0.10196848692E+01 0.  0.
     999903    2    3    3    0    0  0.12231225443E+00 -0.37756032817E-01  0.30316405348E-01  0.13308012964E+00  0.20135314104E-01 0.  0.
         14    1    1    2    0    0 -0.16791040888E-01  0.15563547197E-01 -0.70774565257E-02  0.23963585840E-01  0.00000000000E+00 0.  1.
     999901    1    3    3    0    0 -0.10552121354E+00  0.22192485620E-01 -0.23238948822E-01  0.88688628452E+00  0.88000000000E+00 0. -1.
        -11    1    4    4    0    0  0.96364121074E-01 -0.21464981296E-01  0.26341605299E-01  0.10218087171E+00  0.51100000000E-03 0. -1.
         11    1    4    4    0    0  0.25948133357E-01 -0.16291051520E-01  0.39748000487E-02  0.30899257932E-01  0.51100000000E-03 0.  1.
</event>
<event>
 8    1  0.1060404E+005  0.1043930E+01  0.7957747E-01            NaN
         13   -1    0    0    0    0  0.00000000000E+00  0.00000000000E+00  0.74505805969E-08  0.10566000000E+00  0.10566000000E+00 0. -1.
     999900   -1    0    0    0    0 -0.00000000000E+00 -0.00000000000E+00 -0.74505805969E-08  0.93827000000E+00  0.93827000000E+00 0. -1.
     999902    2    1    2    0    0  0.64650378956E-02  0.18187454567E-01 -0.11883927582E-01  0.10212626677E+01  0.10210110815E+01 0.  0.
     999903    2    3    3    0    0 -0.32730561779E-01  0.11373329620E+00  0.56278936337E-01  0.13260554659E+00  0.20257343694E-01 0.  0.
         14    1    1    2    0    0 -0.64650378956E-02 -0.18187454567E-01  0.11883927582E-01  0.22667332295E-01  0.00000000000E+00 0. -1.
     999901    1    3    3    0    0  0.39195599675E-01 -0.95545841630E-01 -0.68162863919E-01  0.88865712111E+00  0.88000000000E+00 0.  1.
        -11    1    4    4    0    0 -0.20187250199E-01  0.46801735031E-01  0.15709979492E-01  0.53338466880E-01  0.51100000000E-03 0. -1.
         11    1    4    4    0    0 -0.12543311580E-01  0.66931561166E-01  0.40568956845E-01  0.79267079712E-01  0.51100000000E-03 0.  1.
</event>
<event>
 8    1  0.1060404E+005  0.1043930E+01  0.7957747E-01            NaN
         13   -1    0    0    0    0  0.00000000000E+00  0.00000000000E+00  0.74505805969E-08  0.10566000000E+00  0.10566000000E+00 0.  1.
     999900   -1    0    0    0    0 -0.00000000000E+00 -0.00000000000E+00 -0.74505805969E-08  0.93827000000E+00  0.93827000000E+00 0.  1.
     999902    2    1    2    0    0 -0.20344955796E-01 -0.11702972124E-01  0.63100404231E-02  0.10196258153E+01  0.10193361123E+01 0.  0.
     999903    2    3    3    0    0  0.87344770901E-02  0.99493793950E-01 -0.77839879117E-01  0.12817108110E+00  0.19836157010E-01 0.  0.
         14    1    1    2    0    0  0.20344955796E-01  0.11702972124E-01 -0.63100404231E-02  0.24304184681E-01  0.00000000000E+00 0. -1.
     999901    1    3    3    0    0 -0.29079432886E-01 -0.11119676607E+00  0.84149919540E-01  0.89145473422E+00  0.88000000000E+00 0. -1.
        -11    1    4    4    0    0  0.14119876531E-01  0.62967603131E-01 -0.44185610066E-01  0.78210735933E-01  0.51100000000E-03 0.  1.
         11    1    4    4    0    0 -0.53853994405E-02  0.36526190819E-01 -0.33654269051E-01  0.49960345167E-01  0.51100000000E-03 0. -1.
</event>
<event>
 8    1  0.1060404E+005  0.1043930E+01  0.7957747E-01            NaN
         13   -1    0    0    0    0  0.00000000000E+00  0.00000000000E+00  0.74505805969E-08  0.10566000000E+00  0.10566000000E+00 0. -1.
     999900   -1    0    0    0    0 -0.00000000000E+00 -0.00000000000E+00 -0.74505805969E-08  0.93827000000E+00  0.93827000000E+00 0.  1.
     999902    2    1    2    0    0  0.13431799652E-01 -0.61485330847E-02 -0.18036513671E-01  0.10206161945E+01  0.10203498826E+01 0.  0.
     999903    2    3    3    0    0 -0.63697327404E-01  0.69795235482E-01  0.84224344785E-01  0.12810645148E+00  0.19717967521E-01 0.  0.
         14    1    1    2    0    0 -0.13431799652E-01  0.61485330847E-02  0.18036513671E-01  0.23313805489E-01  0.00000000000E+00 0.  1.
     999901    1    3    3    0    0  0.77129127056E-01 -0.75943768566E-01 -0.10226085846E+00  0.89250974303E+00  0.88000000000E+00 0.  1.
        -11    1    4    4    0    0 -0.43013237670E-01  0.57048454434E-01  0.55438767422E-01  0.90434411716E-01  0.51100000000E-03 0. -1.
         11    1    4    4    0    0 -0.20684089734E-01  0.12746781048E-01  0.28785577363E-01  0.37672039769E-01  0.51100000000E-03 0.  1.
</event>
<event>
 7    1  0.1060404E+005  0.1043930E+01  0.7957747E-01            NaN
         13   -1    0    0    0    0  0.00000000000E+00  0.00000000000E+00  0.74505805969E-08  0.10566000000E+00  0.10566000000E+00 0. -1.
     999900   -1    0    0    0    0 -0.00000000000E+00 -0.00000000000E+00 -0.74505805969E-08  0.93827000000E+00  0.93827000000E+00 0. -1.
     999903    2    1    2    0    0 -0.48765278541E-01  0.14550329220E-01  0.83238861040E-01  0.99094456100E-01  0.17356231477E-01 0.  0.
         14    1    1    2    0    0 -0.16897200794E-01 -0.54772765237E-01  0.21153832426E-02  0.57358923042E-01  0.00000000000E+00 0. -1.
     999901    1    1    2    0    0  0.65662479334E-01  0.40222436017E-01 -0.85354244282E-01  0.88747662086E+00  0.88000000000E+00 0. -1.
        -11    1    3    3    0    0 -0.18576194521E-01 -0.10872465769E-02  0.20195165799E-01  0.27465668582E-01  0.51100000000E-03 0.  1.
         11    1    3    3    0    0 -0.30189084019E-01  0.15637575797E-01  0.63043695240E-01  0.71628787518E-01  0.51100000000E-03 0. -1.
</event>
<event>
 8    1  0.1060404E+005  0.1043930E+01  0.7957747E-01            NaN
         13   -1    0    0    0    0  0.00000000000E+00  0.00000000000E+00  0.74505805969E-08  0.10566000000E+00  0.10566000000E+00 0.  1.
     999900   -1    0    0    0    0 -0.00000000000E+00 -0.00000000000E+00 -0.74505805969E-08  0.93827000000E+00  0.93827000000E+00 0.  1.
     999902    2    1    2    0    0  0.11904413108E-01  0.65728550196E-02  0.18986832335E-01  0.10205758296E+01  0.10203085840E+01 0.  0.
     999903    2    3    3    0    0  0.70986744952E-01  0.98763693172E-01 -0.45744005487E-01  0.13143019811E+00  0.19697662013E-01 0.  0.
         14    1    1    2    0    0 -0.11904413108E-01 -0.65728550196E-02 -0.18986832335E-01  0.23354170434E-01  0.00000000000E+00 0. -1.
     999901    1    3    3    0    0 -0.59082331845E-01 -0.92190838152E-01  0.64730837822E-01  0.88914563146E+00  0.88000000000E+00 0. -1.
        -11    1    4    4    0    0  0.45855216962E-01  0.64982672760E-01 -0.19763950280E-01  0.81953178910E-01  0.51100000000E-03 0.  1.
         11    1    4    4    0    0  0.25131527990E-01  0.33781020412E-01 -0.25980055208E-01  0.49477019198E-01  0.51100000000E-03 0. -1.
</event>
<event>
 8    1  0.1060404E+005  0.1043930E+01  0.7957747E-01            NaN
         13   -1    0    0    0    0  0.00000000000E+00  0.00000000000E+00  0.74505805969E-08  0.10566000000E+00  0.10566000000E+00 0.  1.
     999900   -1    0    0    0    0 -0.00000000000E+00 -0.00000000000E+00 -0.74505805969E-08  0.93827000000E+00  0.93827000000E+00 0. -1.
     999902    2    1    2    0    0 -0.20933963506E-01 -0.14419611968E-02 -0.10799308150E-01  0.10203305268E+01  0.10200575713E+01 0.  0.
     999903    2    3    3    0    0 -0.33387531264E-01  0.12299666957E+00 -0.24805605829E-01  0.13137819928E+00  0.20050067214E-01 0.  0.
         14    1    1    2    0    0  0.20933963506E-01  0.14419611968E-02  0.10799308150E-01  0.23599473229E-01  0.00000000000E+00 0. -1.
     999901    1    3    3    0    0  0.12453567758E-01 -0.12443863077E+00  0.14006297679E-01  0.88895232749E+00  0.88000000000E+00 0. -1.
        -11    1    4    4    0    0 -0.75757276759E-02  0.13369427428E-01 -0.85281038692E-02  0.17581891712E-01  0.51100000000E-03 0.  1.
         11    1    4    4    0    0 -0.25811803588E-01  0.10962724215E+00 -0.16277501960E-01  0.11379630757E+00  0.51100000000E-03 0. -1.
</event>
<event>
 8    1  0.1060404E+005  0.1043930E+01  0.7957747E-01            NaN
         13   -1    0    0    0    0  0.00000000000E+00  0.00000000000E+00  0.74505805969E-08  0.10566000000E+00  0.10566000000E+00 0. -1.
     999900   -1    0    0    0    0 -0.00000000000E+00 -0.00000000000E+00 -0.74505805969E-08  0.93827000000E+00  0.93827000000E+00 0.  1.
     999902    2    1    2    0    0  0.13250030460E-01 -0.57866654078E-02  0.18640661519E-01  0.10203392589E+01  0.10200665077E+01 0.  0.
     999903    2    3    3    0    0 -0.12272229312E+00 -0.16032919108E-01 -0.33193556722E-01  0.12833015319E+00  0.70000204642E-02 0.  0.
         14    1    1    2    0    0 -0.13250030460E-01  0.57866654078E-02 -0.18640661519E-01  0.23590741099E-01  0.00000000000E+00 0.  1.
     999901    1    3    3    0    0  0.13597232358E+00  0.10246253700E-01  0.51834218241E-01  0.89200910571E+00  0.88000000000E+00 0. -1.
        -11    1    4    4    0    0 -0.77526994724E-01 -0.12291445803E-01 -0.18388493513E-01  0.80622033995E-01  0.51100000000E-03 0. -1.
         11    1    4    4    0    0 -0.45195298393E-01 -0.37414733048E-02 -0.14805063209E-01  0.47708119193E-01  0.51100000000E-03 0.  1.
</event>
<event>
 8    1  0.1060404E+005  0.1043930E+01  0.7957747E-01            NaN
         13   -1    0    0    0    0  0.00000000000E+00  0.00000000000E+00  0.74505805969E-08  0.10566000000E+00  0.10566000000E+00 0.  1.
     999900   -1    0    0    0    0 -0.00000000000E+00 -0.00000000000E+00 -0.74505805969E-08  0.93827000000E+00  0.93827000000E+00 0.  1.
     999902    2    1    2    0    0 -0.52693066603E-02 -0.78079468141E-02 -0.21553056098E-01  0.10204084385E+01  0.10201373033E+01 0.  0.
     999903    2    3    3    0    0 -0.70505080629E-01 -0.79996051593E-01 -0.76848199583E-01  0.13332085461E+00  0.22326437915E-01 0.  0.
         14    1    1    2    0    0  0.52693066603E-02  0.78079468141E-02  0.21553056098E-01  0.23521561455E-01  0.00000000000E+00 0.  1.
     999901    1    3    3    0    0  0.65235773969E-01  0.72188104779E-01  0.55295143485E-01  0.88708758393E+00  0.88000000000E+00 0.  1.
        -11    1    4    4    0    0 -0.45656833870E-02 -0.66387184093E-02 -0.14598375352E-01  0.16682078133E-01  0.51100000000E-03 0.  1.
         11    1    4    4    0    0 -0.65939397242E-01 -0.73357333184E-01 -0.62249824231E-01  0.11663877648E+00  0.51100000000E-03 0. -1.
</event>
<event>
 8    1  0.1060404E+005  0.1043930E+01  0.7957747E-01            NaN
         13   -1    0    0    0    0  0.00000000000E+00  0.00000000000E+00  0.74505805969E-08  0.10566000000E+00  0.10566000000E+00 0. -1.
     999900   -1    0    0    0    0 -0.00000000000E+00 -0.00000000000E+00 -0.74505805969E-08  0.93827000000E+00  0.93827000000E+00 0.  1.
     999902    2    1    2    0    0  0.23742637581E-02 -0.23939616235E-01 -0.12478369415E-02  0.10198405946E+01  0.10195560500E+01 0.  0.
     999903    2    3    3    0    0  0.42658537893E-01  0.10636051959E+00  0.53010284506E-01  0.12768315792E+00  0.18989143478E-01 0.  0.
         14    1    1    2    0    0 -0.23742637581E-02  0.23939616235E-01  0.12478369415E-02  0.24089405367E-01  0.00000000000E+00 0. -1.
     999901    1    3    3    0    0 -0.40284274135E-01 -0.13030013583E+00 -0.54258121448E-01  0.89215743671E+00  0.88000000000E+00 0.  1.
        -11    1    4    4    0    0  0.25350361116E-01  0.77709085556E-01  0.30054480973E-01  0.87091192059E-01  0.51100000000E-03 0.  1.
         11    1    4    4    0    0  0.17308176777E-01  0.28651434036E-01  0.22955803533E-01  0.40591965862E-01  0.51100000000E-03 0. -1.
</event>
<event>
 8    1  0.1060404E+005  0.1043930E+01  0.7957747E-01            NaN
         13   -1    0    0    0    0  0.00000000000E+00  0.00000000000E+00  0.74505805969E-08  0.10566000000E+00  0.10566000000E+00 0.  1.
     999900   -1    0    0    0    0 -0.00000000000E+00 -0.00000000000E+00 -0.74505805969E-08  0.93827000000E+00  0.93827000000E+00 0. -1.
     999902    2    1    2    0    0 -0.15573943890E-01  0.15986606387E-01  0.69873496620E-02  0.10205432010E+01  0.10202751995E+01 0.  0.
     999903    2    3    3    0    0 -0.58403048894E-01  0.11832513770E+00  0.14667018294E-02  0.13356068439E+00  0.20604632186E-01 0.  0.
         14    1    1    2    0    0  0.15573943890E-01 -0.15986606387E-01 -0.69873496620E-02  0.23386798998E-01  0.00000000000E+00 0.  1.
     999901    1    3    3    0    0  0.42829105004E-01 -0.10233853131E+00  0.55206478327E-02  0.88698251661E+00  0.88000000000E+00 0.  1.
        -11    1    4    4    0    0 -0.11735562992E-01  0.45133323650E-01  0.31024707441E-02  0.46739991315E-01  0.51100000000E-03 0.  1.
         11    1    4    4    0    0 -0.46667485902E-01  0.73191814052E-01 -0.16357689148E-02  0.86820693073E-01  0.51100000000E-03 0. -1.
</event>
<event>
 8    1  0.1060404E+005  0.1043930E+01  0.7957747E-01            NaN
         13   -1    0    0    0    0  0.00000000000E+00  0.00000000000E+00  0.74505805969E-08  0.10566000000E+00  0.10566000000E+00 0.  1.
     999900   -1    0    0    0    0 -0.00000000000E+00 -0.00000000000E+00 -0.74505805969E-08  0.93827000000E+00  0.93827000000E+00 0.  1.
     999902    2    1    2    0    0 -0.13164197983E-01  0.14460900667E-02 -0.19974823994E-01  0.10199637554E+01  0.10196821473E+01 0.  0.
     999903    2    3    3    0    0  0.49892382573E-01  0.11812853129E+00 -0.18881096077E-03  0.12980511185E+00  0.20142782058E-01 0.  0.
         14    1    1    2    0    0  0.13164197983E-01 -0.14460900667E-02  0.19974823994E-01  0.23966244566E-01  0.00000000000E+00 0.  1.
     999901    1    3    3    0    0 -0.63056580555E-01 -0.11668244122E+00 -0.19786013033E-01  0.89015864359E+00  0.88000000000E+00 0.  1.
        -11    1    4    4    0    0  0.38686501990E-01  0.72986765564E-01  0.62663899009E-02  0.82844686897E-01  0.51100000000E-03 0. -1.
         11    1    4    4    0    0  0.11205880583E-01  0.45141765724E-01 -0.64552008617E-02  0.46960424950E-01  0.51100000000E-03 0.  1.
</event>
<event>
 8    1  0.1060404E+005  0.1043930E+01  0.7957747E-01            NaN
         13   -1    0    0    0    0  0.00000000000E+00  0.00000000000E+00  0.74505805969E-08  0.10566000000E+00  0.10566000000E+00 0.  1.
     999900   -1    0    0    0    0 -0.00000000000E+00 -0.00000000000E+00 -0.74505805969E-08  0.93827000000E+00  0.93827000000E+00 0. -1.
     999902    2    1    2    0    0  0.15921055923E-01  0.92151010023E-02  0.15242133920E-01  0.10200402375E+01  0.10197604450E+01 0.  0.
     999903    2    3    3    0    0  0.11809713090E+00 -0.41761185590E-01 -0.33887646859E-01  0.13130390566E+00  0.20035320853E-01 0.  0.
         14    1    1    2    0    0 -0.15921055923E-01 -0.92151010023E-02 -0.15242133920E-01  0.23889762549E-01  0.00000000000E+00 0. -1.
     999901    1    3    3    0    0 -0.10217607498E+00  0.50976286593E-01  0.49129780779E-01  0.88873633179E+00  0.88000000000E+00 0. -1.
        -11    1    4    4    0    0  0.11867028368E-01 -0.10511947274E-01 -0.14991966046E-02  0.15932234911E-01  0.51100000000E-03 0. -1.
         11    1    4    4    0    0  0.10623010253E+00 -0.31249238316E-01 -0.32388450254E-01  0.11537167075E+00  0.51100000000E-03 0.  1.
</event>
<event>
 8    1  0.1060404E+005  0.1043930E+01  0.7957747E-01            NaN
         13   -1    0    0    0    0  0.00000000000E+00  0.00000000000E+00  0.74505805969E-08  0.10566000000E+00  0.10566000000E+00 0. -1.
     999900   -1    0    0    0    0 -0.00000000000E+00 -0.00000000000E+00 -0.74505805969E-08  0.93827000000E+00  0.93827000000E+00 0. -1.
     999902    2    1    2    0    0 -0.29314786624E-02  0.21914836006E-03  0.23372371627E-01  0.10203734861E+01  0.10201015350E+01 0.  0.
     999903    2    3    3    0    0  0.71393558913E-01 -0.62331008063E-01 -0.84554000195E-01  0.12847392053E+00  0.19338419948E-01 0.  0.
         14    1    1    2    0    0  0.29314786624E-02 -0.21914836006E-03 -0.23372371627E-01  0.23556513932E-01  0.00000000000E+00 0.  1.
     999901    1    3    3    0    0 -0.74325037575E-01  0.62550156423E-01  0.10792637182E+00  0.89189956554E+00  0.88000000000E+00 0.  1.
        -11    1    4    4    0    0  0.23136082822E-01 -0.13615153174E-01 -0.14801551596E-01  0.30659383147E-01  0.51100000000E-03 0. -1.
         11    1    4    4    0    0  0.48257476091E-01 -0.48715854889E-01 -0.69752448599E-01  0.97814537380E-01  0.51100000000E-03 0.  1.
</event>
<event>
 8    1  0.1060404E+005  0.1043930E+01  0.7957747E-01            NaN
         13   -1    0    0    0    0  0.00000000000E+00  0.00000000000E+00  0.74505805969E-08  0.10566000000E+00  0.10566000000E+00 0.  1.
     999900   -1    0    0    0    0 -0.00000000000E+00 -0.00000000000E+00 -0.74505805969E-08  0.93827000000E+00  0.93827000000E+00 0.  1.
     999902    2    1    2    0    0  0.14862691538E-01 -0.27245423711E-02 -0.17577700176E-01  0.10207503047E+01  0.10204870828E+01 0.  0.
     999903    2    3    3    0    0 -0.71213541201E-01  0.95593607084E-01  0.47336274765E-01  0.12873606686E+00  0.11079072036E-01 0.  0.
         14    1    1    2    0    0 -0.14862691538E-01  0.27245423711E-02  0.17577700176E-01  0.23179695304E-01  0.00000000000E+00 0.  1.
     999901    1    3    3    0    0  0.86076232738E-01 -0.98318149455E-01 -0.64913974941E-01  0.89201423783E+00  0.88000000000E+00 0.  1.
        -11    1    4    4    0    0 -0.60608036443E-01  0.83380935220E-01  0.44627312274E-01  0.11232796874E+00  0.51100000000E-03 0.  1.
         11    1    4    4    0    0 -0.10605504758E-01  0.12212671864E-01  0.27089624907E-02  0.16408098123E-01  0.51100000000E-03 0. -1.
</event>
<event>
 8    1  0.1060404E+005  0.1043930E+01  0.7957747E-01            NaN
         13   -1    0    0    0    0  0.00000000000E+00  0.00000000000E+00  0.74505805969E-08  0.10566000000E+00  0.10566000000E+00 0.  1.
     999900   -1    0    0    0    0 -0.00000000000E+00 -0.00000000000E+00 -0.74505805969E-08  0.93827000000E+00  0.93827000000E+00 0.  1.
     999902    2    1    2    0    0  0.10640736942E-01 -0.21818316667E-01  0.32380513930E-02  0.10194402225E+01  0.10191460239E+01 0.  0.
     999903    2    3    3    0    0 -0.93861154067E-01 -0.75587376058E-01 -0.44413455505E-01  0.13034943801E+00  0.22249793190E-01 0.  0.
         14    1    1    2    0    0 -0.10640736942E-01  0.21818316667E-01 -0.32380513930E-02  0.24489777493E-01  0.00000000000E+00 0.  1.
     999901    1    3    3    0    0  0.10450189101E+00  0.53769059391E-01  0.47651506898E-01  0.88909078450E+00  0.88000000000E+00 0.  1.
        -11    1    4    4    0    0 -0.28611843009E-01 -0.13996906681E-01 -0.18999942252E-01  0.37091911296E-01  0.51100000000E-03 0. -1.
         11    1    4    4    0    0 -0.65249311058E-01 -0.61590469376E-01 -0.25413513253E-01  0.93257526711E-01  0.51100000000E-03 0.  1.
</event>
<event>
 8    1  0.1060404E+005  0.1043930E+01  0.7957747E-01            NaN
         13   -1    0    0    0    0  0.00000000000E+00  0.00000000000E+00  0.74505805969E-08  0.10566000000E+00  0.10566000000E+00 0. -1.
     999900   -1    0    0    0    0 -0.00000000000E+00 -0.00000000000E+00 -0.74505805969E-08  0.93827000000E+00  0.93827000000E+00 0.  1.
     999902    2    1    2    0    0 -0.44015564380E-02 -0.12238048301E-01 -0.15415961921E-01  0.10237608303E+01  0.10235621340E+01 0.  0.
     999903    2    3    3    0    0 -0.11242600130E-01 -0.10961500652E+00  0.73298289116E-01  0.13392978440E+00  0.20559724002E-01 0.  0.
         14    1    1    2    0    0  0.44015564380E-02  0.12238048301E-01  0.15415961921E-01  0.20169169721E-01  0.00000000000E+00 0. -1.
     999901    1    3    3    0    0  0.68410436924E-02  0.97376958217E-01 -0.88714251036E-01  0.88983104588E+00  0.88000000000E+00 0.  1.
        -11    1    4    4    0    0  0.32958025856E-02 -0.57676913563E-01  0.43416195012E-01  0.72268359489E-01  0.51100000000E-03 0.  1.
         11    1    4    4    0    0 -0.14538402716E-01 -0.51938092955E-01  0.29882094103E-01  0.61661424913E-01  0.51100000000E-03 0. -1.
</event>
<event>
 8    1  0.1060404E+005  0.1043930E+01  0.7957747E-01            NaN
         13   -1    0    0    0    0  0.00000000000E+00  0.00000000000E+00  0.74505805969E-08  0.10566000000E+00  0.10566000000E+00 0. -1.
     999900   -1    0    0    0    0 -0.00000000000E+00 -0.00000000000E+00 -0.74505805969E-08  0.93827000000E+00  0.93827000000E+00 0.  1.
     999902    2    1    2    0    0  0.10831260919E-01  0.20272189824E-01  0.34824514306E-02  0.10206833796E+01  0.10204186180E+01 0.  0.
     999903    2    3    3    0    0  0.23733159161E-01 -0.59171191398E-01 -0.11037235780E+00  0.12970603565E+00  0.24023021930E-01 0.  0.
         14    1    1    2    0    0 -0.10831260919E-01 -0.20272189824E-01 -0.34824514306E-02  0.23246620428E-01  0.00000000000E+00 0. -1.
     999901    1    3    3    0    0 -0.12901898242E-01  0.79443381222E-01  0.11385480923E+00  0.89097734392E+00  0.88000000000E+00 0. -1.
        -11    1    4    4    0    0  0.13255080019E-01 -0.20802842148E-01 -0.64116175575E-01  0.68699348462E-01  0.51100000000E-03 0. -1.
         11    1    4    4    0    0  0.10478079142E-01 -0.38368349251E-01 -0.46256182224E-01  0.61006687188E-01  0.51100000000E-03 0.  1.
</event>
<event>
 8    1  0.1060404E+005  0.1043930E+01  0.7957747E-01            NaN
         13   -1    0    0    0    0  0.00000000000E+00  0.00000000000E+00  0.74505805969E-08  0.10566000000E+00  0.10566000000E+00 0.  1.
     999900   -1    0    0    0    0 -0.00000000000E+00 -0.00000000000E+00 -0.74505805969E-08  0.93827000000E+00  0.93827000000E+00 0.  1.
     999902    2    1    2    0    0  0.22426289716E-01  0.31078618608E-02 -0.68028448245E-02  0.10202894422E+01  0.10200155243E+01 0.  0.
     999903    2    3    3    0    0 -0.12443218371E+00 -0.19865623977E-02  0.10498188155E-01  0.12793710700E+00  0.27755659258E-01 0.  0.
         14    1    1    2    0    0 -0.22426289716E-01 -0.31078618608E-02  0.68028448245E-02  0.23640557808E-01  0.00000000000E+00 0. -1.
     999901    1    3    3    0    0  0.14685847343E+00  0.50944242584E-02 -0.17301032979E-01  0.89235233519E+00  0.88000000000E+00 0.  1.
        -11    1    4    4    0    0 -0.23213849263E-02  0.38246885876E-02  0.30928430567E-02  0.54629543235E-02  0.51100000000E-03 0.  1.
         11    1    4    4    0    0 -0.12211079878E+00 -0.58112509852E-02  0.74053450980E-02  0.12247415268E+00  0.51100000000E-03 0. -1.
</event>
<event>
 8    1  0.1060404E+005  0.1043930E+01  0.7957747E-01            NaN
         13   -1    0    0    0    0  0.00000000000E+00  0.00000000000E+00  0.74505805969E-08  0.10566000000E+00  0.10566000000E+00 0.  1.
     999900   -1    0    0    0    0 -0.00000000000E+00 -0.00000000000E+00 -0.74505805969E-08  0.93827000000E+00  0.93827000000E+00 0.  1.
     999902    2    1    2    0    0  0.11124317359E-01 -0.15697343109E-01 -0.13540768361E-01  0.10204032190E+01  0.10201319620E+01 0.  0.
     999903    2    3    3    0    0  0.66598838440E-01 -0.86738066696E-01 -0.74335768808E-01  0.13371260835E+00  0.19858439317E-01 0.  0.
         14    1    1    2    0    0 -0.11124317359E-01  0.15697343109E-01  0.13540768361E-01  0.23526781021E-01  0.00000000000E+00 0. -1.
     999901    1    3    3    0    0 -0.55474521081E-01  0.71040723587E-01  0.60795000446E-01  0.88669061063E+00  0.88000000000E+00 0. -1.
        -11    1    4    4    0    0  0.45027031991E-01 -0.42522342490E-01 -0.40488822324E-01  0.73994520574E-01  0.51100000000E-03 0. -1.
         11    1    4    4    0    0  0.21571806450E-01 -0.44215724206E-01 -0.33846946484E-01  0.59718087777E-01  0.51100000000E-03 0.  1.
</event>
<event>
 8    1  0.1060404E+005  0.1043930E+01  0.7957747E-01            NaN
         13   -1    0    0    0    0  0.00000000000E+00  0.00000000000E+00  0.74505805969E-08  0.10566000000E+00  0.10566000000E+00 0.  1.
     999900   -1    0    0    0    0 -0.00000000000E+00 -0.00000000000E+00 -0.74505805969E-08  0.93827000000E+00  0.93827000000E+00 0. -1.
     999902    2    1    2    0    0  0.17236713754E-01  0.22477269438E-02 -0.19074198146E-01  0.10181233805E+01  0.10177962646E+01 0.  0.
     999903    2    3    3    0    0  0.94874127275E-01 -0.84969511458E-01 -0.19386544209E-01  0.13041030056E+00  0.20250691167E-01 0.  0.
         14    1    1    2    0    0 -0.17236713754E-01 -0.22477269438E-02  0.19074198146E-01  0.25806619545E-01  0.00000000000E+00 0.  1.
     999901    1    3    3    0    0 -0.77637413521E-01  0.87217238402E-01  0.31234606304E-03  0.88771307989E+00  0.88000000000E+00 0.  1.
        -11    1    4    4    0    0  0.31470261844E-01 -0.16135813615E-01 -0.58540283394E-02  0.35850699162E-01  0.51100000000E-03 0. -1.
         11    1    4    4    0    0  0.63403865430E-01 -0.68833697843E-01 -0.13532515870E-01  0.94559601400E-01  0.51100000000E-03 0.  1.
</event>
<event>
 8    1  0.1060404E+005  0.1043930E+01  0.7957747E-01            NaN
         13   -1    0    0    0    0  0.00000000000E+00  0.00000000000E+00  0.74505805969E-08  0.10566000000E+00  0.10566000000E+00 0.  1.
     999900   -1    0    0    0    0 -0.00000000000E+00 -0.00000000000E+00 -0.74505805969E-08  0.93827000000E+00  0.93827000000E+00 0.  1.
     999902    2    1    2    0    0 -0.15082662968E-01 -0.44409277724E-02  0.18110548237E-01  0.10199466616E+01  0.10196646469E+01 0.  0.
     999903    2    3    3    0    0  0.35950596291E-01 -0.23778206165E-01 -0.11864313147E+00  0.12771356832E+00  0.19409132587E-01 0.  0.
         14    1    1    2    0    0  0.15082662968E-01  0.44409277724E-02 -0.18110548237E-01  0.23983338365E-01  0.00000000000E+00 0.  1.
     999901    1    3    3    0    0 -0.51033259259E-01  0.19337278393E-01  0.13675367970E+00  0.89223309331E+00  0.88000000000E+00 0. -1.
        -11    1    4    4    0    0  0.19622136169E-01 -0.70668388597E-02 -0.78872356004E-01  0.81584790873E-01  0.51100000000E-03 0. -1.
         11    1    4    4    0    0  0.16328460122E-01 -0.16711367305E-01 -0.39770775464E-01  0.46128777451E-01  0.51100000000E-03 0.  1.
</event>
<event>
 8    1  0.1060404E+005  0.1043930E+01  0.7957747E-01            NaN
         13   -1    0    0    0    0  0.00000000000E+00  0.00000000000E+00  0.74505805969E-08  0.10566000000E+00  0.10566000000E+00 0.  1.
     999900   -1    0    0    0    0 -0.00000000000E+00 -0.00000000000E+00 -0.74505805969E-08  0.93827000000E+00  0.93827000000E+00 0. -1.
     999902    2    1    2    0    0 -0.59252880585E-03  0.20048430844E-01 -0.12754693765E-01  0.10201608418E+01  0.10198839004E+01 0.  0.
     999903    2    3    3    0    0 -0.29985263088E-01  0.12650972464E+00 -0.19167329982E-01  0.13323409068E+00  0.21911411418E-01 0.  0.
         14    1    1    2    0    0  0.59252880585E-03 -0.20048430844E-01  0.12754693765E-01  0.23769158225E-01  0.00000000000E+00 0.  1.
     999901    1    3    3    0    0  0.29392734282E-01 -0.10646129379E+00  0.64126362167E-02  0.88692675110E+00  0.88000000000E+00 0. -1.
        -11    1    4    4    0    0 -0.12611209021E-01  0.35668501747E-01 -0.14845505645E-01  0.40644000402E-01  0.51100000000E-03 0.  1.
         11    1    4    4    0    0 -0.17374054067E-01  0.90841222891E-01 -0.43218243364E-02  0.92590090278E-01  0.51100000000E-03 0. -1.
</event>
<event>
 8    1  0.1060404E+005  0.1043930E+01  0.7957747E-01            NaN
         13   -1    0    0    0    0  0.00000000000E+00  0.00000000000E+00  0.74505805969E-08  0.10566000000E+00  0.10566000000E+00 0. -1.
     999900   -1    0    0    0    0 -0.00000000000E+00 -0.00000000000E+00 -0.74505805969E-08  0.93827000000E+00  0.93827000000E+00 0. -1.
     999902    2    1    2    0    0  0.65877197756E-02 -0.18125455631E-01  0.13832434361E-01  0.10201967652E+01  0.10199206701E+01 0.  0.
     999903    2    3    3    0    0  0.57232735685E-01 -0.61413490558E-01  0.10160855856E+00  0.13332393351E+00  0.20094009506E-01 0.  0.
         14    1    1    2    0    0 -0.65877197756E-02  0.18125455631E-01 -0.13832434361E-01  0.23733234799E-01  0.00000000000E+00 0. -1.
     999901    1    3    3    0    0 -0.50645015909E-01  0.43288034927E-01 -0.87776124201E-01  0.88687283169E+00  0.88000000000E+00 0. -1.
        -11    1    4    4    0    0  0.35175927247E-01 -0.42403997144E-01  0.51785513884E-01  0.75613791075E-01  0.51100000000E-03 0. -1.
         11    1    4    4    0    0  0.22056808438E-01 -0.19009493414E-01  0.49823044679E-01  0.57710142439E-01  0.51100000000E-03 0.  1.
</event>
<event>
 8    1  0.1060404E+005  0.1043930E+01  0.7957747E-01            NaN
         13   -1    0    0    0    0  0.00000000000E+00  0.00000000000E+00  0.74505805969E-08  0.10566000000E+00  0.10566000000E+00 0. -1.
     999900   -1    0    0    0    0 -0.00000000000E+00 -0.00000000000E+00 -0.74505805969E-08  0.93827000000E+00  0.93827000000E+00 0. -1.
     999902    2    1    2    0    0  0.13916640195E-01 -0.16781546805E-01 -0.75040221638E-02  0.10208734709E+01  0.10206130706E+01 0.  0.
     999903    2    3    3    0    0 -0.10511930818E+00  0.70325452537E-01 -0.11631406964E-01  0.12858751801E+00  0.20092832898E-01 0.  0.
         14    1    1    2    0    0 -0.13916640195E-01  0.16781546805E-01  0.75040221638E-02  0.23056529143E-01  0.00000000000E+00 0.  1.
     999901    1    3    3    0    0  0.11903594837E+00 -0.87106999342E-01  0.41273848001E-02  0.89228595285E+00  0.88000000000E+00 0.  1.
        -11    1    4    4    0    0 -0.81776118641E-01  0.47913478878E-01 -0.19286884967E-02  0.94799873410E-01  0.51100000000E-03 0. -1.
         11    1    4    4    0    0 -0.23343189538E-01  0.22411973659E-01 -0.97027184672E-02  0.33787644602E-01  0.51100000000E-03 0.  1.
</event>
<event>
 8    1  0.1060404E+005  0.1043930E+01  0.7957747E-01            NaN
         13   -1    0    0    0    0  0.00000000000E+00  0.00000000000E+00  0.74505805969E-08  0.10566000000E+00  0.10566000000E+00 0. -1.
     999900   -1    0    0    0    0 -0.00000000000E+00 -0.00000000000E+00 -0.74505805969E-08  0.93827000000E+00  0.93827000000E+00 0.  1.
     999902    2    1    2    0    0 -0.17122147745E-01  0.13608711453E-02  0.16382885773E-01  0.10201935542E+01  0.10199173835E+01 0.  0.
     999903    2    3    3    0    0 -0.56532058221E-01  0.20800923283E-02 -0.11487943863E+00  0.12958507897E+00  0.19869747886E-01 0.  0.
         14    1    1    2    0    0  0.17122147745E-01 -0.13608711453E-02 -0.16382885773E-01  0.23736445815E-01  0.00000000000E+00 0.  1.
     999901    1    3    3    0    0  0.39409910476E-01 -0.71922118294E-03  0.13126232440E+00  0.89060847522E+00  0.88000000000E+00 0. -1.
        -11    1    4    4    0    0 -0.11915312272E-01 -0.69855860721E-02 -0.35164251649E-01  0.37783049034E-01  0.51100000000E-03 0. -1.
         11    1    4    4    0    0 -0.44616745950E-01  0.90656784004E-02 -0.79715186977E-01  0.91802029933E-01  0.51100000000E-03 0.  1.
</event>
<event>
 8    1  0.1060404E+005  0.1043930E+01  0.7957747E-01            NaN
         13   -1    0    0    0    0  0.00000000000E+00  0.00000000000E+00  0.74505805969E-08  0.10566000000E+00  0.10566000000E+00 0. -1.
     999900   -1    0    0    0    0 -0.00000000000E+00 -0.00000000000E+00 -0.74505805969E-08  0.93827000000E+00  0.93827000000E+00 0.  1.
     999902    2    1    2    0    0  0.27645245980E-01  0.64863853852E-02 -0.32942111792E-02  0.10153435583E+01  0.10149410607E+01 0.  0.
     999903    2    3    3    0    0 -0.72989035619E-01  0.12866488690E-01  0.97362507835E-01  0.12388422698E+00  0.19362280614E-01 0.  0.
         14    1    1    2    0    0 -0.27645245980E-01 -0.64863853852E-02  0.32942111792E-02  0.28586441680E-01  0.00000000000E+00 0.  1.
     999901    1    3    3    0    0  0.10063428160E+00 -0.63801033043E-02 -0.10065671901E+00  0.89145933134E+00  0.88000000000E+00 0.  1.
        -11    1    4    4    0    0 -0.42510499948E-01  0.12478313983E-01  0.44093291026E-01  0.62508642284E-01  0.51100000000E-03 0.  1.
         11    1    4    4    0    0 -0.30478535671E-01  0.38817470635E-03  0.53269216809E-01  0.61375584695E-01  0.51100000000E-03 0. -1.
</event>
<event>
 8    1  0.1060404E+005  0.1043930E+01  0.7957747E-01            NaN
         13   -1    0    0    0    0  0.00000000000E+00  0.00000000000E+00  0.74505805969E-08  0.10566000000E+00  0.10566000000E+00 0. -1.
     999900   -1    0    0    0    0 -0.00000000000E+00 -0.00000000000E+00 -0.74505805969E-08  0.93827000000E+00  0.93827000000E+00 0.  1.
     999902    2    1    2    0    0  0.47101094162E-02 -0.17043128987E-01 -0.15168396434E-01  0.10206333559E+01  0.10203674404E+01 0.  0.
     999903    2    3    3    0    0  0.48553064426E-01 -0.10396205995E+00  0.61917660193E-01  0.13191553487E+00  0.20059953213E-01 0.  0.
         14    1    1    2    0    0 -0.47101094162E-02  0.17043128987E-01  0.15168396434E-01  0.23296644110E-01  0.00000000000E+00 0. -1.
     999901    1    3    3    0    0 -0.43842955010E-01  0.86918930964E-01 -0.77086056627E-01  0.88871782102E+00  0.88000000000E+00 0.  1.
        -11    1    4    4    0    0  0.13483083901E-02 -0.14035661008E-01  0.27547439305E-02  0.14375933033E-01  0.51100000000E-03 0.  1.
         11    1    4    4    0    0  0.47204756036E-01 -0.89926398944E-01  0.59162916263E-01  0.11753960184E+00  0.51100000000E-03 0. -1.
</event>
<event>
 8    1  0.1060404E+005  0.1043930E+01  0.7957747E-01            NaN
         13   -1    0    0    0    0  0.00000000000E+00  0.00000000000E+00  0.74505805969E-08  0.10566000000E+00  0.10566000000E+00 0.  1.
     999900   -1    0    0    0    0 -0.00000000000E+00 -0.00000000000E+00 -0.74505805969E-08  0.93827000000E+00  0.93827000000E+00 0.  1.
     999902    2    1    2    0    0 -0.99451858519E-02  0.19040106422E-01 -0.98894697649E-02  0.10202818714E+01  0.10200077760E+01 0.  0.
     999903    2    3    3    0    0  0.81717888770E-01 -0.93676550405E-01 -0.24926809568E-01  0.12824303504E+00  0.19282654409E-01 0.  0.
         14    1    1    2    0    0  0.99451858519E-02 -0.19040106422E-01  0.98894697649E-02  0.23648128603E-01  0.00000000000E+00 0. -1.
     999901    1    3    3    0    0 -0.91663074622E-01  0.11271665683E+00  0.15037339803E-01  0.89203883635E+00  0.88000000000E+00 0. -1.
        -11    1    4    4    0    0  0.75745172854E-01 -0.86887698462E-01 -0.17624389398E-01  0.11660910589E+00  0.51100000000E-03 0. -1.
         11    1    4    4    0    0  0.59727159160E-02 -0.67888519430E-02 -0.73024201697E-02  0.11633929149E-01  0.51100000000E-03 0.  1.
</event>
<event>
 8    1  0.1060404E+005  0.1043930E+01  0.7957747E-01            NaN
         13   -1    0    0    0    0  0.00000000000E+00  0.00000000000E+00  0.74505805969E-08  0.10566000000E+00  0.10566000000E+00 0.  1.
     999900   -1    0    0    0    0 -0.00000000000E+00 -0.00000000000E+00 -0.74505805969E-08  0.93827000000E+00  0.93827000000E+00 0. -1.
     999902    2    1    2    0    0 -0.11894761732E-01  0.84030851982E-02 -0.18202715651E-01  0.10206182850E+01  0.10203520215E+01 0.  0.
     999903    2    3    3    0    0 -0.12278655675E+00 -0.43808849922E-01 -0.16203777036E-02  0.13196871951E+00  0.20429475148E-01 0.  0.
         14    1    1    2    0    0  0.11894761732E-01 -0.84030851982E-02  0.18202715651E-01  0.23311714965E-01  0.00000000000E+00 0.  1.
     999901    1    3    3    0    0  0.11089179502E+00  0.52211935120E-01 -0.16582337948E-01  0.88864956552E+00  0.88000000000E+00 0. -1.
        -11    1    4    4    0    0 -0.17658658108E-01 -0.14906115353E-02 -0.55396323751E-02  0.18574142693E-01  0.51100000000E-03 0. -1.
         11    1    4    4    0    0 -0.10512789865E+00 -0.42318238387E-01  0.39192546715E-02  0.11339457682E+00  0.51100000000E-03 0.  1.
</event>
<event>
 8    1  0.1060404E+005  0.1043930E+01  0.7957747E-01            NaN
         13   -1    0    0    0    0  0.00000000000E+00  0.00000000000E+00  0.74505805969E-08  0.10566000000E+00  0.10566000000E+00 0.  1.
     999900   -1    0    0    0    0 -0.00000000000E+00 -0.00000000000E+00 -0.74505805969E-08  0.93827000000E+00  0.93827000000E+00 0. -1.
     999902    2    1    2    0    0  0.83048881410E-02  0.22691007653E-01  0.21151436704E-02  0.10196745505E+01  0.10193860222E+01 0.  0.
     999903    2    3    3    0    0  0.10878302494E+00 -0.66153647362E-01 -0.14542353755E-01  0.12935623617E+00  0.17649481818E-01 0.  0.
         14    1    1    2    0    0 -0.83048881410E-02 -0.22691007653E-01 -0.21151436704E-02  0.24255449452E-01  0.00000000000E+00 0. -1.
     999901    1    3    3    0    0 -0.10047813680E+00  0.88844655016E-01  0.16657497425E-01  0.89031831438E+00  0.88000000000E+00 0.  1.
        -11    1    4    4    0    0  0.51540232395E-02 -0.53304113031E-02 -0.46978655753E-02  0.87925139850E-02  0.51100000000E-03 0. -1.
         11    1    4    4    0    0  0.10362900170E+00 -0.60823236059E-01 -0.98444881795E-02  0.12056372218E+00  0.51100000000E-03 0.  1.
</event>
<event>
 8    1  0.1060404E+005  0.1043930E+01  0.7957747E-01            NaN
         13   -1    0    0    0    0  0.00000000000E+00  0.00000000000E+00  0.74505805969E-08  0.10566000000E+00  0.10566000000E+00 0.  1.
     999900   -1    0    0    0    0 -0.00000000000E+00 -0.00000000000E+00 -0.74505805969E-08  0.93827000000E+00  0.93827000000E+00 0. -1.
     999902    2    1    2    0    0 -0.33299302139E-02  0.14069725010E-01 -0.18029420148E-01  0.10208192755E+01  0.10205576356E+01 0.  0.
     999903    2    3    3    0    0 -0.12625044618E+00  0.30915397333E-01 -0.12864443517E-01  0.13210114980E+00  0.19755579472E-01 0.  0.
         14    1    1    2    0    0  0.33299302139E-02 -0.14069725010E-01  0.18029420148E-01  0.23110724523E-01  0.00000000000E+00 0.  1.
     999901    1    3    3    0    0  0.12292051596E+00 -0.16845672323E-01 -0.51649766309E-02  0.88871812568E+00  0.88000000000E+00 0.  1.
        -11    1    4    4    0    0 -0.68827010364E-01  0.67337419757E-02 -0.74143372251E-02  0.69553821996E-01  0.51100000000E-03 0. -1.
         11    1    4    4    0    0 -0.57423435811E-01  0.24181655357E-01 -0.54501062922E-02  0.62547327806E-01  0.51100000000E-03 0.  1.
</event>
<event>
 7    1  0.1060404E+005  0.1043930E+01  0.7957747E-01            NaN
         13   -1    0    0    0    0  0.00000000000E+00  0.00000000000E+00  0.74505805969E-08  0.10566000000E+00  0.10566000000E+00 0.  1.
     999900   -1    0    0    0    0 -0.00000000000E+00 -0.00000000000E+00 -0.74505805969E-08  0.93827000000E+00  0.93827000000E+00 0. -1.
     999902    2    1    2    0    0 -0.20112230673E-01 -0.13788918811E-02 -0.12256033566E-01  0.10203373417E+01  0.10200645457E+01 0.  0.
         14    1    1    2    0    0  0.20112230673E-01  0.13788918811E-02  0.12256033566E-01  0.23592658270E-01  0.00000000000E+00 0. -1.
     999901    1    3    3    0    0  0.52068552828E-01  0.10330915781E+00  0.26344521446E-02  0.88757583148E+00  0.88000000000E+00 0.  1.
        -11    1    3    3    0    0 -0.13173954378E-01 -0.49086559578E-01 -0.46160957972E-02  0.51035407969E-01  0.51100000000E-03 0. -1.
         11    1    3    3    0    0 -0.59006829123E-01 -0.55601490112E-01 -0.10274389913E-01  0.81726102286E-01  0.51100000000E-03 0.  1.
</event>
<event>
 8    1  0.1060404E+005  0.1043930E+01  0.7957747E-01            NaN
         13   -1    0    0    0    0  0.00000000000E+00  0.00000000000E+00  0.74505805969E-08  0.10566000000E+00  0.10566000000E+00 0.  1.
     999900   -1    0    0    0    0 -0.00000000000E+00 -0.00000000000E+00 -0.74505805969E-08  0.93827000000E+00  0.93827000000E+00 0. -1.
     999902    2    1    2    0    0  0.12938443337E-01 -0.17097775855E-01 -0.10861103198E-01  0.10198945924E+01  0.10196113371E+01 0.  0.
     999903    2    3    3    0    0  0.44457136939E-01 -0.52210699376E-01 -0.11196964999E+00  0.13284933783E+00  0.20232397033E-01 0.  0.
         14    1    1    2    0    0 -0.12938443337E-01  0.17097775855E-01  0.10861103198E-01  0.24035407586E-01  0.00000000000E+00 0.  1.
     999901    1    3    3    0    0 -0.31518693602E-01  0.35112923521E-01  0.10110854679E+00  0.88704525458E+00  0.88000000000E+00 0. -1.
        -11    1    4    4    0    0  0.80084202451E-02 -0.38918011017E-02 -0.27665006356E-01  0.29067070859E-01  0.51100000000E-03 0.  1.
         11    1    4    4    0    0  0.36448716694E-01 -0.48318898274E-01 -0.84304643631E-01  0.10378226697E+00  0.51100000000E-03 0. -1.
</event>
<event>
 8    1  0.1060404E+005  0.1043930E+01  0.7957747E-01            NaN
         13   -1    0    0    0    0  0.00000000000E+00  0.00000000000E+00  0.74505805969E-08  0.10566000000E+00  0.10566000000E+00 0.  1.
     999900   -1    0    0    0    0 -0.00000000000E+00 -0.00000000000E+00 -0.74505805969E-08  0.93827000000E+00  0.93827000000E+00 0.  1.
     999902    2    1    2    0    0  0.12937872897E-02  0.17900458397E-01 -0.15405455052E-01  0.10202777624E+01  0.10200035707E+01 0.  0.
     999903    2    3    3    0    0 -0.12708873528E+00 -0.77576538955E-02 -0.21070303353E-01  0.13057415936E+00  0.19847558526E-01 0.  0.
         14    1    1    2    0    0 -0.12937872897E-02 -0.17900458397E-01  0.15405455052E-01  0.23652237563E-01  0.00000000000E+00 0. -1.
     999901    1    3    3    0    0  0.12838252257E+00  0.25658112293E-01  0.56648483008E-02  0.88970360308E+00  0.88000000000E+00 0. -1.
        -11    1    4    4    0    0 -0.18588223460E-01 -0.37370405729E-02 -0.99816961805E-02  0.21433219620E-01  0.51100000000E-03 0.  1.
         11    1    4    4    0    0 -0.10850051182E+00 -0.40206133225E-02 -0.11088607173E-01  0.10914093974E+00  0.51100000000E-03 0. -1.
</event>
<event>
 8    1  0.1060404E+005  0.1043930E+01  0.7957747E-01            NaN
         13   -1    0    0    0    0  0.00000000000E+00  0.00000000000E+00  0.74505805969E-08  0.10566000000E+00  0.10566000000E+00 0.  1.
     999900   -1    0    0    0    0 -0.00000000000E+00 -0.00000000000E+00 -0.74505805969E-08  0.93827000000E+00  0.93827000000E+00 0. -1.
     999902    2    1    2    0    0  0.17182915966E-01 -0.11635644438E-01 -0.11439619560E-01  0.10202338881E+01  0.10199586662E+01 0.  0.
     999903    2    3    3    0    0 -0.80514871584E-01  0.20377314174E-01  0.94949269771E-01  0.12788402232E+00  0.21001901265E-01 0.  0.
         14    1    1    2    0    0 -0.17182915966E-01  0.11635644438E-01  0.11439619560E-01  0.23696111881E-01  0.00000000000E+00 0. -1.
     999901    1    3    3    0    0  0.97697787550E-01 -0.32012958612E-01 -0.10638888933E+00  0.89234986579E+00  0.88000000000E+00 0. -1.
        -11    1    4    4    0    0 -0.79720570405E-02  0.81897608190E-02  0.18795938405E-01  0.22003960945E-01  0.51100000000E-03 0. -1.
         11    1    4    4    0    0 -0.72542814543E-01  0.12187553355E-01  0.76153331366E-01  0.10588006138E+00  0.51100000000E-03 0.  1.
</event>
<event>
 8    1  0.1060404E+005  0.1043930E+01  0.7957747E-01            NaN
         13   -1    0    0    0    0  0.00000000000E+00  0.00000000000E+00  0.74505805969E-08  0.10566000000E+00  0.10566000000E+00 0.  1.
     999900   -1    0    0    0    0 -0.00000000000E+00 -0.00000000000E+00 -0.74505805969E-08  0.93827000000E+00  0.93827000000E+00 0.  1.
     999902    2    1    2    0    0 -0.54089034623E-03  0.19600891237E-01  0.12769307109E-01  0.10205303696E+01  0.10202620705E+01 0.  0.
     999903    2    3    3    0    0 -0.11358836507E+00 -0.54820708045E-01  0.24581242667E-01  0.13010472541E+00  0.20380759891E-01 0.  0.
         14    1    1    2    0    0  0.54089034623E-03 -0.19600891237E-01 -0.12769307109E-01  0.23399630418E-01  0.00000000000E+00 0. -1.
     999901    1    3    3    0    0  0.11304747472E+00  0.74421599282E-01 -0.11811935558E-01  0.89042564417E+00  0.88000000000E+00 0.  1.
        -11    1    4    4    0    0 -0.99060925552E-01 -0.47723525103E-01  0.14170585340E-01  0.11086779708E+00  0.51100000000E-03 0.  1.
         11    1    4    4    0    0 -0.14527439514E-01 -0.70971829421E-02  0.10410657327E-01  0.19236928329E-01  0.51100000000E-03 0. -1.
</event>
<event>
 8    1  0.1060404E+005  0.1043930E+01  0.7957747E-01            NaN
         13   -1    0    0    0    0  0.00000000000E+00  0.00000000000E+00  0.74505805969E-08  0.10566000000E+00  0.10566000000E+00 0. -1.
     999900   -1    0    0    0    0 -0.00000000000E+00 -0.00000000000E+00 -0.74505805969E-08  0.93827000000E+00  0.93827000000E+00 0. -1.
     999902    2    1    2    0    0  0.15039312996E-01 -0.12569160435E-01 -0.13131296072E-01  0.10203377202E+01  0.10200649330E+01 0.  0.
     999903    2    3    3    0    0  0.64973721610E-01 -0.11235293075E+00 -0.23990163258E-01  0.13322546069E+00  0.18130909941E-01 0.  0.
         14    1    1    2    0    0 -0.15039312996E-01  0.12569160435E-01  0.13131296072E-01  0.23592279796E-01  0.00000000000E+00 0. -1.
     999901    1    3    3    0    0 -0.49934408615E-01  0.99783770314E-01  0.10858867186E-01  0.88711225951E+00  0.88000000000E+00 0. -1.
        -11    1    4    4    0    0  0.32988121771E-01 -0.43562291969E-01 -0.16005744254E-01  0.56941500065E-01  0.51100000000E-03 0. -1.
         11    1    4    4    0    0  0.31985599839E-01 -0.68790638781E-01 -0.79844190045E-02  0.76283960626E-01  0.51100000000E-03 0.  1.
</event>
<event>
 8    1  0.1060404E+005  0.1043930E+01  0.7957747E-01            NaN
         13   -1    0    0    0    0  0.00000000000E+00  0.00000000000E+00  0.74505805969E-08  0.10566000000E+00  0.10566000000E+00 0. -1.
     999900   -1    0    0    0    0 -0.00000000000E+00 -0.00000000000E+00 -0.74505805969E-08  0.93827000000E+00  0.93827000000E+00 0. -1.
     999902    2    1    2    0    0  0.74574624987E-02  0.28305294230E-02  0.20204174589E-01  0.10222082525E+01  0.10219774348E+01 0.  0.
     999903    2    3    3    0    0  0.35594808591E-01  0.10895620764E+00  0.66540900337E-01  0.13417589837E+00  0.20905375034E-01 0.  0.
         14    1    1    2    0    0 -0.74574624987E-02 -0.28305294230E-02 -0.20204174589E-01  0.21721747502E-01  0.00000000000E+00 0.  1.
     999901    1    3    3    0    0 -0.28137346092E-01 -0.10612567821E+00 -0.46336725749E-01  0.88803235413E+00  0.88000000000E+00 0. -1.
        -11    1    4    4    0    0  0.10420762527E-01  0.58693086739E-01  0.41487291769E-01  0.72628694205E-01  0.51100000000E-03 0.  1.
         11    1    4    4    0    0  0.25174046064E-01  0.50263120897E-01  0.25053608568E-01  0.61547204167E-01  0.51100000000E-03 0. -1.
</event>
<event>
 8    1  0.1060404E+005  0.1043930E+01  0.7957747E-01            NaN
         13   -1    0    0    0    0  0.00000000000E+00  0.00000000000E+00  0.74505805969E-08  0.10566000000E+00  0.10566000000E+00 0. -1.
     999900   -1    0    0    0    0 -0.00000000000E+00 -0.00000000000E+00 -0.74505805969E-08  0.93827000000E+00  0.93827000000E+00 0. -1.
     999902    2    1    2    0    0  0.12665981231E-02 -0.23998700821E-01 -0.50818237024E-02  0.10193664733E+01  0.10190704784E+01 0.  0.
     999903    2    3    3    0    0  0.65945550216E-01 -0.59034246145E-01 -0.95409876624E-01  0.13168972277E+00  0.20131585013E-01 0.  0.
         14    1    1    2    0    0 -0.12665981231E-02  0.23998700821E-01  0.50818237024E-02  0.24563526702E-01  0.00000000000E+00 0.  1.
     999901    1    3    3    0    0 -0.64678952093E-01  0.35035545323E-01  0.90328052922E-01  0.88767675053E+00  0.88000000000E+00 0.  1.
        -11    1    4    4    0    0  0.83825199994E-02 -0.37073322806E-02 -0.19352188388E-01  0.21419133283E-01  0.51100000000E-03 0. -1.
         11    1    4    4    0    0  0.57563030216E-01 -0.55326913864E-01 -0.76057688236E-01  0.11027058949E+00  0.51100000000E-03 0.  1.
</event>
<event>
 8    1  0.1060404E+005  0.1043930E+01  0.7957747E-01            NaN
         13   -1    0    0    0    0  0.00000000000E+00  0.00000000000E+00  0.74505805969E-08  0.10566000000E+00  0.10566000000E+00 0. -1.
     999900   -1    0    0    0    0 -0.00000000000E+00 -0.00000000000E+00 -0.74505805969E-08  0.93827000000E+00  0.93827000000E+00 0.  1.
     999902    2    1    2    0    0 -0.39234236700E-02  0.16712666077E-01  0.16114480454E-01  0.10203846620E+01  0.10201129719E+01 0.  0.
     999903    2    3    3    0    0  0.92388969745E-02  0.12240912841E+00 -0.44284723905E-01  0.13190672040E+00  0.19206618138E-01 0.  0.
         14    1    1    2    0    0  0.39234236700E-02 -0.16712666077E-01 -0.16114480454E-01  0.23545337989E-01  0.00000000000E+00 0.  1.
     999901    1    3    3    0    0 -0.13162320645E-01 -0.10569646234E+00  0.60399204358E-01  0.88847794161E+00  0.88000000000E+00 0.  1.
        -11    1    4    4    0    0  0.69653375179E-02  0.69463291539E-01 -0.35024802387E-01  0.78106739155E-01  0.51100000000E-03 0. -1.
         11    1    4    4    0    0  0.22735594566E-02  0.52945836874E-01 -0.92599215176E-02  0.53799981249E-01  0.51100000000E-03 0.  1.
</event>
<event>
 8    1  0.1060404E+005  0.1043930E+01  0.7957747E-01            NaN
         13   -1    0    0    0    0  0.00000000000E+00  0.00000000000E+00  0.74505805969E-08  0.10566000000E+00  0.10566000000E+00 0.  1.
     999900   -1    0    0    0    0 -0.00000000000E+00 -0.00000000000E+00 -0.74505805969E-08  0.93827000000E+00  0.93827000000E+00 0.  1.
     999902    2    1    2    0    0 -0.20189116587E-01 -0.58554340667E-02  0.10785988113E-01  0.10203032339E+01  0.10200296393E+01 0.  0.
     999903    2    3    3    0    0 -0.10919638007E-01  0.93327709738E-01  0.90326835241E-01  0.13111823312E+00  0.14274242314E-01 0.  0.
         14    1    1    2    0    0  0.20189116587E-01  0.58554340667E-02 -0.10785988113E-01  0.23626766098E-01  0.00000000000E+00 0.  1.
     999901    1    3    3    0    0 -0.92694785802E-02 -0.99183143804E-01 -0.79540847128E-01  0.88918500078E+00  0.88000000000E+00 0.  1.
        -11    1    4    4    0    0  0.43430884116E-03  0.55335326359E-01  0.54646463353E-01  0.77773286194E-01  0.51100000000E-03 0.  1.
         11    1    4    4    0    0 -0.11353946848E-01  0.37992383379E-01  0.35680371887E-01  0.53344946929E-01  0.51100000000E-03 0. -1.
</event>
<event>
 8    1  0.1060404E+005  0.1043930E+01  0.7957747E-01            NaN
         13   -1    0    0    0    0  0.00000000000E+00  0.00000000000E+00  0.74505805969E-08  0.10566000000E+00  0.10566000000E+00 0.  1.
     999900   -1    0    0    0    0 -0.00000000000E+00 -0.00000000000E+00 -0.74505805969E-08  0.93827000000E+00  0.93827000000E+00 0.  1.
     999902    2    1    2    0    0  0.98647051903E-02  0.86659286331E-02 -0.18442238331E-01  0.10212909434E+01  0.10210399915E+01 0.  0.
     999903    2    3    3    0    0  0.11443061415E+00 -0.67419253658E-02 -0.66125017958E-01  0.13368456741E+00  0.18953272854E-01 0.  0.
         14    1    1    2    0    0 -0.98647051903E-02 -0.86659286331E-02  0.18442238331E-01  0.22639056567E-01  0.00000000000E+00 0.  1.
     999901    1    3    3    0    0 -0.10456590896E+00  0.15407853999E-01  0.47682779627E-01  0.88760637602E+00  0.88000000000E+00 0. -1.
        -11    1    4    4    0    0  0.22613467577E-01  0.47883756972E-02 -0.18487841574E-01  0.29603359011E-01  0.51100000000E-03 0. -1.
         11    1    4    4    0    0  0.91817146573E-01 -0.11530301063E-01 -0.47637176384E-01  0.10408120840E+00  0.51100000000E-03 0.  1.
</event>
<event>
 8    1  0.1060404E+005  0.1043930E+01  0.7957747E-01            NaN
         13   -1    0    0    0    0  0.00000000000E+00  0.00000000000E+00  0.74505805969E-08  0.10566000000E+00  0.10566000000E+00 0.  1.
     999900   -1    0    0    0    0 -0.00000000000E+00 -0.00000000000E+00 -0.74505805969E-08  0.93827000000E+00  0.93827000000E+00 0.  1.
     999902    2    1    2    0    0 -0.19876723477E-01 -0.66302201680E-02  0.10905810418E-01  0.10203083858E+01  0.10200349119E+01 0.  0.
     999903    2    3    3    0    0  0.86516639915E-01  0.22163951681E-01  0.92393764878E-01  0.12969683254E+00  0.17558213094E-01 0.  0.
         14    1    1    2    0    0  0.19876723477E-01  0.66302201680E-02 -0.10905810418E-01  0.23621614181E-01  0.00000000000E+00 0. -1.
     999901    1    3    3    0    0 -0.10639336339E+00 -0.28794171849E-01 -0.81487954460E-01  0.89061155328E+00  0.88000000000E+00 0. -1.
        -11    1    4    4    0    0  0.12228684608E-01  0.53063773103E-02  0.63431309401E-02  0.14771418297E-01  0.51100000000E-03 0. -1.
         11    1    4    4    0    0  0.74287955307E-01  0.16857574370E-01  0.86050633938E-01  0.11492541425E+00  0.51100000000E-03 0.  1.
</event>
<event>
 8    1  0.1060404E+005  0.1043930E+01  0.7957747E-01            NaN
         13   -1    0    0    0    0  0.00000000000E+00  0.00000000000E+00  0.74505805969E-08  0.10566000000E+00  0.10566000000E+00 0. -1.
     999900   -1    0    0    0    0 -0.00000000000E+00 -0.00000000000E+00 -0.74505805969E-08  0.93827000000E+00  0.93827000000E+00 0.  1.
     999902    2    1    2    0    0  0.16623374798E-01 -0.14147474015E-01  0.13308498262E-01  0.10183643250E+01  0.10180433659E+01 0.  0.
     999903    2    3    3    0    0  0.11135838654E-02 -0.79405459376E-01 -0.99214447479E-01  0.12866742631E+00  0.20132882508E-01 0.  0.
         14    1    1    2    0    0 -0.16623374798E-01  0.14147474015E-01 -0.13308498262E-01  0.25565674969E-01  0.00000000000E+00 0.  1.
     999901    1    3    3    0    0  0.15509790932E-01  0.65257985361E-01  0.11252294574E+00  0.88969689872E+00  0.88000000000E+00 0. -1.
        -11    1    4    4    0    0  0.86337685993E-02 -0.65362480559E-01 -0.81732550146E-01  0.10501079325E+00  0.51100000000E-03 0. -1.
         11    1    4    4    0    0 -0.75201847338E-02 -0.14042978817E-01 -0.17481897333E-01  0.23656633062E-01  0.51100000000E-03 0.  1.
</event>
<event>
 8    1  0.1060404E+005  0.1043930E+01  0.7957747E-01            NaN
         13   -1    0    0    0    0  0.00000000000E+00  0.00000000000E+00  0.74505805969E-08  0.10566000000E+00  0.10566000000E+00 0. -1.
     999900   -1    0    0    0    0 -0.00000000000E+00 -0.00000000000E+00 -0.74505805969E-08  0.93827000000E+00  0.93827000000E+00 0.  1.
     999902    2    1    2    0    0 -0.23988251854E-02  0.23064583304E-01  0.35651489594E-02  0.10204685497E+01  0.10201988145E+01 0.  0.
     999903    2    3    3    0    0 -0.57437411737E-01 -0.24831465890E-01 -0.11215240050E+00  0.12989916505E+00  0.19492926382E-01 0.  0.
         14    1    1    2    0    0  0.23988251854E-02 -0.23064583304E-01 -0.35651489594E-02  0.23461450346E-01  0.00000000000E+00 0.  1.
     999901    1    3    3    0    0  0.55038586552E-01  0.47896049193E-01  0.11571754946E+00  0.89056938460E+00  0.88000000000E+00 0. -1.
        -11    1    4    4    0    0 -0.33832977234E-01 -0.44224155118E-02 -0.63730276744E-01  0.72291336980E-01  0.51100000000E-03 0. -1.
         11    1    4    4    0    0 -0.23604434503E-01 -0.20409050378E-01 -0.48422123752E-01  0.57607828072E-01  0.51100000000E-03 0.  1.
</event>
<event>
 8    1  0.1060404E+005  0.1043930E+01  0.7957747E-01            NaN
         13   -1    0    0    0    0  0.00000000000E+00  0.00000000000E+00  0.74505805969E-08  0.10566000000E+00  0.10566000000E+00 0. -1.
     999900   -1    0    0    0    0 -0.00000000000E+00 -0.00000000000E+00 -0.74505805969E-08  0.93827000000E+00  0.93827000000E+00 0.  1.
     999902    2    1    2    0    0 -0.17697217060E-01 -0.14216554144E-01  0.61057531990E-02  0.10204229346E+01  0.10201521373E+01 0.  0.
     999903    2    3    3    0    0 -0.27890633096E-01  0.88142557929E-01  0.90491874769E-01  0.13042163621E+00  0.16553726454E-01 0.  0.
         14    1    1    2    0    0  0.17697217060E-01  0.14216554144E-01 -0.61057531990E-02  0.23507065439E-01  0.00000000000E+00 0. -1.
     999901    1    3    3    0    0  0.10193416036E-01 -0.10235911207E+00 -0.84386121570E-01  0.89000129835E+00  0.88000000000E+00 0. -1.
        -11    1    4    4    0    0 -0.15513622425E-01  0.40517332497E-01  0.31600863898E-01  0.53676833304E-01  0.51100000000E-03 0. -1.
         11    1    4    4    0    0 -0.12377010671E-01  0.47625225432E-01  0.58891010871E-01  0.76744802906E-01  0.51100000000E-03 0.  1.
</event>
<event>
 7    1  0.1060404E+005  0.1043930E+01  0.7957747E-01            NaN
         13   -1    0    0    0    0  0.00000000000E+00  0.00000000000E+00  0.74505805969E-08  0.10566000000E+00  0.10566000000E+00 0.  1.
     999900   -1    0    0    0    0 -0.00000000000E+00 -0.00000000000E+00 -0.74505805969E-08  0.93827000000E+00  0.93827000000E+00 0.  1.
     999903    2    1    2    0    0 -0.28867681737E-01  0.23328096693E-01  0.10466602652E+00  0.11309838788E+00  0.21417868438E-01 0.  0.
         14    1    1    2    0    0 -0.31043374920E-01  0.12869641713E-01 -0.29745063839E-01  0.44878587622E-01  0.00000000000E+00 0. -1.
     999901    1    1    2    0    0  0.59911056657E-01 -0.36197738406E-01 -0.74920962681E-01  0.88595302450E+00  0.88000000000E+00 0. -1.
        -11    1    3    3    0    0 -0.52331426838E-02  0.12735631211E-01  0.18150055531E-01  0.22787446576E-01  0.51100000000E-03 0.  1.
         11    1    3    3    0    0 -0.23634539053E-01  0.10592465482E-01  0.86515970988E-01  0.90310941299E-01  0.51100000000E-03 0. -1.
</event>
<event>
 8    1  0.1060404E+005  0.1043930E+01  0.7957747E-01            NaN
         13   -1    0    0    0    0  0.00000000000E+00  0.00000000000E+00  0.74505805969E-08  0.10566000000E+00  0.10566000000E+00 0. -1.
     999900   -1    0    0    0    0 -0.00000000000E+00 -0.00000000000E+00 -0.74505805969E-08  0.93827000000E+00  0.93827000000E+00 0.  1.
     999902    2    1    2    0    0 -0.46289201257E-02 -0.13373334510E-01 -0.18981747005E-01  0.10202534357E+01  0.10199786730E+01 0.  0.
     999903    2    3    3    0    0 -0.11656869841E+00 -0.32861217677E-01  0.44148198120E-01  0.13070541478E+00  0.21603726054E-01 0.  0.
         14    1    1    2    0    0  0.46289201257E-02  0.13373334510E-01  0.18981747005E-01  0.23676564295E-01  0.00000000000E+00 0. -1.
     999901    1    3    3    0    0  0.11193977829E+00  0.19487883167E-01 -0.63129945124E-01  0.88954802092E+00  0.88000000000E+00 0. -1.
        -11    1    4    4    0    0 -0.71459995950E-01 -0.19974776104E-01  0.15717972406E-01  0.75847468509E-01  0.51100000000E-03 0.  1.
         11    1    4    4    0    0 -0.45108702464E-01 -0.12886441573E-01  0.28430225714E-01  0.54857946275E-01  0.51100000000E-03 0. -1.
</event>
<event>
 8    1  0.1060404E+005  0.1043930E+01  0.7957747E-01            NaN
         13   -1    0    0    0    0  0.00000000000E+00  0.00000000000E+00  0.74505805969E-08  0.10566000000E+00  0.10566000000E+00 0.  1.
     999900   -1    0    0    0    0 -0.00000000000E+00 -0.00000000000E+00 -0.74505805969E-08  0.93827000000E+00  0.93827000000E+00 0.  1.
     999902    2    1    2    0    0  0.83395293717E-02  0.18921718987E-01  0.63968961803E-02  0.10222851512E+01  0.10220559822E+01 0.  0.
     999903    2    3    3    0    0 -0.97696615327E-01 -0.27786912266E-01  0.81240823805E-01  0.13153997229E+00  0.19645653927E-01 0.  0.
         14    1    1    2    0    0 -0.83395293717E-02 -0.18921718987E-01 -0.63968961803E-02  0.21644848817E-01  0.00000000000E+00 0. -1.
     999901    1    3    3    0    0  0.10603614470E+00  0.46708631253E-01 -0.74843927625E-01  0.89074517889E+00  0.88000000000E+00 0.  1.
        -11    1    4    4    0    0 -0.71528739262E-01 -0.14947625764E-01  0.66801416394E-01  0.99007486635E-01  0.51100000000E-03 0.  1.
         11    1    4    4    0    0 -0.26167876065E-01 -0.12839286502E-01  0.14439407411E-01  0.32532485657E-01  0.51100000000E-03 0. -1.
</event>
<event>
 8    1  0.1060404E+005  0.1043930E+01  0.7957747E-01            NaN
         13   -1    0    0    0    0  0.00000000000E+00  0.00000000000E+00  0.74505805969E-08  0.10566000000E+00  0.10566000000E+00 0. -1.
     999900   -1    0    0    0    0 -0.00000000000E+00 -0.00000000000E+00 -0.74505805969E-08  0.93827000000E+00  0.93827000000E+00 0. -1.
     999902    2    1    2    0    0 -0.38522168896E-02  0.23324229753E-01 -0.75700816834E-02  0.10191073207E+01  0.10188049695E+01 0.  0.
     999903    2    3    3    0    0  0.11066794984E+00  0.28120256090E-01 -0.59233657772E-01  0.13017144255E+00  0.19945784492E-01 0.  0.
         14    1    1    2    0    0  0.38522168896E-02 -0.23324229753E-01  0.75700816834E-02  0.24822679252E-01  0.00000000000E+00 0.  1.
     999901    1    3    3    0    0 -0.11452016673E+00 -0.47960263369E-02  0.51663576088E-01  0.88893587820E+00  0.88000000000E+00 0.  1.
        -11    1    4    4    0    0  0.33005424509E-01 -0.16408560502E-03 -0.13102122406E-01  0.35514950425E-01  0.51100000000E-03 0.  1.
         11    1    4    4    0    0  0.77662525326E-01  0.28284341695E-01 -0.46131535366E-01  0.94656492125E-01  0.51100000000E-03 0. -1.
</event>
<event>
 8    1  0.1060404E+005  0.1043930E+01  0.7957747E-01            NaN
         13   -1    0    0    0    0  0.00000000000E+00  0.00000000000E+00  0.74505805969E-08  0.10566000000E+00  0.10566000000E+00 0. -1.
     999900   -1    0    0    0    0 -0.00000000000E+00 -0.00000000000E+00 -0.74505805969E-08  0.93827000000E+00  0.93827000000E+00 0.  1.
     999902    2    1    2    0    0  0.11946142825E-01 -0.63101286316E-02  0.28240435203E-02  0.10301277077E+01  0.10300352377E+01 0.  0.
     999903    2    3    3    0    0  0.12429227884E+00  0.66790466047E-02  0.62760844740E-01  0.14086801945E+00  0.20290269303E-01 0.  0.
         14    1    1    2    0    0 -0.11946142825E-01  0.63101286316E-02 -0.28240435203E-02  0.13802292330E-01  0.00000000000E+00 0. -1.
     999901    1    3    3    0    0 -0.11234613602E+00 -0.12989175236E-01 -0.59936801219E-01  0.88925968822E+00  0.88000000000E+00 0. -1.
        -11    1    4    4    0    0  0.56831708113E-01  0.27284628274E-03  0.39532764030E-01  0.69231626046E-01  0.51100000000E-03 0.  1.
         11    1    4    4    0    0  0.67460570729E-01  0.64062003219E-02  0.23228080710E-01  0.71636393405E-01  0.51100000000E-03 0. -1.
</event>
<event>
 8    1  0.1060404E+005  0.1043930E+01  0.7957747E-01            NaN
         13   -1    0    0    0    0  0.00000000000E+00  0.00000000000E+00  0.74505805969E-08  0.10566000000E+00  0.10566000000E+00 0. -1.
     999900   -1    0    0    0    0 -0.00000000000E+00 -0.00000000000E+00 -0.74505805969E-08  0.93827000000E+00  0.93827000000E+00 0.  1.
     999902    2    1    2    0    0  0.52864134382E-02  0.89466648421E-02  0.21575771135E-01  0.10199820799E+01  0.10197009073E+01 0.  0.
     999903    2    3    3    0    0  0.10836175163E+00  0.52261797044E-01  0.52041545899E-01  0.13238482353E+00  0.18543310199E-01 0.  0.
         14    1    1    2    0    0 -0.52864134382E-02 -0.89466648421E-02 -0.21575771135E-01  0.23947920137E-01  0.00000000000E+00 0.  1.
     999901    1    3    3    0    0 -0.10307533820E+00 -0.43315132202E-01 -0.30465774764E-01  0.88759725634E+00  0.88000000000E+00 0. -1.
        -11    1    4    4    0    0  0.17682462884E-01  0.15574765998E-01  0.14091280053E-01  0.27460300873E-01  0.51100000000E-03 0. -1.
         11    1    4    4    0    0  0.90679288751E-01  0.36687031046E-01  0.37950265847E-01  0.10492452265E+00  0.51100000000E-03 0.  1.
</event>
<event>
 8    1  0.1060404E+005  0.1043930E+01  0.7957747E-01            NaN
         13   -1    0    0    0    0  0.00000000000E+00  0.00000000000E+00  0.74505805969E-08  0.10566000000E+00  0.10566000000E+00 0.  1.
     999900   -1    0    0    0    0 -0.00000000000E+00 -0.00000000000E+00 -0.74505805969E-08  0.93827000000E+00  0.93827000000E+00 0. -1.
     999902    2    1    2    0    0 -0.16447077020E-01 -0.16350852590E-01 -0.48403326835E-02  0.10202385344E+01  0.10199634216E+01 0.  0.
     999903    2    3    3    0    0  0.42842925618E-01  0.42853995642E-02  0.12044592417E+00  0.12915054463E+00  0.17853896053E-01 0.  0.
         14    1    1    2    0    0  0.16447077020E-01  0.16350852590E-01  0.48403326835E-02  0.23691465623E-01  0.00000000000E+00 0.  1.
     999901    1    3    3    0    0 -0.59290002638E-01 -0.20636252154E-01 -0.12528625685E+00  0.89108798975E+00  0.88000000000E+00 0. -1.
        -11    1    4    4    0    0  0.24409478465E-01  0.55610561565E-02  0.91011217916E-01  0.94393065911E-01  0.51100000000E-03 0.  1.
         11    1    4    4    0    0  0.18433447153E-01 -0.12756565923E-02  0.29434706253E-01  0.34757478719E-01  0.51100000000E-03 0. -1.
</event>
<event>
 8    1  0.1060404E+005  0.1043930E+01  0.7957747E-01            NaN
         13   -1    0    0    0    0  0.00000000000E+00  0.00000000000E+00  0.74505805969E-08  0.10566000000E+00  0.10566000000E+00 0. -1.
     999900   -1    0    0    0    0 -0.00000000000E+00 -0.00000000000E+00 -0.74505805969E-08  0.93827000000E+00  0.93827000000E+00 0. -1.
     999902    2    1    2    0    0 -0.18209770799E-01  0.60475313097E-02  0.13227130607E-01  0.10206249497E+01  0.10203588401E+01 0.  0.
     999903    2    3    3    0    0 -0.12601811277E+00  0.28860303860E-01  0.28391418800E-01  0.13362268538E+00  0.18315771968E-01 0.  0.
         14    1    1    2    0    0  0.18209770799E-01 -0.60475313097E-02 -0.13227130607E-01  0.23305050345E-01  0.00000000000E+00 0.  1.
     999901    1    3    3    0    0  0.10780834197E+00 -0.22812772550E-01 -0.15164288193E-01  0.88700226427E+00  0.88000000000E+00 0. -1.
        -11    1    4    4    0    0 -0.61012822418E-01  0.46602963391E-02  0.14259883903E-01  0.62832223192E-01  0.51100000000E-03 0. -1.
         11    1    4    4    0    0 -0.65005290349E-01  0.24200007521E-01  0.14131534897E-01  0.70790462189E-01  0.51100000000E-03 0.  1.
</event>
<event>
 8    1  0.1060404E+005  0.1043930E+01  0.7957747E-01            NaN
         13   -1    0    0    0    0  0.00000000000E+00  0.00000000000E+00  0.74505805969E-08  0.10566000000E+00  0.10566000000E+00 0. -1.
     999900   -1    0    0    0    0 -0.00000000000E+00 -0.00000000000E+00 -0.74505805969E-08  0.93827000000E+00  0.93827000000E+00 0. -1.
     999902    2    1    2    0    0 -0.12466793243E-01 -0.77567607408E-02  0.18137717850E-01  0.10205940818E+01  0.10203272586E+01 0.  0.
     999903    2    3    3    0    0 -0.26765971001E-01 -0.12399745663E+00  0.33156076922E-01  0.13270787455E+00  0.20500440843E-01 0.  0.
         14    1    1    2    0    0  0.12466793243E-01  0.77567607408E-02 -0.18137717850E-01  0.23335918233E-01  0.00000000000E+00 0.  1.
     999901    1    3    3    0    0  0.14299177758E-01  0.11624069589E+00 -0.15018359072E-01  0.88788620722E+00  0.88000000000E+00 0.  1.
        -11    1    4    4    0    0 -0.19465067365E-01 -0.11598757064E+00  0.31252208164E-01  0.12169209928E+00  0.51100000000E-03 0. -1.
         11    1    4    4    0    0 -0.73009036369E-02 -0.80098859938E-02  0.19038687580E-02  0.11015775270E-01  0.51100000000E-03 0.  1.
</event>
<event>
 8    1  0.1060404E+005  0.1043930E+01  0.7957747E-01            NaN
         13   -1    0    0    0    0  0.00000000000E+00  0.00000000000E+00  0.74505805969E-08  0.10566000000E+00  0.10566000000E+00 0. -1.
     999900   -1    0    0    0    0 -0.00000000000E+00 -0.00000000000E+00 -0.74505805969E-08  0.93827000000E+00  0.93827000000E+00 0.  1.
     999902    2    1    2    0    0 -0.24457515643E-01  0.13842119675E-01 -0.28225903157E-02  0.10156856844E+01  0.10152928977E+01 0.  0.
     999903    2    3    3    0    0  0.11583899558E+00  0.35176478483E-01  0.17661556887E-01  0.12408158715E+00  0.20694253849E-01 0.  0.
         14    1    1    2    0    0  0.24457515643E-01 -0.13842119675E-01  0.28225903157E-02  0.28244315616E-01  0.00000000000E+00 0.  1.
     999901    1    3    3    0    0 -0.14029651122E+00 -0.21334358808E-01 -0.20484147202E-01  0.89160409724E+00  0.88000000000E+00 0. -1.
        -11    1    4    4    0    0  0.67056755177E-01  0.25633319898E-01  0.19317404650E-01  0.74344460098E-01  0.51100000000E-03 0.  1.
         11    1    4    4    0    0  0.48782240399E-01  0.95431585851E-02 -0.16558477631E-02  0.49737127047E-01  0.51100000000E-03 0. -1.
</event>
<event>
 8    1  0.1060404E+005  0.1043930E+01  0.7957747E-01            NaN
         13   -1    0    0    0    0  0.00000000000E+00  0.00000000000E+00  0.74505805969E-08  0.10566000000E+00  0.10566000000E+00 0.  1.
     999900   -1    0    0    0    0 -0.00000000000E+00 -0.00000000000E+00 -0.74505805969E-08  0.93827000000E+00  0.93827000000E+00 0. -1.
     999902    2    1    2    0    0  0.16225317613E-01  0.12333659428E-01  0.11920812762E-01  0.10203188615E+01  0.10200456329E+01 0.  0.
     999903    2    3    3    0    0  0.61529687645E-01  0.43704007755E-01 -0.10500656456E+00  0.13087600423E+00  0.20154580786E-01 0.  0.
         14    1    1    2    0    0 -0.16225317613E-01 -0.12333659428E-01 -0.11920812762E-01  0.23611138545E-01  0.00000000000E+00 0. -1.
     999901    1    3    3    0    0 -0.45304370032E-01 -0.31370348327E-01  0.11692737732E+00  0.88944285722E+00  0.88000000000E+00 0.  1.
        -11    1    4    4    0    0  0.39495669750E-01  0.32223656671E-01 -0.84369664312E-01  0.98573695048E-01  0.51100000000E-03 0.  1.
         11    1    4    4    0    0  0.22034017895E-01  0.11480351083E-01 -0.20636900251E-01  0.32302309183E-01  0.51100000000E-03 0. -1.
</event>
<event>
 8    1  0.1060404E+005  0.1043930E+01  0.7957747E-01            NaN
         13   -1    0    0    0    0  0.00000000000E+00  0.00000000000E+00  0.74505805969E-08  0.10566000000E+00  0.10566000000E+00 0.  1.
     999900   -1    0    0    0    0 -0.00000000000E+00 -0.00000000000E+00 -0.74505805969E-08  0.93827000000E+00  0.93827000000E+00 0. -1.
     999902    2    1    2    0    0  0.20138885610E-01 -0.12168880590E-01 -0.59142660495E-02  0.10196682006E+01  0.10193795193E+01 0.  0.
     999903    2    3    3    0    0 -0.96468541154E-01 -0.28514104521E-01 -0.78771434008E-01  0.12884126719E+00  0.16610229570E-01 0.  0.
         14    1    1    2    0    0 -0.20138885610E-01  0.12168880590E-01  0.59142660495E-02  0.24261799425E-01  0.00000000000E+00 0.  1.
     999901    1    3    3    0    0  0.11660742676E+00  0.16345223930E-01  0.72857167958E-01  0.89082693339E+00  0.88000000000E+00 0.  1.
        -11    1    4    4    0    0 -0.61973582643E-01 -0.14143368269E-01 -0.58169010961E-01  0.86166436440E-01  0.51100000000E-03 0. -1.
         11    1    4    4    0    0 -0.34494958512E-01 -0.14370736252E-01 -0.20602423047E-01  0.42674830750E-01  0.51100000000E-03 0.  1.
</event>
<event>
 8    1  0.1060404E+005  0.1043930E+01  0.7957747E-01            NaN
         13   -1    0    0    0    0  0.00000000000E+00  0.00000000000E+00  0.74505805969E-08  0.10566000000E+00  0.10566000000E+00 0.  1.
     999900   -1    0    0    0    0 -0.00000000000E+00 -0.00000000000E+00 -0.74505805969E-08  0.93827000000E+00  0.93827000000E+00 0. -1.
     999902    2    1    2    0    0 -0.16446168637E-01 -0.11173428063E-01  0.70051381263E-02  0.10228493473E+01  0.10226320909E+01 0.  0.
     999903    2    3    3    0    0  0.24315142691E-01  0.10658726807E+00  0.71282631461E-01  0.13174853248E+00  0.18010840711E-01 0.  0.
         14    1    1    2    0    0  0.16446168637E-01  0.11173428063E-01 -0.70051381263E-02  0.21080652686E-01  0.00000000000E+00 0. -1.
     999901    1    3    3    0    0 -0.40761311328E-01 -0.11776069613E+00 -0.64277493335E-01  0.89110081484E+00  0.88000000000E+00 0. -1.
        -11    1    4    4    0    0 -0.59319146049E-03  0.10200904208E-01  0.19097225790E-02  0.10407616638E-01  0.51100000000E-03 0. -1.
         11    1    4    4    0    0  0.24908334152E-01  0.96386363861E-01  0.69372908882E-01  0.12134091584E+00  0.51100000000E-03 0.  1.
</event>
<event>
 8    1  0.1060404E+005  0.1043930E+01  0.7957747E-01            NaN
         13   -1    0    0    0    0  0.00000000000E+00  0.00000000000E+00  0.74505805969E-08  0.10566000000E+00  0.10566000000E+00 0. -1.
     999900   -1    0    0    0    0 -0.00000000000E+00 -0.00000000000E+00 -0.74505805969E-08  0.93827000000E+00  0.93827000000E+00 0. -1.
     999902    2    1    2    0    0  0.13996503524E-01  0.92550480330E-02 -0.17795801695E-01  0.10194708794E+01  0.10191774258E+01 0.  0.
     999903    2    3    3    0    0  0.61392613444E-01 -0.92016226006E-01 -0.66934037202E-01  0.13103583481E+00  0.21311636117E-01 0.  0.
         14    1    1    2    0    0 -0.13996503524E-01 -0.92550480330E-02  0.17795801695E-01  0.24459120650E-01  0.00000000000E+00 0.  1.
     999901    1    3    3    0    0 -0.47396109920E-01  0.10127127404E+00  0.49138235507E-01  0.88843504454E+00  0.88000000000E+00 0.  1.
        -11    1    4    4    0    0  0.34283070340E-01 -0.44784989818E-01 -0.22412249658E-01  0.60692621303E-01  0.51100000000E-03 0.  1.
         11    1    4    4    0    0  0.27109543104E-01 -0.47231236188E-01 -0.44521787544E-01  0.70343213506E-01  0.51100000000E-03 0. -1.
</event>
<event>
 8    1  0.1060404E+005  0.1043930E+01  0.7957747E-01            NaN
         13   -1    0    0    0    0  0.00000000000E+00  0.00000000000E+00  0.74505805969E-08  0.10566000000E+00  0.10566000000E+00 0. -1.
     999900   -1    0    0    0    0 -0.00000000000E+00 -0.00000000000E+00 -0.74505805969E-08  0.93827000000E+00  0.93827000000E+00 0. -1.
     999902    2    1    2    0    0 -0.96436767015E-02 -0.17830852495E-01  0.13741283089E-01  0.10194399477E+01  0.10191457424E+01 0.  0.
     999903    2    3    3    0    0 -0.27713735375E-02 -0.97591213077E-01 -0.84085579205E-01  0.13040730563E+00  0.20098640500E-01 0.  0.
         14    1    1    2    0    0  0.96436767015E-02  0.17830852495E-01 -0.13741283089E-01  0.24490052306E-01  0.00000000000E+00 0. -1.
     999901    1    3    3    0    0 -0.68723031639E-02  0.79760360582E-01  0.97826862294E-01  0.88903264207E+00  0.88000000000E+00 0.  1.
        -11    1    4    4    0    0  0.81975163376E-02 -0.46313200157E-01 -0.35630442859E-01  0.59007638169E-01  0.51100000000E-03 0. -1.
         11    1    4    4    0    0 -0.10968889875E-01 -0.51278012920E-01 -0.48455136345E-01  0.71399667460E-01  0.51100000000E-03 0.  1.
</event>
<event>
 8    1  0.1060404E+005  0.1043930E+01  0.7957747E-01            NaN
         13   -1    0    0    0    0  0.00000000000E+00  0.00000000000E+00  0.74505805969E-08  0.10566000000E+00  0.10566000000E+00 0. -1.
     999900   -1    0    0    0    0 -0.00000000000E+00 -0.00000000000E+00 -0.74505805969E-08  0.93827000000E+00  0.93827000000E+00 0.  1.
     999902    2    1    2    0    0 -0.15505168992E-01  0.17856858614E-01  0.24586676677E-02  0.10201534840E+01  0.10198763691E+01 0.  0.
     999903    2    3    3    0    0 -0.96869702687E-01  0.89358723395E-01 -0.42031979731E-02  0.13348720833E+00  0.20795364115E-01 0.  0.
         14    1    1    2    0    0  0.15505168992E-01 -0.17856858614E-01 -0.24586676677E-02  0.23776515971E-01  0.00000000000E+00 0. -1.
     999901    1    3    3    0    0  0.81364533695E-01 -0.71501864781E-01  0.66618656408E-02  0.88666627570E+00  0.88000000000E+00 0. -1.
        -11    1    4    4    0    0 -0.35184445268E-01  0.33478661662E-01 -0.11566498346E-01  0.49928058048E-01  0.51100000000E-03 0.  1.
         11    1    4    4    0    0 -0.61685257420E-01  0.55880061733E-01  0.73633003730E-02  0.83559150280E-01  0.51100000000E-03 0. -1.
</event>
<event>
 8    1  0.1060404E+005  0.1043930E+01  0.7957747E-01            NaN
         13   -1    0    0    0    0  0.00000000000E+00  0.00000000000E+00  0.74505805969E-08  0.10566000000E+00  0.10566000000E+00 0.  1.
     999900   -1    0    0    0    0 -0.00000000000E+00 -0.00000000000E+00 -0.74505805969E-08  0.93827000000E+00  0.93827000000E+00 0. -1.
     999902    2    1    2    0    0 -0.87406327261E-02  0.16832909349E-01  0.14603614599E-01  0.10199923506E+01  0.10197114221E+01 0.  0.
     999903    2    3    3    0    0 -0.12737634538E+00  0.68402439042E-02 -0.22880919898E-01  0.13118451089E+00  0.20354780781E-01 0.  0.
         14    1    1    2    0    0  0.87406327261E-02 -0.16832909349E-01 -0.14603614599E-01  0.23937649361E-01  0.00000000000E+00 0.  1.
     999901    1    3    3    0    0  0.11863571266E+00  0.99926654443E-02  0.37484534497E-01  0.88880783975E+00  0.88000000000E+00 0.  1.
        -11    1    4    4    0    0 -0.21255182804E-01  0.68929411701E-03 -0.11752493080E-01  0.24303089042E-01  0.51100000000E-03 0. -1.
         11    1    4    4    0    0 -0.10612116258E+00  0.61509497872E-02 -0.11128426818E-01  0.10688142184E+00  0.51100000000E-03 0.  1.
</event>
<event>
 8    1  0.1060404E+005  0.1043930E+01  0.7957747E-01            NaN
         13   -1    0    0    0    0  0.00000000000E+00  0.00000000000E+00  0.74505805969E-08  0.10566000000E+00  0.10566000000E+00 0.  1.
     999900   -1    0    0    0    0 -0.00000000000E+00 -0.00000000000E+00 -0.74505805969E-08  0.93827000000E+00  0.93827000000E+00 0. -1.
     999902    2    1    2    0    0 -0.22436144568E-01  0.81053739013E-02 -0.10115567504E-02  0.10200532139E+01  0.10197737289E+01 0.  0.
     999903    2    3    3    0    0 -0.78617049988E-01  0.12787518510E-01  0.10345956113E+00  0.13208225089E+00  0.19941891391E-01 0.  0.
         14    1    1    2    0    0  0.22436144568E-01 -0.81053739013E-02  0.10115567504E-02  0.23876786136E-01  0.00000000000E+00 0. -1.
     999901    1    3    3    0    0  0.56180905421E-01 -0.46821446090E-02 -0.10447111788E+00  0.88797096297E+00  0.88000000000E+00 0. -1.
        -11    1    4    4    0    0 -0.18513052767E-01  0.11577362393E-01  0.31180686353E-01  0.38069210199E-01  0.51100000000E-03 0. -1.
         11    1    4    4    0    0 -0.60103997222E-01  0.12101561177E-02  0.72278874778E-01  0.94013040692E-01  0.51100000000E-03 0.  1.
</event>
<event>
 8    1  0.1060404E+005  0.1043930E+01  0.7957747E-01            NaN
         13   -1    0    0    0    0  0.00000000000E+00  0.00000000000E+00  0.74505805969E-08  0.10566000000E+00  0.10566000000E+00 0. -1.
     999900   -1    0    0    0    0 -0.00000000000E+00 -0.00000000000E+00 -0.74505805969E-08  0.93827000000E+00  0.93827000000E+00 0.  1.
     999902    2    1    2    0    0 -0.42756995779E-02 -0.10483514467E-01 -0.21387039797E-01  0.10197310092E+01  0.10194438386E+01 0.  0.
     999903    2    3    3    0    0  0.94391519311E-01  0.39525164289E-01 -0.79287203615E-01  0.13091802722E+00  0.19521056968E-01 0.  0.
         14    1    1    2    0    0  0.42756995779E-02  0.10483514467E-01  0.21387039797E-01  0.24198990758E-01  0.00000000000E+00 0. -1.
     999901    1    3    3    0    0 -0.98667218888E-01 -0.50008678756E-01  0.57900163818E-01  0.88881298202E+00  0.88000000000E+00 0. -1.
        -11    1    4    4    0    0  0.63427833405E-01  0.27233722119E-01 -0.41516226474E-01  0.80551994715E-01  0.51100000000E-03 0.  1.
         11    1    4    4    0    0  0.30963685906E-01  0.12291442170E-01 -0.37770977141E-01  0.50366032509E-01  0.51100000000E-03 0. -1.
</event>
<event>
 8    1  0.1060404E+005  0.1043930E+01  0.7957747E-01            NaN
         13   -1    0    0    0    0  0.00000000000E+00  0.00000000000E+00  0.74505805969E-08  0.10566000000E+00  0.10566000000E+00 0.  1.
     999900   -1    0    0    0    0 -0.00000000000E+00 -0.00000000000E+00 -0.74505805969E-08  0.93827000000E+00  0.93827000000E+00 0.  1.
     999902    2    1    2    0    0  0.22263547991E-01  0.25050347398E-02  0.83322193116E-02  0.10200267231E+01  0.10197466103E+01 0.  0.
     999903    2    3    3    0    0 -0.78232750018E-01  0.97792052371E-01 -0.21407854113E-01  0.12869985061E+00  0.20535497248E-01 0.  0.
         14    1    1    2    0    0 -0.22263547991E-01 -0.25050347398E-02 -0.83322193116E-02  0.23903276906E-01  0.00000000000E+00 0.  1.
     999901    1    3    3    0    0  0.10049629801E+00 -0.95287017631E-01  0.29740073425E-01  0.89132687248E+00  0.88000000000E+00 0.  1.
        -11    1    4    4    0    0 -0.37325141235E-01  0.47547353836E-01  0.36138568523E-04  0.60449809363E-01  0.51100000000E-03 0. -1.
         11    1    4    4    0    0 -0.40907608783E-01  0.50244698535E-01 -0.21443992682E-01  0.68250041248E-01  0.51100000000E-03 0.  1.
</event>
<event>
 8    1  0.1060404E+005  0.1043930E+01  0.7957747E-01            NaN
         13   -1    0    0    0    0  0.00000000000E+00  0.00000000000E+00  0.74505805969E-08  0.10566000000E+00  0.10566000000E+00 0. -1.
     999900   -1    0    0    0    0 -0.00000000000E+00 -0.00000000000E+00 -0.74505805969E-08  0.93827000000E+00  0.93827000000E+00 0.  1.
     999902    2    1    2    0    0  0.50412674175E-02 -0.22850170413E-01 -0.13741023019E-02  0.10204900166E+01  0.10202207806E+01 0.  0.
     999903    2    3    3    0    0 -0.83062246573E-01  0.93229411888E-02  0.97637940494E-01  0.12998413626E+00  0.19402428118E-01 0.  0.
         14    1    1    2    0    0 -0.50412674175E-02  0.22850170413E-01  0.13741023019E-02  0.23439983409E-01  0.00000000000E+00 0.  1.
     999901    1    3    3    0    0  0.88103513991E-01 -0.32173111602E-01 -0.99012042796E-01  0.89050588033E+00  0.88000000000E+00 0.  1.
        -11    1    4    4    0    0 -0.34869544418E-01 -0.56569573972E-02  0.39368151552E-01  0.52896113019E-01  0.51100000000E-03 0. -1.
         11    1    4    4    0    0 -0.48192702155E-01  0.14979898586E-01  0.58269788942E-01  0.77088023240E-01  0.51100000000E-03 0.  1.
</event>
<event>
 8    1  0.1060404E+005  0.1043930E+01  0.7957747E-01            NaN
         13   -1    0    0    0    0  0.00000000000E+00  0.00000000000E+00  0.74505805969E-08  0.10566000000E+00  0.10566000000E+00 0. -1.
     999900   -1    0    0    0    0 -0.00000000000E+00 -0.00000000000E+00 -0.74505805969E-08  0.93827000000E+00  0.93827000000E+00 0.  1.
     999902    2    1    2    0    0  0.10665261838E-01  0.26127712015E-01 -0.49282053552E-02  0.10152822714E+01  0.10148780214E+01 0.  0.
     999903    2    3    3    0    0 -0.69611594817E-01  0.29806617457E-01  0.98245591002E-01  0.12561787384E+00  0.19835460635E-01 0.  0.
         14    1    1    2    0    0 -0.10665261838E-01 -0.26127712015E-01  0.49282053552E-02  0.28647728588E-01  0.00000000000E+00 0. -1.
     999901    1    3    3    0    0  0.80276856655E-01 -0.36789054419E-02 -0.10317379636E+00  0.88966439758E+00  0.88000000000E+00 0.  1.
        -11    1    4    4    0    0 -0.52697476700E-01  0.14539202881E-01  0.60639697123E-01  0.81644635213E-01  0.51100000000E-03 0. -1.
         11    1    4    4    0    0 -0.16914118116E-01  0.15267414576E-01  0.37605893880E-01  0.43973238623E-01  0.51100000000E-03 0.  1.
</event>
<event>
 8    1  0.1060404E+005  0.1043930E+01  0.7957747E-01            NaN
         13   -1    0    0    0    0  0.00000000000E+00  0.00000000000E+00  0.74505805969E-08  0.10566000000E+00  0.10566000000E+00 0.  1.
     999900   -1    0    0    0    0 -0.00000000000E+00 -0.00000000000E+00 -0.74505805969E-08  0.93827000000E+00  0.93827000000E+00 0.  1.
     999902    2    1    2    0    0 -0.13387977106E-01  0.19157785178E-01 -0.73779776524E-02  0.10194209564E+01  0.10191262891E+01 0.  0.
     999903    2    3    3    0    0 -0.46561570266E-01 -0.11220052161E+00  0.34883267675E-01  0.12805037976E+00  0.20569893494E-01 0.  0.
         14    1    1    2    0    0  0.13387977106E-01 -0.19157785178E-01  0.73779776524E-02  0.24509043599E-01  0.00000000000E+00 0.  1.
     999901    1    3    3    0    0  0.33173593160E-01  0.13135830679E+00 -0.42261245327E-01  0.89137057664E+00  0.88000000000E+00 0. -1.
        -11    1    4    4    0    0 -0.71977380017E-03 -0.18898148412E-01  0.88324949494E-02  0.20878988859E-01  0.51100000000E-03 0.  1.
         11    1    4    4    0    0 -0.45841796466E-01 -0.93302373195E-01  0.26050772726E-01  0.10717139090E+00  0.51100000000E-03 0. -1.
</event>
<event>
 8    1  0.1060404E+005  0.1043930E+01  0.7957747E-01            NaN
         13   -1    0    0    0    0  0.00000000000E+00  0.00000000000E+00  0.74505805969E-08  0.10566000000E+00  0.10566000000E+00 0.  1.
     999900   -1    0    0    0    0 -0.00000000000E+00 -0.00000000000E+00 -0.74505805969E-08  0.93827000000E+00  0.93827000000E+00 0.  1.
     999902    2    1    2    0    0  0.26832469869E-01  0.57453105099E-03 -0.60294234008E-02  0.10164224470E+01  0.10160501589E+01 0.  0.
     999903    2    3    3    0    0  0.12283318084E+00 -0.32784319364E-01 -0.21217891528E-01  0.13044296701E+00  0.20059082953E-01 0.  0.
         14    1    1    2    0    0 -0.26832469869E-01 -0.57453105099E-03  0.60294234008E-02  0.27507552994E-01  0.00000000000E+00 0.  1.
     999901    1    3    3    0    0 -0.96000710976E-01  0.33358850415E-01  0.15188468127E-01  0.88597948000E+00  0.88000000000E+00 0.  1.
        -11    1    4    4    0    0  0.70672112621E-01 -0.19482080306E-01 -0.21787905257E-02  0.73342397047E-01  0.51100000000E-03 0. -1.
         11    1    4    4    0    0  0.52161068224E-01 -0.13302239058E-01 -0.19039101003E-01  0.57100569964E-01  0.51100000000E-03 0.  1.
</event>
<event>
 8    1  0.1060404E+005  0.1043930E+01  0.7957747E-01            NaN
         13   -1    0    0    0    0  0.00000000000E+00  0.00000000000E+00  0.74505805969E-08  0.10566000000E+00  0.10566000000E+00 0. -1.
     999900   -1    0    0    0    0 -0.00000000000E+00 -0.00000000000E+00 -0.74505805969E-08  0.93827000000E+00  0.93827000000E+00 0.  1.
     999902    2    1    2    0    0  0.16373488464E-01 -0.90673473297E-02 -0.26497645586E-01  0.10114887742E+01  0.10109684007E+01 0.  0.
     999903    2    3    3    0    0 -0.65585609867E-01 -0.63959109017E-01 -0.81510809024E-01  0.12427017232E+00  0.20169875900E-01 0.  0.
         14    1    1    2    0    0 -0.16373488464E-01  0.90673473297E-02  0.26497645586E-01  0.32441225835E-01  0.00000000000E+00 0. -1.
     999901    1    3    3    0    0  0.81959098331E-01  0.54891761688E-01  0.55013163438E-01  0.88721860184E+00  0.88000000000E+00 0. -1.
        -11    1    4    4    0    0 -0.39524247816E-01 -0.35650444298E-01 -0.34132528327E-01  0.63232989453E-01  0.51100000000E-03 0.  1.
         11    1    4    4    0    0 -0.26061362051E-01 -0.28308664719E-01 -0.47378280697E-01  0.61037182872E-01  0.51100000000E-03 0. -1.
</event>
<event>
 8    1  0.1060404E+005  0.1043930E+01  0.7957747E-01            NaN
         13   -1    0    0    0    0  0.00000000000E+00  0.00000000000E+00  0.74505805969E-08  0.10566000000E+00  0.10566000000E+00 0.  1.
     999900   -1    0    0    0    0 -0.00000000000E+00 -0.00000000000E+00 -0.74505805969E-08  0.93827000000E+00  0.93827000000E+00 0.  1.
     999902    2    1    2    0    0 -0.92518885822E-02  0.10097539082E-01  0.20005168522E-01  0.10196861450E+01  0.10193978957E+01 0.  0.
     999903    2    3    3    0    0 -0.24238586888E-02 -0.76001770644E-01  0.10473434908E+00  0.13140761482E+00  0.22727365107E-01 0.  0.
         14    1    1    2    0    0  0.92518885822E-02 -0.10097539082E-01 -0.20005168522E-01  0.24243855004E-01  0.00000000000E+00 0. -1.
     999901    1    3    3    0    0 -0.68280298934E-02  0.86099309726E-01 -0.84729180557E-01  0.88827853017E+00  0.88000000000E+00 0.  1.
        -11    1    4    4    0    0  0.25433311862E-02 -0.24070041399E-01  0.17909040342E-01  0.30113622722E-01  0.51100000000E-03 0. -1.
         11    1    4    4    0    0 -0.49671898750E-02 -0.51931729245E-01  0.86825308738E-01  0.10129399210E+00  0.51100000000E-03 0.  1.
</event>
<event>
 8    1  0.1060404E+005  0.1043930E+01  0.7957747E-01            NaN
         13   -1    0    0    0    0  0.00000000000E+00  0.00000000000E+00  0.74505805969E-08  0.10566000000E+00  0.10566000000E+00 0. -1.
     999900   -1    0    0    0    0 -0.00000000000E+00 -0.00000000000E+00 -0.74505805969E-08  0.93827000000E+00  0.93827000000E+00 0. -1.
     999902    2    1    2    0    0 -0.85116337334E-02 -0.61570969876E-02 -0.21105251032E-01  0.10203548145E+01  0.10200824271E+01 0.  0.
     999903    2    3    3    0    0 -0.13817879637E-02 -0.44467480557E-01 -0.12421482980E+00  0.13347821345E+00  0.20195132057E-01 0.  0.
         14    1    1    2    0    0  0.85116337334E-02  0.61570969876E-02  0.21105251032E-01  0.23575185540E-01  0.00000000000E+00 0. -1.
     999901    1    3    3    0    0 -0.71298457696E-02  0.38310383570E-01  0.10310957877E+00  0.88687660101E+00  0.88000000000E+00 0.  1.
        -11    1    4    4    0    0  0.83532115921E-02 -0.16512354604E-01 -0.59487308568E-01  0.62301163714E-01  0.51100000000E-03 0.  1.
         11    1    4    4    0    0 -0.97349995558E-02 -0.27955125954E-01 -0.64727521229E-01  0.71177049734E-01  0.51100000000E-03 0. -1.
</event>
<event>
 8    1  0.1060404E+005  0.1043930E+01  0.7957747E-01            NaN
         13   -1    0    0    0    0  0.00000000000E+00  0.00000000000E+00  0.74505805969E-08  0.10566000000E+00  0.10566000000E+00 0. -1.
     999900   -1    0    0    0    0 -0.00000000000E+00 -0.00000000000E+00 -0.74505805969E-08  0.93827000000E+00  0.93827000000E+00 0. -1.
     999902    2    1    2    0    0  0.10927929325E-01  0.12319292516E-01  0.18280794085E-01  0.10193256906E+01  0.10190287001E+01 0.  0.
     999903    2    3    3    0    0  0.15603948933E-01 -0.11376615488E+00 -0.51802697269E-01  0.12756838005E+00  0.20098530419E-01 0.  0.
         14    1    1    2    0    0 -0.10927929325E-01 -0.12319292516E-01 -0.18280794085E-01  0.24604309375E-01  0.00000000000E+00 0.  1.
     999901    1    3    3    0    0 -0.46760196080E-02  0.12608544740E+00  0.70083491354E-01  0.89175731058E+00  0.88000000000E+00 0. -1.
        -11    1    4    4    0    0  0.67389013101E-02 -0.18236426301E-01 -0.22279323153E-02  0.19575618470E-01  0.51100000000E-03 0. -1.
         11    1    4    4    0    0  0.88650476230E-02 -0.95529728582E-01 -0.49574764953E-01  0.10799276158E+00  0.51100000000E-03 0.  1.
</event>
<event>
 8    1  0.1060404E+005  0.1043930E+01  0.7957747E-01            NaN
         13   -1    0    0    0    0  0.00000000000E+00  0.00000000000E+00  0.74505805969E-08  0.10566000000E+00  0.10566000000E+00 0. -1.
     999900   -1    0    0    0    0 -0.00000000000E+00 -0.00000000000E+00 -0.74505805969E-08  0.93827000000E+00  0.93827000000E+00 0.  1.
     999902    2    1    2    0    0  0.11213876919E-01 -0.16619263315E-01 -0.11546573714E-01  0.10207940039E+01  0.10205317850E+01 0.  0.
     999903    2    3    3    0    0  0.69525962311E-01  0.89614783266E-01 -0.62292746712E-01  0.13104058528E+00  0.20653810382E-01 0.  0.
         14    1    1    2    0    0 -0.11213876919E-01  0.16619263315E-01  0.11546573714E-01  0.23135996051E-01  0.00000000000E+00 0. -1.
     999901    1    3    3    0    0 -0.58312085391E-01 -0.10623404658E+00  0.50746172998E-01  0.88975341867E+00  0.88000000000E+00 0. -1.
        -11    1    4    4    0    0  0.42588110680E-01  0.70082987857E-01 -0.44234494067E-01  0.93178988751E-01  0.51100000000E-03 0.  1.
         11    1    4    4    0    0  0.26937851630E-01  0.19531795409E-01 -0.18058252645E-01  0.37861596532E-01  0.51100000000E-03 0. -1.
</event>
<event>
 8    1  0.1060404E+005  0.1043930E+01  0.7957747E-01            NaN
         13   -1    0    0    0    0  0.00000000000E+00  0.00000000000E+00  0.74505805969E-08  0.10566000000E+00  0.10566000000E+00 0.  1.
     999900   -1    0    0    0    0 -0.00000000000E+00 -0.00000000000E+00 -0.74505805969E-08  0.93827000000E+00  0.93827000000E+00 0.  1.
     999902    2    1    2    0    0  0.12773743742E-01 -0.12957870381E-01 -0.10141431710E-01  0.10230991678E+01  0.10228870825E+01 0.  0.
     999903    2    3    3    0    0 -0.52776622807E-01 -0.59677384953E-01 -0.10619292243E+00  0.13422040638E+00  0.19784299934E-01 0.  0.
         14    1    1    2    0    0 -0.12773743742E-01  0.12957870381E-01  0.10141431710E-01  0.20830832224E-01  0.00000000000E+00 0. -1.
     999901    1    3    3    0    0  0.65550366549E-01  0.46719514572E-01  0.96051490721E-01  0.88887876140E+00  0.88000000000E+00 0. -1.
        -11    1    4    4    0    0 -0.37187280164E-01 -0.28012546372E-01 -0.55408393484E-01  0.72373667516E-01  0.51100000000E-03 0. -1.
         11    1    4    4    0    0 -0.15589342643E-01 -0.31664838582E-01 -0.50784528947E-01  0.61846738862E-01  0.51100000000E-03 0.  1.
</event>
<event>
 8    1  0.1060404E+005  0.1043930E+01  0.7957747E-01            NaN
         13   -1    0    0    0    0  0.00000000000E+00  0.00000000000E+00  0.74505805969E-08  0.10566000000E+00  0.10566000000E+00 0.  1.
     999900   -1    0    0    0    0 -0.00000000000E+00 -0.00000000000E+00 -0.74505805969E-08  0.93827000000E+00  0.93827000000E+00 0.  1.
     999902    2    1    2    0    0  0.15135931533E-01  0.19245373108E-01 -0.31923076002E-03  0.10194436218E+01  0.10191495059E+01 0.  0.
     999903    2    3    3    0    0 -0.57016675088E-01 -0.10490676359E+00 -0.37652448757E-01  0.12702358568E+00  0.21469842500E-01 0.  0.
         14    1    1    2    0    0 -0.15135931533E-01 -0.19245373108E-01  0.31923076002E-03  0.24486378207E-01  0.00000000000E+00 0. -1.
     999901    1    3    3    0    0  0.72152606621E-01  0.12415213670E+00  0.37333217997E-01  0.89242003611E+00  0.88000000000E+00 0.  1.
        -11    1    4    4    0    0 -0.32042450804E-01 -0.70274548286E-01 -0.33273254904E-01  0.84098759819E-01  0.51100000000E-03 0. -1.
         11    1    4    4    0    0 -0.24974224284E-01 -0.34632215303E-01 -0.43791938527E-02  0.42924825861E-01  0.51100000000E-03 0.  1.
</event>
<event>
 8    1  0.1060404E+005  0.1043930E+01  0.7957747E-01            NaN
         13   -1    0    0    0    0  0.00000000000E+00  0.00000000000E+00  0.74505805969E-08  0.10566000000E+00  0.10566000000E+00 0.  1.
     999900   -1    0    0    0    0 -0.00000000000E+00 -0.00000000000E+00 -0.74505805969E-08  0.93827000000E+00  0.93827000000E+00 0. -1.
     999902    2    1    2    0    0 -0.88629782767E-02 -0.21028179187E-01 -0.52350905969E-02  0.10205175487E+01  0.10202489521E+01 0.  0.
     999903    2    3    3    0    0 -0.11535075921E+00  0.12710223256E-02  0.59366686244E-01  0.13146732992E+00  0.21256581449E-01 0.  0.
         14    1    1    2    0    0  0.88629782767E-02  0.21028179187E-01  0.52350905969E-02  0.23412451332E-01  0.00000000000E+00 0.  1.
     999901    1    3    3    0    0  0.10648778093E+00 -0.22299201512E-01 -0.64601776841E-01  0.88905021874E+00  0.88000000000E+00 0.  1.
        -11    1    4    4    0    0 -0.58886832606E-01  0.11161724265E-01  0.31981532333E-01  0.67936166173E-01  0.51100000000E-03 0. -1.
         11    1    4    4    0    0 -0.56463926599E-01 -0.98907019396E-02  0.27385153911E-01  0.63531163752E-01  0.51100000000E-03 0.  1.
</event>
<event>
 8    1  0.1060404E+005  0.1043930E+01  0.7957747E-01            NaN
         13   -1    0    0    0    0  0.00000000000E+00  0.00000000000E+00  0.74505805969E-08  0.10566000000E+00  0.10566000000E+00 0. -1.
     999900   -1    0    0    0    0 -0.00000000000E+00 -0.00000000000E+00 -0.74505805969E-08  0.93827000000E+00  0.93827000000E+00 0. -1.
     999902    2    1    2    0    0  0.25393048468E-02  0.27864645429E-01  0.18168362769E-02  0.10158909660E+01  0.10155039475E+01 0.  0.
     999903    2    3    3    0    0  0.94224121884E-01  0.86250371350E-01 -0.91205606693E-03  0.12919911111E+00  0.19345975339E-01 0.  0.
         14    1    1    2    0    0 -0.25393048468E-02 -0.27864645429E-01 -0.18168362769E-02  0.28039034007E-01  0.00000000000E+00 0. -1.
     999901    1    3    3    0    0 -0.91684817037E-01 -0.58385725921E-01  0.27288923438E-02  0.88669185489E+00  0.88000000000E+00 0. -1.
        -11    1    4    4    0    0  0.55358177512E-01  0.43734799885E-01 -0.86357045729E-02  0.71078105298E-01  0.51100000000E-03 0.  1.
         11    1    4    4    0    0  0.38865944372E-01  0.42515571466E-01  0.77236485060E-02  0.58121005809E-01  0.51100000000E-03 0. -1.
</event>
<event>
 8    1  0.1060404E+005  0.1043930E+01  0.7957747E-01            NaN
         13   -1    0    0    0    0  0.00000000000E+00  0.00000000000E+00  0.74505805969E-08  0.10566000000E+00  0.10566000000E+00 0.  1.
     999900   -1    0    0    0    0 -0.00000000000E+00 -0.00000000000E+00 -0.74505805969E-08  0.93827000000E+00  0.93827000000E+00 0.  1.
     999902    2    1    2    0    0  0.17104571107E-01  0.14881142719E-01 -0.64419195490E-02  0.10203606748E+01  0.10200884244E+01 0.  0.
     999903    2    3    3    0    0  0.73885002045E-01 -0.50537719664E-01 -0.94644348777E-01  0.13171940108E+00  0.19478019143E-01 0.  0.
         14    1    1    2    0    0 -0.17104571107E-01 -0.14881142719E-01  0.64419195490E-02  0.23569325167E-01  0.00000000000E+00 0.  1.
     999901    1    3    3    0    0 -0.56780430938E-01  0.65418862383E-01  0.88202429228E-01  0.88864127375E+00  0.88000000000E+00 0. -1.
        -11    1    4    4    0    0  0.26230047616E-01 -0.98776845808E-02 -0.38298426557E-01  0.47461717714E-01  0.51100000000E-03 0. -1.
         11    1    4    4    0    0  0.47654954429E-01 -0.40660035083E-01 -0.56345922221E-01  0.84257683368E-01  0.51100000000E-03 0.  1.
</event>
<event>
 8    1  0.1460775E+005  0.1043930E+01  0.7957747E-01            NaN
         13   -1    0    0    0    0  0.00000000000E+00  0.00000000000E+00  0.74505805969E-08  0.10566000000E+00  0.10566000000E+00 0.  1.
     999900   -1    0    0    0    0 -0.00000000000E+00 -0.00000000000E+00 -0.74505805969E-08  0.93827000000E+00  0.93827000000E+00 0.  1.
     999902    2    1    2    0    0  0.25730238606E-02 -0.18576188813E-01  0.14733854764E-01  0.10200808550E+01  0.10198020244E+01 0.  0.
     999903    2    3    3    0    0  0.61418729126E-01  0.36714742858E-01 -0.10302313602E+00  0.12857279946E+00  0.28230578742E-01 0.  0.
         14    1    1    2    0    0 -0.25730238606E-02  0.18576188813E-01 -0.14733854764E-01  0.23849145033E-01  0.00000000000E+00 0.  1.
     999901    1    3    3    0    0 -0.58845705265E-01 -0.55290931671E-01  0.11775699078E+00  0.89150805551E+00  0.88000000000E+00 0. -1.
        -11    1    4    4    0    0  0.14551394305E-01  0.13839110018E-02 -0.39319248870E-01  0.41951433093E-01  0.51100000000E-03 0.  1.
         11    1    4    4    0    0  0.46867334821E-01  0.35330831857E-01 -0.63703887146E-01  0.86621366368E-01  0.51100000000E-03 0. -1.
</event>
<event>
 8    1  0.1060404E+005  0.1043930E+01  0.7957747E-01            NaN
         13   -1    0    0    0    0  0.00000000000E+00  0.00000000000E+00  0.74505805969E-08  0.10566000000E+00  0.10566000000E+00 0. -1.
     999900   -1    0    0    0    0 -0.00000000000E+00 -0.00000000000E+00 -0.74505805969E-08  0.93827000000E+00  0.93827000000E+00 0.  1.
     999902    2    1    2    0    0  0.13565287684E-01  0.12527466527E-01 -0.14999395075E-01  0.10201405843E+01  0.10198631650E+01 0.  0.
     999903    2    3    3    0    0 -0.65806180747E-01  0.62007569345E-01 -0.93636974243E-01  0.13169701296E+00  0.20020694181E-01 0.  0.
         14    1    1    2    0    0 -0.13565287684E-01 -0.12527466527E-01  0.14999395075E-01  0.23789415717E-01  0.00000000000E+00 0.  1.
     999901    1    3    3    0    0  0.79371468431E-01 -0.49480102818E-01  0.78637579168E-01  0.88844357133E+00  0.88000000000E+00 0. -1.
        -11    1    4    4    0    0 -0.10085755221E-01  0.21288439021E-01 -0.25321157756E-01  0.34588180719E-01  0.51100000000E-03 0.  1.
         11    1    4    4    0    0 -0.55720425526E-01  0.40719130325E-01 -0.68315816487E-01  0.97108832237E-01  0.51100000000E-03 0. -1.
</event>
<event>
 8    1  0.1060404E+005  0.1043930E+01  0.7957747E-01            NaN
         13   -1    0    0    0    0  0.00000000000E+00  0.00000000000E+00  0.74505805969E-08  0.10566000000E+00  0.10566000000E+00 0.  1.
     999900   -1    0    0    0    0 -0.00000000000E+00 -0.00000000000E+00 -0.74505805969E-08  0.93827000000E+00  0.93827000000E+00 0.  1.
     999902    2    1    2    0    0  0.11609605315E-01  0.23508570087E-02  0.19649229100E-01  0.10209865550E+01  0.10207287318E+01 0.  0.
     999903    2    3    3    0    0 -0.58650180872E-01 -0.11416524213E+00 -0.74662066951E-02  0.13011749292E+00  0.20031762162E-01 0.  0.
         14    1    1    2    0    0 -0.11609605315E-01 -0.23508570087E-02 -0.19649229100E-01  0.22943445000E-01  0.00000000000E+00 0.  1.
     999901    1    3    3    0    0  0.70259786187E-01  0.11651609914E+00  0.27115435795E-01  0.89086906208E+00  0.88000000000E+00 0. -1.
        -11    1    4    4    0    0 -0.33998492899E-01 -0.70553246545E-01 -0.14106891845E-01  0.79579668484E-01  0.51100000000E-03 0. -1.
         11    1    4    4    0    0 -0.24651687973E-01 -0.43611995581E-01  0.66406851502E-02  0.50537824436E-01  0.51100000000E-03 0.  1.
</event>
<event>
 8    1  0.1060404E+005  0.1043930E+01  0.7957747E-01            NaN
         13   -1    0    0    0    0  0.00000000000E+00  0.00000000000E+00  0.74505805969E-08  0.10566000000E+00  0.10566000000E+00 0. -1.
     999900   -1    0    0    0    0 -0.00000000000E+00 -0.00000000000E+00 -0.74505805969E-08  0.93827000000E+00  0.93827000000E+00 0. -1.
     999902    2    1    2    0    0  0.27043846265E-02 -0.21569553401E-01 -0.81654779480E-02  0.10207085797E+01  0.10204443985E+01 0.  0.
     999903    2    3    3    0    0 -0.12527316726E+00  0.13045579804E-01 -0.28509410933E-01  0.13054548407E+00  0.19125462350E-01 0.  0.
         14    1    1    2    0    0 -0.27043846265E-02  0.21569553401E-01  0.81654779480E-02  0.23221420289E-01  0.00000000000E+00 0. -1.
     999901    1    3    3    0    0  0.12797755189E+00 -0.34615133205E-01  0.20343932985E-01  0.89016309564E+00  0.88000000000E+00 0. -1.
        -11    1    4    4    0    0 -0.62413060902E-01  0.15706606275E-02 -0.56954834178E-02  0.62694152824E-01  0.51100000000E-03 0. -1.
         11    1    4    4    0    0 -0.62860106362E-01  0.11474919176E-01 -0.22813927515E-01  0.67851331244E-01  0.51100000000E-03 0.  1.
</event>
<event>
 8    1  0.1060404E+005  0.1043930E+01  0.7957747E-01            NaN
         13   -1    0    0    0    0  0.00000000000E+00  0.00000000000E+00  0.74505805969E-08  0.10566000000E+00  0.10566000000E+00 0.  1.
     999900   -1    0    0    0    0 -0.00000000000E+00 -0.00000000000E+00 -0.74505805969E-08  0.93827000000E+00  0.93827000000E+00 0.  1.
     999902    2    1    2    0    0 -0.23605632128E-01 -0.28028262122E-02 -0.30211892703E-02  0.10199673356E+01  0.10196858125E+01 0.  0.
     999903    2    3    3    0    0  0.68106189820E-01 -0.76185738426E-01  0.72694149923E-01  0.12894044332E+00  0.29974633592E-01 0.  0.
         14    1    1    2    0    0  0.23605632128E-01  0.28028262122E-02  0.30211892703E-02  0.23962664450E-01  0.00000000000E+00 0. -1.
     999901    1    3    3    0    0 -0.91711821948E-01  0.73382912214E-01 -0.75715339193E-01  0.89102689223E+00  0.88000000000E+00 0.  1.
        -11    1    4    4    0    0  0.68159894545E-01 -0.74553594620E-01  0.62901563670E-01  0.11899948541E+00  0.51100000000E-03 0. -1.
         11    1    4    4    0    0 -0.53704724251E-04 -0.16321438065E-02  0.97925862530E-02  0.99409579079E-02  0.51100000000E-03 0.  1.
</event>
<event>
 8    1  0.1060404E+005  0.1043930E+01  0.7957747E-01            NaN
         13   -1    0    0    0    0  0.00000000000E+00  0.00000000000E+00  0.74505805969E-08  0.10566000000E+00  0.10566000000E+00 0.  1.
     999900   -1    0    0    0    0 -0.00000000000E+00 -0.00000000000E+00 -0.74505805969E-08  0.93827000000E+00  0.93827000000E+00 0. -1.
     999902    2    1    2    0    0  0.10275326786E-01  0.67354185142E-02  0.22156919125E-01  0.10185947031E+01  0.10182795746E+01 0.  0.
     999903    2    3    3    0    0 -0.74839470400E-01 -0.82868926261E-01 -0.55954562976E-01  0.12653255789E+00  0.20282253814E-01 0.  0.
         14    1    1    2    0    0 -0.10275326786E-01 -0.67354185142E-02 -0.22156919125E-01  0.25335296885E-01  0.00000000000E+00 0. -1.
     999901    1    3    3    0    0  0.85114797186E-01  0.89604344775E-01  0.78111482101E-01  0.89206214522E+00  0.88000000000E+00 0. -1.
        -11    1    4    4    0    0 -0.46148587782E-01 -0.60989123518E-01 -0.45368219423E-01  0.88926384141E-01  0.51100000000E-03 0.  1.
         11    1    4    4    0    0 -0.28690882618E-01 -0.21879802743E-01 -0.10586343553E-01  0.37606173752E-01  0.51100000000E-03 0. -1.
</event>
<event>
 8    1  0.1060404E+005  0.1043930E+01  0.7957747E-01            NaN
         13   -1    0    0    0    0  0.00000000000E+00  0.00000000000E+00  0.74505805969E-08  0.10566000000E+00  0.10566000000E+00 0. -1.
     999900   -1    0    0    0    0 -0.00000000000E+00 -0.00000000000E+00 -0.74505805969E-08  0.93827000000E+00  0.93827000000E+00 0.  1.
     999902    2    1    2    0    0  0.67358940981E-02  0.18927562472E-01 -0.10986294715E-01  0.10210318874E+01  0.10207750935E+01 0.  0.
     999903    2    3    3    0    0  0.87007661321E-01  0.57704923129E-01 -0.81302440328E-01  0.13373734741E+00  0.19375242106E-01 0.  0.
         14    1    1    2    0    0 -0.67358940981E-02 -0.18927562472E-01  0.10986294715E-01  0.22898112630E-01  0.00000000000E+00 0. -1.
     999901    1    3    3    0    0 -0.80271767223E-01 -0.38777360657E-01  0.70316145612E-01  0.88729453996E+00  0.88000000000E+00 0. -1.
        -11    1    4    4    0    0  0.31540455116E-01  0.16435486000E-01 -0.17426957098E-01  0.39609158836E-01  0.51100000000E-03 0.  1.
         11    1    4    4    0    0  0.55467206205E-01  0.41269437129E-01 -0.63875483229E-01  0.94128188572E-01  0.51100000000E-03 0. -1.
</event>
<event>
 8    1  0.1060404E+005  0.1043930E+01  0.7957747E-01            NaN
         13   -1    0    0    0    0  0.00000000000E+00  0.00000000000E+00  0.74505805969E-08  0.10566000000E+00  0.10566000000E+00 0. -1.
     999900   -1    0    0    0    0 -0.00000000000E+00 -0.00000000000E+00 -0.74505805969E-08  0.93827000000E+00  0.93827000000E+00 0. -1.
     999902    2    1    2    0    0 -0.56676956991E-02 -0.14152584540E-01 -0.20638254841E-01  0.10182715514E+01  0.10179482287E+01 0.  0.
     999903    2    3    3    0    0 -0.48238547418E-01  0.48578334479E-01 -0.10942948677E+00  0.13056026469E+00  0.19605053015E-01 0.  0.
         14    1    1    2    0    0  0.56676956991E-02  0.14152584540E-01  0.20638254841E-01  0.25658448639E-01  0.00000000000E+00 0. -1.
     999901    1    3    3    0    0  0.42570851719E-01 -0.62730919018E-01  0.88791231928E-01  0.88771128667E+00  0.88000000000E+00 0.  1.
        -11    1    4    4    0    0 -0.41352161818E-02  0.15378774697E-01 -0.22089365457E-01  0.27236150817E-01  0.51100000000E-03 0.  1.
         11    1    4    4    0    0 -0.44103331236E-01  0.33199559782E-01 -0.87340121311E-01  0.10332411387E+00  0.51100000000E-03 0. -1.
</event>
<event>
 8    1  0.1060404E+005  0.1043930E+01  0.7957747E-01            NaN
         13   -1    0    0    0    0  0.00000000000E+00  0.00000000000E+00  0.74505805969E-08  0.10566000000E+00  0.10566000000E+00 0.  1.
     999900   -1    0    0    0    0 -0.00000000000E+00 -0.00000000000E+00 -0.74505805969E-08  0.93827000000E+00  0.93827000000E+00 0. -1.
     999902    2    1    2    0    0 -0.45152282574E-02  0.15687066490E-01 -0.17542139002E-01  0.10199675714E+01  0.10196860541E+01 0.  0.
     999903    2    3    3    0    0 -0.11254886590E+00  0.49588319032E-01  0.39505433098E-01  0.13088096865E+00  0.21045192123E-01 0.  0.
         14    1    1    2    0    0  0.45152282574E-02 -0.15687066490E-01  0.17542139002E-01  0.23962428550E-01  0.00000000000E+00 0.  1.
     999901    1    3    3    0    0  0.10803363764E+00 -0.33901252543E-01 -0.57047572100E-01  0.88908660279E+00  0.88000000000E+00 0. -1.
        -11    1    4    4    0    0 -0.56314827687E-01  0.35649588126E-01  0.17565439348E-01  0.68927924178E-01  0.51100000000E-03 0.  1.
         11    1    4    4    0    0 -0.56234038215E-01  0.13938730906E-01  0.21939993750E-01  0.61953044477E-01  0.51100000000E-03 0. -1.
</event>
<event>
 8    1  0.1060404E+005  0.1043930E+01  0.7957747E-01            NaN
         13   -1    0    0    0    0  0.00000000000E+00  0.00000000000E+00  0.74505805969E-08  0.10566000000E+00  0.10566000000E+00 0. -1.
     999900   -1    0    0    0    0 -0.00000000000E+00 -0.00000000000E+00 -0.74505805969E-08  0.93827000000E+00  0.93827000000E+00 0. -1.
     999902    2    1    2    0    0 -0.79476553546E-02  0.23795162827E-02  0.22260063679E-01  0.10201742058E+01  0.10198975794E+01 0.  0.
     999903    2    3    3    0    0 -0.15605803590E-01 -0.13390401859E-02  0.13097735171E+00  0.13344317351E+00  0.20166302600E-01 0.  0.
         14    1    1    2    0    0  0.79476553546E-02 -0.23795162827E-02 -0.22260063679E-01  0.23755794206E-01  0.00000000000E+00 0.  1.
     999901    1    3    3    0    0  0.76581482350E-02  0.37185564685E-02 -0.10871728803E+00  0.88673103228E+00  0.88000000000E+00 0. -1.
        -11    1    4    4    0    0 -0.11424461457E-01  0.66326195016E-02  0.42526274951E-01  0.44533752854E-01  0.51100000000E-03 0.  1.
         11    1    4    4    0    0 -0.41813421328E-02 -0.79716596874E-02  0.88451076762E-01  0.88909420657E-01  0.51100000000E-03 0. -1.
</event>
<event>
 8    1  0.1060404E+005  0.1043930E+01  0.7957747E-01            NaN
         13   -1    0    0    0    0  0.00000000000E+00  0.00000000000E+00  0.74505805969E-08  0.10566000000E+00  0.10566000000E+00 0. -1.
     999900   -1    0    0    0    0 -0.00000000000E+00 -0.00000000000E+00 -0.74505805969E-08  0.93827000000E+00  0.93827000000E+00 0.  1.
     999902    2    1    2    0    0  0.16858983695E-01 -0.14782459593E-01  0.78859493114E-02  0.10201616463E+01  0.10198847238E+01 0.  0.
     999903    2    3    3    0    0  0.57437717516E-02 -0.90660455486E-01 -0.92418502742E-01  0.13114983459E+00  0.20169044603E-01 0.  0.
         14    1    1    2    0    0 -0.16858983695E-01  0.14782459593E-01 -0.78859493114E-02  0.23768353738E-01  0.00000000000E+00 0.  1.
     999901    1    3    3    0    0  0.11115211943E-01  0.75877995893E-01  0.10030445205E+00  0.88901181168E+00  0.88000000000E+00 0. -1.
        -11    1    4    4    0    0 -0.13673536237E-03 -0.43971100435E-01 -0.58287999680E-01  0.73015261402E-01  0.51100000000E-03 0.  1.
         11    1    4    4    0    0  0.58805071140E-02 -0.46689355052E-01 -0.34130503062E-01  0.58134573184E-01  0.51100000000E-03 0. -1.
</event>
<event>
 8    1  0.1060404E+005  0.1043930E+01  0.7957747E-01            NaN
         13   -1    0    0    0    0  0.00000000000E+00  0.00000000000E+00  0.74505805969E-08  0.10566000000E+00  0.10566000000E+00 0. -1.
     999900   -1    0    0    0    0 -0.00000000000E+00 -0.00000000000E+00 -0.74505805969E-08  0.93827000000E+00  0.93827000000E+00 0. -1.
     999902    2    1    2    0    0  0.63637388411E-02  0.16085737140E-01 -0.16038043272E-01  0.10203404484E+01  0.10200677251E+01 0.  0.
     999903    2    3    3    0    0  0.53506623103E-01 -0.39572518771E-01 -0.11224006639E+00  0.13209773259E+00  0.20567826671E-01 0.  0.
         14    1    1    2    0    0 -0.63637388411E-02 -0.16085737140E-01  0.16038043272E-01  0.23589551572E-01  0.00000000000E+00 0. -1.
     999901    1    3    3    0    0 -0.47142884261E-01  0.55658255912E-01  0.96202023119E-01  0.88824271584E+00  0.88000000000E+00 0. -1.
        -11    1    4    4    0    0  0.16207554997E-01 -0.13549919816E-01 -0.55445649956E-01  0.59336046262E-01  0.51100000000E-03 0. -1.
         11    1    4    4    0    0  0.37299068106E-01 -0.26022598955E-01 -0.56794416436E-01  0.72761686327E-01  0.51100000000E-03 0.  1.
</event>
<event>
 8    1  0.1060404E+005  0.1043930E+01  0.7957747E-01            NaN
         13   -1    0    0    0    0  0.00000000000E+00  0.00000000000E+00  0.74505805969E-08  0.10566000000E+00  0.10566000000E+00 0.  1.
     999900   -1    0    0    0    0 -0.00000000000E+00 -0.00000000000E+00 -0.74505805969E-08  0.93827000000E+00  0.93827000000E+00 0. -1.
     999902    2    1    2    0    0 -0.16281574473E-01  0.15933203450E-01 -0.88067473849E-02  0.10195063344E+01  0.10192137413E+01 0.  0.
     999903    2    3    3    0    0  0.70369322272E-01 -0.15918274837E-01 -0.10554617676E+00  0.12940442356E+00  0.20006909230E-01 0.  0.
         14    1    1    2    0    0  0.16281574473E-01 -0.15933203450E-01  0.88067473849E-02  0.24423665552E-01  0.00000000000E+00 0.  1.
     999901    1    3    3    0    0 -0.86650896745E-01  0.31851478287E-01  0.96739429374E-01  0.89010191089E+00  0.88000000000E+00 0.  1.
        -11    1    4    4    0    0  0.69698358667E-02 -0.55658280551E-02 -0.23897838186E-01  0.25513228822E-01  0.51100000000E-03 0.  1.
         11    1    4    4    0    0  0.63399486405E-01 -0.10352446782E-01 -0.81648338573E-01  0.10389119474E+00  0.51100000000E-03 0. -1.
</event>
<event>
 8    1  0.1060404E+005  0.1043930E+01  0.7957747E-01            NaN
         13   -1    0    0    0    0  0.00000000000E+00  0.00000000000E+00  0.74505805969E-08  0.10566000000E+00  0.10566000000E+00 0.  1.
     999900   -1    0    0    0    0 -0.00000000000E+00 -0.00000000000E+00 -0.74505805969E-08  0.93827000000E+00  0.93827000000E+00 0. -1.
     999902    2    1    2    0    0 -0.17229202295E-01 -0.89302932715E-02 -0.12626843568E-01  0.10207776194E+01  0.10205150246E+01 0.  0.
     999903    2    3    3    0    0 -0.11733989433E+00 -0.59952813118E-01 -0.70577604875E-02  0.13361559198E+00  0.20983894637E-01 0.  0.
         14    1    1    2    0    0  0.17229202295E-01  0.89302932715E-02  0.12626843568E-01  0.23152380615E-01  0.00000000000E+00 0.  1.
     999901    1    3    3    0    0  0.10011069203E+00  0.51022519846E-01 -0.55690830801E-02  0.88716202741E+00  0.88000000000E+00 0. -1.
        -11    1    4    4    0    0 -0.33535732380E-01 -0.27286488593E-01 -0.60839714306E-02  0.43663183981E-01  0.51100000000E-03 0.  1.
         11    1    4    4    0    0 -0.83804161949E-01 -0.32666324524E-01 -0.97378905689E-03  0.89952407995E-01  0.51100000000E-03 0. -1.
</event>
<event>
 8    1  0.1060404E+005  0.1043930E+01  0.7957747E-01            NaN
         13   -1    0    0    0    0  0.00000000000E+00  0.00000000000E+00  0.74505805969E-08  0.10566000000E+00  0.10566000000E+00 0.  1.
     999900   -1    0    0    0    0 -0.00000000000E+00 -0.00000000000E+00 -0.74505805969E-08  0.93827000000E+00  0.93827000000E+00 0. -1.
     999902    2    1    2    0    0 -0.10491661542E-01  0.82731718838E-02 -0.19181450372E-01  0.10205537648E+01  0.10202860081E+01 0.  0.
     999903    2    3    3    0    0 -0.11392637088E+00  0.42059655209E-01 -0.51370575337E-01  0.13326778759E+00  0.19316692759E-01 0.  0.
         14    1    1    2    0    0  0.10491661542E-01 -0.82731718838E-02  0.19181450372E-01  0.23376235225E-01  0.00000000000E+00 0. -1.
     999901    1    3    3    0    0  0.10343470934E+00 -0.33786483326E-01  0.32189124965E-01  0.88728597719E+00  0.88000000000E+00 0.  1.
        -11    1    4    4    0    0 -0.39066674900E-01  0.23600297309E-01 -0.22982217964E-01  0.51104036870E-01  0.51100000000E-03 0. -1.
         11    1    4    4    0    0 -0.74859695980E-01  0.18459357900E-01 -0.28388357373E-01  0.82163750715E-01  0.51100000000E-03 0.  1.
</event>
<event>
 8    1  0.1060404E+005  0.1043930E+01  0.7957747E-01            NaN
         13   -1    0    0    0    0  0.00000000000E+00  0.00000000000E+00  0.74505805969E-08  0.10566000000E+00  0.10566000000E+00 0. -1.
     999900   -1    0    0    0    0 -0.00000000000E+00 -0.00000000000E+00 -0.74505805969E-08  0.93827000000E+00  0.93827000000E+00 0.  1.
     999902    2    1    2    0    0 -0.70617916213E-02  0.18165854837E-01  0.13577921812E-01  0.10201765341E+01  0.10198999625E+01 0.  0.
     999903    2    3    3    0    0  0.26865101642E-01  0.12445666847E+00 -0.28997259961E-01  0.13211042321E+00  0.20028150787E-01 0.  0.
         14    1    1    2    0    0  0.70617916213E-02 -0.18165854837E-01 -0.13577921812E-01  0.23753465928E-01  0.00000000000E+00 0.  1.
     999901    1    3    3    0    0 -0.33926893263E-01 -0.10629081363E+00  0.42575181773E-01  0.88806611086E+00  0.88000000000E+00 0. -1.
        -11    1    4    4    0    0  0.18337807544E-01  0.40094856682E-01 -0.94758359296E-02  0.45099061026E-01  0.51100000000E-03 0. -1.
         11    1    4    4    0    0  0.85272940980E-02  0.84361811788E-01 -0.19521424031E-01  0.87011362189E-01  0.51100000000E-03 0.  1.
</event>
<event>
 8    1  0.1060404E+005  0.1043930E+01  0.7957747E-01            NaN
         13   -1    0    0    0    0  0.00000000000E+00  0.00000000000E+00  0.74505805969E-08  0.10566000000E+00  0.10566000000E+00 0.  1.
     999900   -1    0    0    0    0 -0.00000000000E+00 -0.00000000000E+00 -0.74505805969E-08  0.93827000000E+00  0.93827000000E+00 0. -1.
     999902    2    1    2    0    0  0.42909525007E-02  0.11324867313E-01  0.20006264219E-01  0.10205437754E+01  0.10202757872E+01 0.  0.
     999903    2    3    3    0    0  0.12553626489E-01 -0.38783219378E-01 -0.11971010738E+00  0.12807542491E+00  0.20274935627E-01 0.  0.
         14    1    1    2    0    0 -0.42909525007E-02 -0.11324867313E-01 -0.20006264219E-01  0.23386224600E-01  0.00000000000E+00 0. -1.
     999901    1    3    3    0    0 -0.82626739884E-02  0.50108086692E-01  0.13971637160E+00  0.89246835049E+00  0.88000000000E+00 0.  1.
        -11    1    4    4    0    0  0.33428538083E-02 -0.41580657031E-03 -0.28396031459E-01  0.28599707871E-01  0.51100000000E-03 0. -1.
         11    1    4    4    0    0  0.92107726808E-02 -0.38367412808E-01 -0.91314075918E-01  0.99475717040E-01  0.51100000000E-03 0.  1.
</event>
<event>
 8    1  0.1060404E+005  0.1043930E+01  0.7957747E-01            NaN
         13   -1    0    0    0    0  0.00000000000E+00  0.00000000000E+00  0.74505805969E-08  0.10566000000E+00  0.10566000000E+00 0.  1.
     999900   -1    0    0    0    0 -0.00000000000E+00 -0.00000000000E+00 -0.74505805969E-08  0.93827000000E+00  0.93827000000E+00 0. -1.
     999902    2    1    2    0    0 -0.17455754180E-02  0.23561132461E-01 -0.77243738046E-02  0.10190736136E+01  0.10187704304E+01 0.  0.
     999903    2    3    3    0    0 -0.84332313026E-01  0.55279541533E-01  0.79988589923E-01  0.13029906919E+00  0.20295471962E-01 0.  0.
         14    1    1    2    0    0  0.17455754180E-02 -0.23561132461E-01  0.77243738046E-02  0.24856386444E-01  0.00000000000E+00 0.  1.
     999901    1    3    3    0    0  0.82586737608E-01 -0.31718409072E-01 -0.87712963728E-01  0.88877454436E+00  0.88000000000E+00 0. -1.
        -11    1    4    4    0    0 -0.24610388419E-01  0.26925384006E-01  0.32960052225E-01  0.49165777586E-01  0.51100000000E-03 0.  1.
         11    1    4    4    0    0 -0.59721924608E-01  0.28354157527E-01  0.47028537698E-01  0.81133291607E-01  0.51100000000E-03 0. -1.
</event>
<event>
 8    1  0.1060404E+005  0.1043930E+01  0.7957747E-01            NaN
         13   -1    0    0    0    0  0.00000000000E+00  0.00000000000E+00  0.74505805969E-08  0.10566000000E+00  0.10566000000E+00 0. -1.
     999900   -1    0    0    0    0 -0.00000000000E+00 -0.00000000000E+00 -0.74505805969E-08  0.93827000000E+00  0.93827000000E+00 0. -1.
     999902    2    1    2    0    0  0.17808853632E-01  0.15221426492E-01  0.10302540898E-01  0.10183372385E+01  0.10180155902E+01 0.  0.
     999903    2    3    3    0    0  0.36076702177E-01  0.93673910887E-01  0.83363290819E-01  0.13164316512E+00  0.17440029958E-01 0.  0.
         14    1    1    2    0    0 -0.17808853632E-01 -0.15221426492E-01 -0.10302540898E-01  0.25592761498E-01  0.00000000000E+00 0. -1.
     999901    1    3    3    0    0 -0.18267848545E-01 -0.78452484395E-01 -0.73060749922E-01  0.88669407339E+00  0.88000000000E+00 0. -1.
        -11    1    4    4    0    0  0.25994514433E-01  0.83875931797E-01  0.72221275140E-01  0.11369723136E+00  0.51100000000E-03 0. -1.
         11    1    4    4    0    0  0.10082187744E-01  0.97979790891E-02  0.11142015679E-01  0.17945933755E-01  0.51100000000E-03 0.  1.
</event>
<event>
 8    1  0.1060404E+005  0.1043930E+01  0.7957747E-01            NaN
         13   -1    0    0    0    0  0.00000000000E+00  0.00000000000E+00  0.74505805969E-08  0.10566000000E+00  0.10566000000E+00 0. -1.
     999900   -1    0    0    0    0 -0.00000000000E+00 -0.00000000000E+00 -0.74505805969E-08  0.93827000000E+00  0.93827000000E+00 0. -1.
     999902    2    1    2    0    0  0.22247402155E-01 -0.10590226524E-02  0.15271958033E-02  0.10216051090E+01  0.10213611496E+01 0.  0.
     999903    2    3    3    0    0 -0.79636887041E-02 -0.71824590899E-01 -0.10796210689E+00  0.13148804755E+00  0.20275550004E-01 0.  0.
         14    1    1    2    0    0 -0.22247402155E-01  0.10590226524E-02 -0.15271958033E-02  0.22324891011E-01  0.00000000000E+00 0. -1.
     999901    1    3    3    0    0  0.30211090859E-01  0.70765568247E-01  0.10948930270E+00  0.89011706144E+00  0.88000000000E+00 0.  1.
        -11    1    4    4    0    0 -0.10749974069E-01 -0.56946646950E-01 -0.96214223290E-01  0.11232061443E+00  0.51100000000E-03 0.  1.
         11    1    4    4    0    0  0.27862853652E-02 -0.14877943949E-01 -0.11747883603E-01  0.19167433121E-01  0.51100000000E-03 0. -1.
</event>
<event>
 8    1  0.1060404E+005  0.1043930E+01  0.7957747E-01            NaN
         13   -1    0    0    0    0  0.00000000000E+00  0.00000000000E+00  0.74505805969E-08  0.10566000000E+00  0.10566000000E+00 0. -1.
     999900   -1    0    0    0    0 -0.00000000000E+00 -0.00000000000E+00 -0.74505805969E-08  0.93827000000E+00  0.93827000000E+00 0.  1.
     999902    2    1    2    0    0  0.19317662240E-01  0.35469289980E-03 -0.41989571900E-02  0.10241580724E+01  0.10239672007E+01 0.  0.
     999903    2    3    3    0    0 -0.93980975513E-01  0.61461621982E-01  0.66416709730E-01  0.13199373182E+00  0.20030256459E-01 0.  0.
         14    1    1    2    0    0 -0.19317662240E-01 -0.35469289980E-03  0.41989571900E-02  0.19771927649E-01  0.00000000000E+00 0.  1.
     999901    1    3    3    0    0  0.11329863775E+00 -0.61106929082E-01 -0.70615666920E-01  0.89216434053E+00  0.88000000000E+00 0. -1.
        -11    1    4    4    0    0 -0.71683112446E-01  0.38533615355E-01  0.40947998761E-01  0.91106025299E-01  0.51100000000E-03 0. -1.
         11    1    4    4    0    0 -0.22297863067E-01  0.22928006627E-01  0.25468710970E-01  0.40887706523E-01  0.51100000000E-03 0.  1.
</event>
<event>
 8    1  0.1060404E+005  0.1043930E+01  0.7957747E-01            NaN
         13   -1    0    0    0    0  0.00000000000E+00  0.00000000000E+00  0.74505805969E-08  0.10566000000E+00  0.10566000000E+00 0.  1.
     999900   -1    0    0    0    0 -0.00000000000E+00 -0.00000000000E+00 -0.74505805969E-08  0.93827000000E+00  0.93827000000E+00 0. -1.
     999902    2    1    2    0    0  0.21982681158E-02  0.23697412155E-01 -0.13134229108E-02  0.10200946312E+01  0.10198161265E+01 0.  0.
     999903    2    3    3    0    0 -0.33173807654E-02  0.10741634276E+00 -0.76682042975E-01  0.13289695842E+00  0.15237786372E-01 0.  0.
         14    1    1    2    0    0 -0.21982681158E-02 -0.23697412155E-01  0.13134229108E-02  0.23835368788E-01  0.00000000000E+00 0. -1.
     999901    1    3    3    0    0  0.55156488812E-02 -0.83718930608E-01  0.75368620064E-01  0.88719767280E+00  0.88000000000E+00 0. -1.
        -11    1    4    4    0    0  0.27428692722E-02  0.70084266579E-01 -0.43154808457E-01  0.82352452106E-01  0.51100000000E-03 0.  1.
         11    1    4    4    0    0 -0.60602500377E-02  0.37332076183E-01 -0.33527234518E-01  0.50544506310E-01  0.51100000000E-03 0. -1.
</event>
<event>
 8    1  0.1060404E+005  0.1043930E+01  0.7957747E-01            NaN
         13   -1    0    0    0    0  0.00000000000E+00  0.00000000000E+00  0.74505805969E-08  0.10566000000E+00  0.10566000000E+00 0.  1.
     999900   -1    0    0    0    0 -0.00000000000E+00 -0.00000000000E+00 -0.74505805969E-08  0.93827000000E+00  0.93827000000E+00 0. -1.
     999902    2    1    2    0    0 -0.83492969979E-02  0.10638162473E-01 -0.15164579656E-01  0.10236113943E+01  0.10234097131E+01 0.  0.
     999903    2    3    3    0    0  0.10779637711E+00 -0.62918031946E-01  0.36090585383E-01  0.13146374773E+00  0.20036191062E-01 0.  0.
         14    1    1    2    0    0  0.83492969979E-02 -0.10638162473E-01  0.15164579656E-01  0.20318605693E-01  0.00000000000E+00 0.  1.
     999901    1    3    3    0    0 -0.11614567411E+00  0.73556194420E-01 -0.51255165039E-01  0.89214764658E+00  0.88000000000E+00 0. -1.
        -11    1    4    4    0    0  0.40364915395E-01 -0.34999413500E-01  0.15432086782E-01  0.55612010966E-01  0.51100000000E-03 0.  1.
         11    1    4    4    0    0  0.67431461712E-01 -0.27918618446E-01  0.20658498601E-01  0.75851736764E-01  0.51100000000E-03 0. -1.
</event>
<event>
 8    1  0.1060404E+005  0.1043930E+01  0.7957747E-01            NaN
         13   -1    0    0    0    0  0.00000000000E+00  0.00000000000E+00  0.74505805969E-08  0.10566000000E+00  0.10566000000E+00 0.  1.
     999900   -1    0    0    0    0 -0.00000000000E+00 -0.00000000000E+00 -0.74505805969E-08  0.93827000000E+00  0.93827000000E+00 0. -1.
     999902    2    1    2    0    0 -0.87714670538E-02  0.57291110404E-02 -0.22861299800E-01  0.10187824280E+01  0.10184720101E+01 0.  0.
     999903    2    3    3    0    0  0.34264728077E-01 -0.92874206748E-01 -0.82151118499E-01  0.13024992385E+00  0.20409471436E-01 0.  0.
         14    1    1    2    0    0  0.87714670538E-02 -0.57291110404E-02  0.22861299800E-01  0.25147571973E-01  0.00000000000E+00 0.  1.
     999901    1    3    3    0    0 -0.43036195131E-01  0.98603317788E-01  0.59289818699E-01  0.88853250417E+00  0.88000000000E+00 0.  1.
        -11    1    4    4    0    0  0.27286376536E-01 -0.55031115097E-01 -0.40692577492E-01  0.73682541740E-01  0.51100000000E-03 0. -1.
         11    1    4    4    0    0  0.69783515414E-02 -0.37843091651E-01 -0.41458541007E-01  0.56567382115E-01  0.51100000000E-03 0.  1.
</event>
<event>
 8    1  0.1060404E+005  0.1043930E+01  0.7957747E-01            NaN
         13   -1    0    0    0    0  0.00000000000E+00  0.00000000000E+00  0.74505805969E-08  0.10566000000E+00  0.10566000000E+00 0. -1.
     999900   -1    0    0    0    0 -0.00000000000E+00 -0.00000000000E+00 -0.74505805969E-08  0.93827000000E+00  0.93827000000E+00 0. -1.
     999902    2    1    2    0    0  0.16396457890E-01  0.13800469798E-01  0.98820274929E-02  0.10203301851E+01  0.10200572216E+01 0.  0.
     999903    2    3    3    0    0  0.74340601549E-01 -0.10211931112E+00 -0.23950781047E-01  0.13019560067E+00  0.20551782873E-01 0.  0.
         14    1    1    2    0    0 -0.16396457890E-01 -0.13800469798E-01 -0.98820274929E-02  0.23599814943E-01  0.00000000000E+00 0. -1.
     999901    1    3    3    0    0 -0.57944143659E-01  0.11591978091E+00  0.33832808540E-01  0.89013458439E+00  0.88000000000E+00 0.  1.
        -11    1    4    4    0    0  0.43436603232E-01 -0.70277771693E-01 -0.78589818356E-02  0.82992339471E-01  0.51100000000E-03 0.  1.
         11    1    4    4    0    0  0.30903998316E-01 -0.31841539423E-01 -0.16091799211E-01  0.47203261197E-01  0.51100000000E-03 0. -1.
</event>
<event>
 8    1  0.1060404E+005  0.1043930E+01  0.7957747E-01            NaN
         13   -1    0    0    0    0  0.00000000000E+00  0.00000000000E+00  0.74505805969E-08  0.10566000000E+00  0.10566000000E+00 0.  1.
     999900   -1    0    0    0    0 -0.00000000000E+00 -0.00000000000E+00 -0.74505805969E-08  0.93827000000E+00  0.93827000000E+00 0.  1.
     999902    2    1    2    0    0 -0.18683838321E-01 -0.11630519909E-01 -0.92426049829E-02  0.10200599234E+01  0.10197805974E+01 0.  0.
     999903    2    3    3    0    0  0.65029577625E-01 -0.96879845548E-01  0.53504867630E-01  0.12977197629E+00  0.19064221233E-01 0.  0.
         14    1    1    2    0    0  0.18683838321E-01  0.11630519909E-01  0.92426049829E-02  0.23870076552E-01  0.00000000000E+00 0.  1.
     999901    1    3    3    0    0 -0.83713415945E-01  0.85249325640E-01 -0.62747472613E-01  0.89028794716E+00  0.88000000000E+00 0.  1.
        -11    1    4    4    0    0  0.36469794445E-01 -0.38175961382E-01  0.20733030808E-01  0.56723624900E-01  0.51100000000E-03 0. -1.
         11    1    4    4    0    0  0.28559783180E-01 -0.58703884166E-01  0.32771836823E-01  0.73048351393E-01  0.51100000000E-03 0.  1.
</event>
<event>
 8    1  0.1060404E+005  0.1043930E+01  0.7957747E-01            NaN
         13   -1    0    0    0    0  0.00000000000E+00  0.00000000000E+00  0.74505805969E-08  0.10566000000E+00  0.10566000000E+00 0.  1.
     999900   -1    0    0    0    0 -0.00000000000E+00 -0.00000000000E+00 -0.74505805969E-08  0.93827000000E+00  0.93827000000E+00 0. -1.
     999902    2    1    2    0    0  0.14365594865E-01 -0.57081568539E-02  0.17330366741E-01  0.10207072745E+01  0.10204430632E+01 0.  0.
     999903    2    3    3    0    0 -0.64876298907E-01  0.74371737323E-01  0.83142348501E-01  0.13108753315E+00  0.23047814636E-01 0.  0.
         14    1    1    2    0    0 -0.14365594865E-01  0.57081568539E-02 -0.17330366741E-01  0.23222725548E-01  0.00000000000E+00 0.  1.
     999901    1    3    3    0    0  0.79241893772E-01 -0.80079894177E-01 -0.65811981761E-01  0.88961974131E+00  0.88000000000E+00 0. -1.
        -11    1    4    4    0    0 -0.36041277396E-01  0.52218730094E-01  0.41578234290E-01  0.75860267180E-01  0.51100000000E-03 0.  1.
         11    1    4    4    0    0 -0.28835021511E-01  0.22153007229E-01  0.41564114211E-01  0.55227265965E-01  0.51100000000E-03 0. -1.
</event>
<event>
 8    1  0.1060404E+005  0.1043930E+01  0.7957747E-01            NaN
         13   -1    0    0    0    0  0.00000000000E+00  0.00000000000E+00  0.74505805969E-08  0.10566000000E+00  0.10566000000E+00 0.  1.
     999900   -1    0    0    0    0 -0.00000000000E+00 -0.00000000000E+00 -0.74505805969E-08  0.93827000000E+00  0.93827000000E+00 0. -1.
     999902    2    1    2    0    0 -0.15472369968E-01 -0.12784644549E-01 -0.89388276807E-02  0.10219585638E+01  0.10217223508E+01 0.  0.
     999903    2    3    3    0    0  0.71616341607E-03 -0.64413400831E-01  0.11329893109E+00  0.13186325049E+00  0.20041705244E-01 0.  0.
         14    1    1    2    0    0  0.15472369968E-01  0.12784644549E-01  0.89388276807E-02  0.21971436207E-01  0.00000000000E+00 0.  1.
     999901    1    3    3    0    0 -0.16188533384E-01  0.51628756282E-01 -0.12223775877E+00  0.89009531330E+00  0.88000000000E+00 0. -1.
        -11    1    4    4    0    0 -0.23019212405E-02 -0.12439270733E-01  0.39996890291E-01  0.41952909932E-01  0.51100000000E-03 0. -1.
         11    1    4    4    0    0  0.30180846566E-02 -0.51974130098E-01  0.73302040795E-01  0.89910340563E-01  0.51100000000E-03 0.  1.
</event>
<event>
 8    1  0.1060404E+005  0.1043930E+01  0.7957747E-01            NaN
         13   -1    0    0    0    0  0.00000000000E+00  0.00000000000E+00  0.74505805969E-08  0.10566000000E+00  0.10566000000E+00 0. -1.
     999900   -1    0    0    0    0 -0.00000000000E+00 -0.00000000000E+00 -0.74505805969E-08  0.93827000000E+00  0.93827000000E+00 0. -1.
     999902    2    1    2    0    0  0.81634434977E-02 -0.14189179331E-01 -0.16808628469E-01  0.10204671653E+01  0.10201973980E+01 0.  0.
     999903    2    3    3    0    0  0.12095536566E+00 -0.12989715200E-01 -0.49172385774E-01  0.13267728636E+00  0.19657202476E-01 0.  0.
         14    1    1    2    0    0 -0.81634434977E-02  0.14189179331E-01  0.16808628469E-01  0.23462834672E-01  0.00000000000E+00 0. -1.
     999901    1    3    3    0    0 -0.11279192216E+00 -0.11994641304E-02  0.32363757305E-01  0.88778987897E+00  0.88000000000E+00 0.  1.
        -11    1    4    4    0    0  0.78387770177E-01 -0.15955157073E-01 -0.25987658068E-01  0.84112002969E-01  0.51100000000E-03 0.  1.
         11    1    4    4    0    0  0.42567595483E-01  0.29654418729E-02 -0.23184727706E-01  0.48565283387E-01  0.51100000000E-03 0. -1.
</event>
<event>
 8    1  0.1060404E+005  0.1043930E+01  0.7957747E-01            NaN
         13   -1    0    0    0    0  0.00000000000E+00  0.00000000000E+00  0.74505805969E-08  0.10566000000E+00  0.10566000000E+00 0.  1.
     999900   -1    0    0    0    0 -0.00000000000E+00 -0.00000000000E+00 -0.74505805969E-08  0.93827000000E+00  0.93827000000E+00 0.  1.
     999902    2    1    2    0    0  0.42480935925E-02 -0.77470993270E-02  0.21492387679E-01  0.10206923888E+01  0.10204278348E+01 0.  0.
     999903    2    3    3    0    0  0.54614915236E-01  0.41501013577E-01 -0.10691047388E+00  0.12858842163E+00  0.20000241457E-01 0.  0.
         14    1    1    2    0    0 -0.42480935925E-02  0.77470993270E-02 -0.21492387679E-01  0.23237611222E-01  0.00000000000E+00 0. -1.
     999901    1    3    3    0    0 -0.50366821643E-01 -0.49248112904E-01  0.12840286156E+00  0.89210396715E+00  0.88000000000E+00 0. -1.
        -11    1    4    4    0    0  0.25370915882E-01  0.31525239273E-01 -0.63576525845E-01  0.75364181435E-01  0.51100000000E-03 0.  1.
         11    1    4    4    0    0  0.29243999354E-01  0.99757743046E-02 -0.43333948032E-01  0.53224240194E-01  0.51100000000E-03 0. -1.
</event>
<event>
 8    1  0.1060404E+005  0.1043930E+01  0.7957747E-01            NaN
         13   -1    0    0    0    0  0.00000000000E+00  0.00000000000E+00  0.74505805969E-08  0.10566000000E+00  0.10566000000E+00 0.  1.
     999900   -1    0    0    0    0 -0.00000000000E+00 -0.00000000000E+00 -0.74505805969E-08  0.93827000000E+00  0.93827000000E+00 0. -1.
     999902    2    1    2    0    0  0.10059495706E-01  0.76624859318E-02  0.19500483783E-01  0.10206883130E+01  0.10204236651E+01 0.  0.
     999903    2    3    3    0    0  0.12672546842E+00  0.48248823418E-03 -0.29083117498E-01  0.13163102138E+00  0.20526103523E-01 0.  0.
         14    1    1    2    0    0 -0.10059495706E-01 -0.76624859318E-02 -0.19500483783E-01  0.23241686951E-01  0.00000000000E+00 0. -1.
     999901    1    3    3    0    0 -0.11666597271E+00  0.71799976976E-02  0.48583601282E-01  0.88905729167E+00  0.88000000000E+00 0.  1.
        -11    1    4    4    0    0  0.43453720695E-01 -0.80087447835E-02 -0.15516453724E-01  0.46833612848E-01  0.51100000000E-03 0.  1.
         11    1    4    4    0    0  0.83271747722E-01  0.84912330176E-02 -0.13566663774E-01  0.84797408533E-01  0.51100000000E-03 0. -1.
</event>
<event>
 8    1  0.1060404E+005  0.1043930E+01  0.7957747E-01            NaN
         13   -1    0    0    0    0  0.00000000000E+00  0.00000000000E+00  0.74505805969E-08  0.10566000000E+00  0.10566000000E+00 0. -1.
     999900   -1    0    0    0    0 -0.00000000000E+00 -0.00000000000E+00 -0.74505805969E-08  0.93827000000E+00  0.93827000000E+00 0. -1.
     999902    2    1    2    0    0  0.73714116488E-02 -0.23996997304E-01 -0.92606436883E-02  0.10171726999E+01  0.10168207060E+01 0.  0.
     999903    2    3    3    0    0  0.10594488450E+00 -0.14294145709E-02 -0.71137955180E-01  0.12922291129E+00  0.20287689830E-01 0.  0.
         14    1    1    2    0    0 -0.73714116488E-02  0.23996997304E-01  0.92606436883E-02  0.26757300140E-01  0.00000000000E+00 0.  1.
     999901    1    3    3    0    0 -0.98573472848E-01 -0.22567582733E-01  0.61877311491E-01  0.88794978857E+00  0.88000000000E+00 0.  1.
        -11    1    4    4    0    0  0.24930713249E-01 -0.62385016167E-02 -0.98674211427E-02  0.27533370417E-01  0.51100000000E-03 0. -1.
         11    1    4    4    0    0  0.81014171248E-01  0.48090870458E-02 -0.61270534037E-01  0.10168954088E+00  0.51100000000E-03 0.  1.
</event>
<event>
 8    1  0.1060404E+005  0.1043930E+01  0.7957747E-01            NaN
         13   -1    0    0    0    0  0.00000000000E+00  0.00000000000E+00  0.74505805969E-08  0.10566000000E+00  0.10566000000E+00 0. -1.
     999900   -1    0    0    0    0 -0.00000000000E+00 -0.00000000000E+00 -0.74505805969E-08  0.93827000000E+00  0.93827000000E+00 0. -1.
     999902    2    1    2    0    0 -0.14102245927E-01 -0.12791467814E-01  0.14044995534E-01  0.10202708181E+01  0.10199964634E+01 0.  0.
     999903    2    3    3    0    0  0.89963767091E-01  0.42997003557E-01 -0.77186721612E-01  0.12770971945E+00  0.20242547855E-01 0.  0.
         14    1    1    2    0    0  0.14102245927E-01  0.12791467814E-01 -0.14044995534E-01  0.23659181908E-01  0.00000000000E+00 0.  1.
     999901    1    3    3    0    0 -0.10406601302E+00 -0.55788471371E-01  0.91231717146E-01  0.89256109865E+00  0.88000000000E+00 0.  1.
        -11    1    4    4    0    0  0.58304223419E-01  0.36810995543E-01 -0.58499451830E-01  0.90426096050E-01  0.51100000000E-03 0. -1.
         11    1    4    4    0    0  0.31659543671E-01  0.61860080143E-02 -0.18687269782E-01  0.37283623396E-01  0.51100000000E-03 0.  1.
</event>
<event>
 8    1  0.1060404E+005  0.1043930E+01  0.7957747E-01            NaN
         13   -1    0    0    0    0  0.00000000000E+00  0.00000000000E+00  0.74505805969E-08  0.10566000000E+00  0.10566000000E+00 0.  1.
     999900   -1    0    0    0    0 -0.00000000000E+00 -0.00000000000E+00 -0.74505805969E-08  0.93827000000E+00  0.93827000000E+00 0.  1.
     999902    2    1    2    0    0 -0.88001985704E-02 -0.10115044720E-01 -0.18270966222E-01  0.10212675678E+01  0.10210160916E+01 0.  0.
     999903    2    3    3    0    0 -0.43540488696E-01 -0.99344527750E-01  0.71605976510E-01  0.13152229349E+00  0.20139226975E-01 0.  0.
         14    1    1    2    0    0  0.88001985704E-02  0.10115044720E-01  0.18270966222E-01  0.22662432156E-01  0.00000000000E+00 0.  1.
     999901    1    3    3    0    0  0.34740290126E-01  0.89229483030E-01 -0.89876942732E-01  0.88974527435E+00  0.88000000000E+00 0.  1.
        -11    1    4    4    0    0 -0.22498669366E-01 -0.31533654483E-01  0.18958369681E-01  0.43130527359E-01  0.51100000000E-03 0.  1.
         11    1    4    4    0    0 -0.21041819331E-01 -0.67810873267E-01  0.52647606829E-01  0.88391766131E-01  0.51100000000E-03 0. -1.
</event>
<event>
 8    1  0.1073054E+005  0.1043930E+01  0.7957747E-01            NaN
         13   -1    0    0    0    0  0.00000000000E+00  0.00000000000E+00  0.74505805969E-08  0.10566000000E+00  0.10566000000E+00 0. -1.
     999900   -1    0    0    0    0 -0.00000000000E+00 -0.00000000000E+00 -0.74505805969E-08  0.93827000000E+00  0.93827000000E+00 0.  1.
     999902    2    1    2    0    0 -0.92606470497E-02 -0.26583843047E-02 -0.22040733897E-01  0.10198754673E+01  0.10195917557E+01 0.  0.
     999903    2    3    3    0    0 -0.29444119124E-01 -0.11560056912E+00 -0.55624444539E-01  0.13179260224E+00  0.66905488598E-02 0.  0.
         14    1    1    2    0    0  0.92606470497E-02  0.26583843047E-02  0.22040733897E-01  0.24054532663E-01  0.00000000000E+00 0. -1.
     999901    1    3    3    0    0  0.20183472074E-01  0.11294218481E+00  0.33583710642E-01  0.88808286510E+00  0.88000000000E+00 0.  1.
        -11    1    4    4    0    0 -0.75859831480E-02 -0.39781301531E-01 -0.16760510352E-01  0.43832350154E-01  0.51100000000E-03 0.  1.
         11    1    4    4    0    0 -0.21858135976E-01 -0.75819267587E-01 -0.38863934187E-01  0.87960252088E-01  0.51100000000E-03 0. -1.
</event>
<event>
 8    1  0.1060404E+005  0.1043930E+01  0.7957747E-01            NaN
         13   -1    0    0    0    0  0.00000000000E+00  0.00000000000E+00  0.74505805969E-08  0.10566000000E+00  0.10566000000E+00 0. -1.
     999900   -1    0    0    0    0 -0.00000000000E+00 -0.00000000000E+00 -0.74505805969E-08  0.93827000000E+00  0.93827000000E+00 0. -1.
     999902    2    1    2    0    0 -0.29234186945E-02  0.12790303960E-02  0.23269850055E-01  0.10204423816E+01  0.10201720374E+01 0.  0.
     999903    2    3    3    0    0  0.32733236362E-02  0.12833052437E+00  0.18809945761E-01  0.13128526812E+00  0.20064133029E-01 0.  0.
         14    1    1    2    0    0  0.29234186945E-02 -0.12790303960E-02 -0.23269850055E-01  0.23487618381E-01  0.00000000000E+00 0.  1.
     999901    1    3    3    0    0 -0.61967423307E-02 -0.12705149397E+00  0.44599042940E-02  0.88915711350E+00  0.88000000000E+00 0.  1.
        -11    1    4    4    0    0  0.30371617952E-02  0.10602141233E+00  0.76699923223E-02  0.10634309629E+00  0.51100000000E-03 0. -1.
         11    1    4    4    0    0  0.23616184103E-03  0.22309112036E-01  0.11139953439E-01  0.24942171835E-01  0.51100000000E-03 0.  1.
</event>
<event>
 8    1  0.1060404E+005  0.1043930E+01  0.7957747E-01            NaN
         13   -1    0    0    0    0  0.00000000000E+00  0.00000000000E+00  0.74505805969E-08  0.10566000000E+00  0.10566000000E+00 0. -1.
     999900   -1    0    0    0    0 -0.00000000000E+00 -0.00000000000E+00 -0.74505805969E-08  0.93827000000E+00  0.93827000000E+00 0.  1.
     999902    2    1    2    0    0  0.99847307590E-02  0.69939918460E-02 -0.20530846008E-01  0.10200526800E+01  0.10197731825E+01 0.  0.
     999903    2    3    3    0    0  0.51418890261E-01 -0.10961373556E+00 -0.46457902153E-01  0.13101591821E+00  0.18648347194E-01 0.  0.
         14    1    1    2    0    0 -0.99847307590E-02 -0.69939918460E-02  0.20530846008E-01  0.23877319952E-01  0.00000000000E+00 0. -1.
     999901    1    3    3    0    0 -0.41434159502E-01  0.11660772740E+00  0.25927056144E-01  0.88903676184E+00  0.88000000000E+00 0.  1.
        -11    1    4    4    0    0  0.31828788578E-02 -0.20707996725E-01 -0.40955938466E-02  0.21353848743E-01  0.51100000000E-03 0.  1.
         11    1    4    4    0    0  0.48236011403E-01 -0.88905738832E-01 -0.42362308306E-01  0.10966206946E+00  0.51100000000E-03 0. -1.
</event>
<event>
 8    1  0.1060404E+005  0.1043930E+01  0.7957747E-01            NaN
         13   -1    0    0    0    0  0.00000000000E+00  0.00000000000E+00  0.74505805969E-08  0.10566000000E+00  0.10566000000E+00 0.  1.
     999900   -1    0    0    0    0 -0.00000000000E+00 -0.00000000000E+00 -0.74505805969E-08  0.93827000000E+00  0.93827000000E+00 0. -1.
     999902    2    1    2    0    0  0.19186369501E-01 -0.12065253632E-01 -0.83105038493E-02  0.10197897516E+01  0.10195039901E+01 0.  0.
     999903    2    3    3    0    0  0.95308245343E-01  0.65685706559E-01  0.57126101835E-01  0.13067687845E+00  0.20366182119E-01 0.  0.
         14    1    1    2    0    0 -0.19186369501E-01  0.12065253632E-01  0.83105038493E-02  0.24140248426E-01  0.00000000000E+00 0.  1.
     999901    1    3    3    0    0 -0.76121875842E-01 -0.77750960191E-01 -0.65436605684E-01  0.88911287312E+00  0.88000000000E+00 0.  1.
        -11    1    4    4    0    0  0.25186685141E-01  0.17051478297E-01  0.25407353248E-01  0.39634792047E-01  0.51100000000E-03 0. -1.
         11    1    4    4    0    0  0.70121560201E-01  0.48634228262E-01  0.31718748586E-01  0.91042086403E-01  0.51100000000E-03 0.  1.
</event>
<event>
 8    1  0.1060404E+005  0.1043930E+01  0.7957747E-01            NaN
         13   -1    0    0    0    0  0.00000000000E+00  0.00000000000E+00  0.74505805969E-08  0.10566000000E+00  0.10566000000E+00 0.  1.
     999900   -1    0    0    0    0 -0.00000000000E+00 -0.00000000000E+00 -0.74505805969E-08  0.93827000000E+00  0.93827000000E+00 0. -1.
     999902    2    1    2    0    0 -0.20915610711E-01 -0.31094523218E-03  0.11454981630E-01  0.10200809736E+01  0.10198021458E+01 0.  0.
     999903    2    3    3    0    0  0.11366932803E+00  0.37823394187E-01 -0.38667079790E-01  0.12762394119E+00  0.21009569773E-01 0.  0.
         14    1    1    2    0    0  0.20915610711E-01  0.31094523218E-03 -0.11454981630E-01  0.23849026448E-01  0.00000000000E+00 0. -1.
     999901    1    3    3    0    0 -0.13458493874E+00 -0.38134339419E-01  0.50122061421E-01  0.89245703237E+00  0.88000000000E+00 0.  1.
        -11    1    4    4    0    0  0.99925596106E-01  0.40121150477E-01 -0.34398163749E-01  0.11304125912E+00  0.51100000000E-03 0.  1.
         11    1    4    4    0    0  0.13743731922E-01 -0.22977562896E-02 -0.42689160410E-02  0.14582682068E-01  0.51100000000E-03 0. -1.
</event>
<event>
 8    1  0.1060404E+005  0.1043930E+01  0.7957747E-01            NaN
         13   -1    0    0    0    0  0.00000000000E+00  0.00000000000E+00  0.74505805969E-08  0.10566000000E+00  0.10566000000E+00 0.  1.
     999900   -1    0    0    0    0 -0.00000000000E+00 -0.00000000000E+00 -0.74505805969E-08  0.93827000000E+00  0.93827000000E+00 0.  1.
     999902    2    1    2    0    0 -0.51526653567E-02  0.69549716182E-02 -0.22312463822E-01  0.10199974357E+01  0.10197166279E+01 0.  0.
     999903    2    3    3    0    0 -0.92829138117E-01 -0.24771437548E-01  0.83319339885E-01  0.12878937536E+00  0.20340054237E-01 0.  0.
         14    1    1    2    0    0  0.51526653567E-02 -0.69549716182E-02  0.22312463822E-01  0.23932564265E-01  0.00000000000E+00 0. -1.
     999901    1    3    3    0    0  0.87676472760E-01  0.31726409166E-01 -0.10563180371E+00  0.89120806037E+00  0.88000000000E+00 0.  1.
        -11    1    4    4    0    0 -0.68893542465E-01 -0.13941199292E-01  0.70490364635E-01  0.99548128353E-01  0.51100000000E-03 0. -1.
         11    1    4    4    0    0 -0.23935595652E-01 -0.10830238256E-01  0.12828975249E-01  0.29241247012E-01  0.51100000000E-03 0.  1.
</event>
<event>
 8    1  0.1060404E+005  0.1043930E+01  0.7957747E-01            NaN
         13   -1    0    0    0    0  0.00000000000E+00  0.00000000000E+00  0.74505805969E-08  0.10566000000E+00  0.10566000000E+00 0. -1.
     999900   -1    0    0    0    0 -0.00000000000E+00 -0.00000000000E+00 -0.74505805969E-08  0.93827000000E+00  0.93827000000E+00 0. -1.
     999902    2    1    2    0    0 -0.72606303265E-03  0.22657747348E-01 -0.79858057801E-02  0.10198951550E+01  0.10196119131E+01 0.  0.
     999903    2    3    3    0    0 -0.58263700962E-01 -0.11001380892E+00 -0.21142198745E-01  0.12799526579E+00  0.20930802482E-01 0.  0.
         14    1    1    2    0    0  0.72606303265E-03 -0.22657747348E-01  0.79858057801E-02  0.24034845045E-01  0.00000000000E+00 0.  1.
     999901    1    3    3    0    0  0.57537637930E-01  0.13267155627E+00  0.13156392965E-01  0.89189988917E+00  0.88000000000E+00 0. -1.
        -11    1    4    4    0    0 -0.20099207256E-01 -0.45110486163E-01 -0.18227944503E-01  0.52644593037E-01  0.51100000000E-03 0.  1.
         11    1    4    4    0    0 -0.38164493706E-01 -0.64903322760E-01 -0.29142542417E-02  0.75350672750E-01  0.51100000000E-03 0. -1.
</event>
<event>
 8    1  0.1060404E+005  0.1043930E+01  0.7957747E-01            NaN
         13   -1    0    0    0    0  0.00000000000E+00  0.00000000000E+00  0.74505805969E-08  0.10566000000E+00  0.10566000000E+00 0. -1.
     999900   -1    0    0    0    0 -0.00000000000E+00 -0.00000000000E+00 -0.74505805969E-08  0.93827000000E+00  0.93827000000E+00 0.  1.
     999902    2    1    2    0    0 -0.97335001961E-02  0.59532409874E-03  0.19973572683E-01  0.10217030109E+01  0.10214612100E+01 0.  0.
     999903    2    3    3    0    0 -0.27099273515E-01  0.57137140363E-01  0.11688323566E+00  0.13440935614E+00  0.20128606653E-01 0.  0.
         14    1    1    2    0    0  0.97335001961E-02 -0.59532409874E-03 -0.19973572683E-01  0.22226989058E-01  0.00000000000E+00 0.  1.
     999901    1    3    3    0    0  0.17365773319E-01 -0.56541816265E-01 -0.96909662978E-01  0.88729365480E+00  0.88000000000E+00 0.  1.
        -11    1    4    4    0    0 -0.29424045387E-01  0.45670147330E-01  0.10086034710E+00  0.11456267953E+00  0.51100000000E-03 0.  1.
         11    1    4    4    0    0  0.23247718720E-02  0.11466993034E-01  0.16022888563E-01  0.19846676609E-01  0.51100000000E-03 0. -1.
</event>
<event>
 8    1  0.1060404E+005  0.1043930E+01  0.7957747E-01            NaN
         13   -1    0    0    0    0  0.00000000000E+00  0.00000000000E+00  0.74505805969E-08  0.10566000000E+00  0.10566000000E+00 0. -1.
     999900   -1    0    0    0    0 -0.00000000000E+00 -0.00000000000E+00 -0.74505805969E-08  0.93827000000E+00  0.93827000000E+00 0. -1.
     999902    2    1    2    0    0 -0.51353747981E-02  0.20150005363E-01 -0.12430528249E-01  0.10197037163E+01  0.10194158897E+01 0.  0.
     999903    2    3    3    0    0  0.74302872725E-01 -0.10107815155E+00 -0.14637388971E-01  0.12784522334E+00  0.19810057007E-01 0.  0.
         14    1    1    2    0    0  0.51353747981E-02 -0.20150005363E-01  0.12430528249E-01  0.24226283723E-01  0.00000000000E+00 0. -1.
     999901    1    3    3    0    0 -0.79438247523E-01  0.12122815691E+00  0.22068607216E-02  0.89185849294E+00  0.88000000000E+00 0.  1.
        -11    1    4    4    0    0  0.89313037190E-02 -0.23298591281E-01 -0.71732828493E-02  0.25967472916E-01  0.51100000000E-03 0. -1.
         11    1    4    4    0    0  0.65371569006E-01 -0.77779560266E-01 -0.74641061215E-02  0.10187775042E+00  0.51100000000E-03 0.  1.
</event>
<event>
 8    1  0.1060404E+005  0.1043930E+01  0.7957747E-01            NaN
         13   -1    0    0    0    0  0.00000000000E+00  0.00000000000E+00  0.74505805969E-08  0.10566000000E+00  0.10566000000E+00 0. -1.
     999900   -1    0    0    0    0 -0.00000000000E+00 -0.00000000000E+00 -0.74505805969E-08  0.93827000000E+00  0.93827000000E+00 0. -1.
     999902    2    1    2    0    0 -0.17332365037E-02  0.23385858266E-01 -0.36192451557E-03  0.10204772077E+01  0.10202076740E+01 0.  0.
     999903    2    3    3    0    0 -0.11871391088E-01  0.31723732521E-01  0.12536342715E+00  0.13144449384E+00  0.20355366950E-01 0.  0.
         14    1    1    2    0    0  0.17332365037E-02 -0.23385858266E-01  0.36192451557E-03  0.23452792263E-01  0.00000000000E+00 0.  1.
     999901    1    3    3    0    0  0.10138154584E-01 -0.83378742553E-02 -0.12572535166E+00  0.88903271390E+00  0.88000000000E+00 0. -1.
        -11    1    4    4    0    0  0.17740711373E-02  0.20098602584E-01  0.83442823921E-01  0.85849095157E-01  0.51100000000E-03 0. -1.
         11    1    4    4    0    0 -0.13645462225E-01  0.11625129936E-01  0.41920603226E-01  0.45595398685E-01  0.51100000000E-03 0.  1.
</event>
<event>
 8    1  0.1060404E+005  0.1043930E+01  0.7957747E-01            NaN
         13   -1    0    0    0    0  0.00000000000E+00  0.00000000000E+00  0.74505805969E-08  0.10566000000E+00  0.10566000000E+00 0.  1.
     999900   -1    0    0    0    0 -0.00000000000E+00 -0.00000000000E+00 -0.74505805969E-08  0.93827000000E+00  0.93827000000E+00 0. -1.
     999902    2    1    2    0    0  0.20260867869E-01  0.11165110014E-01 -0.34284147678E-02  0.10205437546E+01  0.10202757659E+01 0.  0.
     999903    2    3    3    0    0  0.15479571111E-01 -0.46359500915E-01  0.11899144495E+00  0.13019631466E+00  0.20082229281E-01 0.  0.
         14    1    1    2    0    0 -0.20260867869E-01 -0.11165110014E-01  0.34284147678E-02  0.23386245450E-01  0.00000000000E+00 0.  1.
     999901    1    3    3    0    0  0.47812967582E-02  0.57524610929E-01 -0.12241985972E+00  0.89034743989E+00  0.88000000000E+00 0. -1.
        -11    1    4    4    0    0  0.39143415415E-02 -0.24591490781E-02  0.29319076113E-01  0.29685667064E-01  0.51100000000E-03 0. -1.
         11    1    4    4    0    0  0.11565229569E-01 -0.43900351837E-01  0.89672368839E-01  0.10051064760E+00  0.51100000000E-03 0.  1.
</event>
<event>
 8    1  0.1060404E+005  0.1043930E+01  0.7957747E-01            NaN
         13   -1    0    0    0    0  0.00000000000E+00  0.00000000000E+00  0.74505805969E-08  0.10566000000E+00  0.10566000000E+00 0. -1.
     999900   -1    0    0    0    0 -0.00000000000E+00 -0.00000000000E+00 -0.74505805969E-08  0.93827000000E+00  0.93827000000E+00 0.  1.
     999902    2    1    2    0    0  0.20066875697E-01  0.98241328039E-02 -0.59904787921E-02  0.10207982270E+01  0.10205361049E+01 0.  0.
     999903    2    3    3    0    0 -0.72232257215E-03 -0.18477540350E-01  0.12718612563E+00  0.13008548800E+00  0.20099313148E-01 0.  0.
         14    1    1    2    0    0 -0.20066875697E-01 -0.98241328039E-02  0.59904787921E-02  0.23131772992E-01  0.00000000000E+00 0. -1.
     999901    1    3    3    0    0  0.20789198269E-01  0.28301673154E-01 -0.13317660442E+00  0.89071273901E+00  0.88000000000E+00 0.  1.
        -11    1    4    4    0    0  0.61620904164E-02 -0.65847749572E-02  0.19100977554E-01  0.21129105141E-01  0.51100000000E-03 0. -1.
         11    1    4    4    0    0 -0.68844129885E-02 -0.11892765392E-01  0.10808514807E+00  0.10895638286E+00  0.51100000000E-03 0.  1.
</event>
<event>
 8    1  0.1060404E+005  0.1043930E+01  0.7957747E-01            NaN
         13   -1    0    0    0    0  0.00000000000E+00  0.00000000000E+00  0.74505805969E-08  0.10566000000E+00  0.10566000000E+00 0.  1.
     999900   -1    0    0    0    0 -0.00000000000E+00 -0.00000000000E+00 -0.74505805969E-08  0.93827000000E+00  0.93827000000E+00 0.  1.
     999902    2    1    2    0    0 -0.21492740496E-01  0.56199497988E-02 -0.78511523563E-02  0.10203681172E+01  0.10200960407E+01 0.  0.
     999903    2    3    3    0    0  0.19934677800E-01 -0.12586023523E+00 -0.10813651313E-01  0.12963131740E+00  0.21193234886E-01 0.  0.
         14    1    1    2    0    0  0.21492740496E-01 -0.56199497988E-02  0.78511523563E-02  0.23561882842E-01  0.00000000000E+00 0.  1.
     999901    1    3    3    0    0 -0.41427418296E-01  0.13148018503E+00  0.29624989568E-02  0.89073679976E+00  0.88000000000E+00 0. -1.
        -11    1    4    4    0    0  0.44702294916E-02 -0.83497560831E-01 -0.12234435523E-01  0.84508982658E-01  0.51100000000E-03 0. -1.
         11    1    4    4    0    0  0.15464448308E-01 -0.42362674400E-01  0.14207842103E-02  0.45122334742E-01  0.51100000000E-03 0.  1.
</event>
<event>
 8    1  0.1060404E+005  0.1043930E+01  0.7957747E-01            NaN
         13   -1    0    0    0    0  0.00000000000E+00  0.00000000000E+00  0.74505805969E-08  0.10566000000E+00  0.10566000000E+00 0.  1.
     999900   -1    0    0    0    0 -0.00000000000E+00 -0.00000000000E+00 -0.74505805969E-08  0.93827000000E+00  0.93827000000E+00 0. -1.
     999902    2    1    2    0    0 -0.73546816419E-02 -0.97047181323E-02  0.16066133270E-01  0.10237707953E+01  0.10235722973E+01 0.  0.
     999903    2    3    3    0    0 -0.45432240937E-01 -0.87963366310E-01 -0.87194741801E-01  0.13346909090E+00  0.20234448292E-01 0.  0.
         14    1    1    2    0    0  0.73546816419E-02  0.97047181323E-02 -0.16066133270E-01  0.20159204705E-01  0.00000000000E+00 0. -1.
     999901    1    3    3    0    0  0.38077559295E-01  0.78258648178E-01  0.10326087507E+00  0.89030170440E+00  0.88000000000E+00 0.  1.
        -11    1    4    4    0    0 -0.14786197393E-01 -0.35198560501E-01 -0.46296798216E-01  0.60010206971E-01  0.51100000000E-03 0.  1.
         11    1    4    4    0    0 -0.30646043543E-01 -0.52764805810E-01 -0.40897943585E-01  0.73458883925E-01  0.51100000000E-03 0. -1.
</event>
<event>
 8    1  0.1060404E+005  0.1043930E+01  0.7957747E-01            NaN
         13   -1    0    0    0    0  0.00000000000E+00  0.00000000000E+00  0.74505805969E-08  0.10566000000E+00  0.10566000000E+00 0.  1.
     999900   -1    0    0    0    0 -0.00000000000E+00 -0.00000000000E+00 -0.74505805969E-08  0.93827000000E+00  0.93827000000E+00 0. -1.
     999902    2    1    2    0    0 -0.20566873869E-01 -0.87602783098E-02  0.74508681521E-02  0.10203661673E+01  0.10200940452E+01 0.  0.
     999903    2    3    3    0    0  0.10331742716E+00 -0.25147299993E-01  0.71351969952E-01  0.12924372600E+00  0.17491702090E-01 0.  0.
         14    1    1    2    0    0  0.20566873869E-01  0.87602783098E-02 -0.74508681521E-02  0.23563832732E-01  0.00000000000E+00 0.  1.
     999901    1    3    3    0    0 -0.12388430103E+00  0.16387021683E-01 -0.63901101800E-01  0.89112244127E+00  0.88000000000E+00 0. -1.
        -11    1    4    4    0    0  0.82350395657E-01 -0.26643075345E-01  0.60311239589E-01  0.10549477651E+00  0.51100000000E-03 0. -1.
         11    1    4    4    0    0  0.20967031504E-01  0.14957753515E-02  0.11040730363E-01  0.23748949492E-01  0.51100000000E-03 0.  1.
</event>
<event>
 8    1  0.1060404E+005  0.1043930E+01  0.7957747E-01            NaN
         13   -1    0    0    0    0  0.00000000000E+00  0.00000000000E+00  0.74505805969E-08  0.10566000000E+00  0.10566000000E+00 0.  1.
     999900   -1    0    0    0    0 -0.00000000000E+00 -0.00000000000E+00 -0.74505805969E-08  0.93827000000E+00  0.93827000000E+00 0. -1.
     999902    2    1    2    0    0  0.11623948078E-01  0.19994630325E-01 -0.31465425752E-02  0.10205890030E+01  0.10203220623E+01 0.  0.
     999903    2    3    3    0    0  0.11753334913E+00  0.59776177792E-01  0.30957553248E-02  0.13332447704E+00  0.19456435588E-01 0.  0.
         14    1    1    2    0    0 -0.11623948078E-01 -0.19994630325E-01  0.31465425752E-02  0.23340996999E-01  0.00000000000E+00 0. -1.
     999901    1    3    3    0    0 -0.10590940106E+00 -0.39781547467E-01 -0.62422979000E-02  0.88726452596E+00  0.88000000000E+00 0.  1.
        -11    1    4    4    0    0  0.48232938975E-01  0.29098260897E-01 -0.73834774000E-02  0.56814628828E-01  0.51100000000E-03 0. -1.
         11    1    4    4    0    0  0.69300410160E-01  0.30677916894E-01  0.10479232725E-01  0.76509848208E-01  0.51100000000E-03 0.  1.
</event>
<event>
 8    1  0.1060404E+005  0.1043930E+01  0.7957747E-01            NaN
         13   -1    0    0    0    0  0.00000000000E+00  0.00000000000E+00  0.74505805969E-08  0.10566000000E+00  0.10566000000E+00 0.  1.
     999900   -1    0    0    0    0 -0.00000000000E+00 -0.00000000000E+00 -0.74505805969E-08  0.93827000000E+00  0.93827000000E+00 0. -1.
     999902    2    1    2    0    0  0.10207339114E-01  0.17560103573E-01 -0.47008564682E-02  0.10230818571E+01  0.10228694156E+01 0.  0.
     999903    2    3    3    0    0  0.63098406871E-01 -0.11303461743E+00 -0.84509379403E-02  0.13186554820E+00  0.23640447591E-01 0.  0.
         14    1    1    2    0    0 -0.10207339114E-01 -0.17560103573E-01  0.47008564682E-02  0.20848142862E-01  0.00000000000E+00 0. -1.
     999901    1    3    3    0    0 -0.52891067757E-01  0.13059472101E+00  0.37500814721E-02  0.89121630894E+00  0.88000000000E+00 0.  1.
        -11    1    4    4    0    0  0.43368663410E-01 -0.57033948052E-01  0.14638139262E-02  0.71666701253E-01  0.51100000000E-03 0. -1.
         11    1    4    4    0    0  0.19729743461E-01 -0.56000669382E-01 -0.99147518665E-02  0.60198846948E-01  0.51100000000E-03 0.  1.
</event>
<event>
 8    1  0.1060404E+005  0.1043930E+01  0.7957747E-01            NaN
         13   -1    0    0    0    0  0.00000000000E+00  0.00000000000E+00  0.74505805969E-08  0.10566000000E+00  0.10566000000E+00 0. -1.
     999900   -1    0    0    0    0 -0.00000000000E+00 -0.00000000000E+00 -0.74505805969E-08  0.93827000000E+00  0.93827000000E+00 0. -1.
     999902    2    1    2    0    0 -0.21208984703E-01  0.12473006393E-01  0.46673364561E-02  0.10188864190E+01  0.10185785948E+01 0.  0.
     999903    2    3    3    0    0  0.75327631343E-01 -0.71914474905E-01 -0.69031556789E-01  0.12654562528E+00  0.20062295495E-01 0.  0.
         14    1    1    2    0    0  0.21208984703E-01 -0.12473006393E-01 -0.46673364561E-02  0.25043581017E-01  0.00000000000E+00 0.  1.
     999901    1    3    3    0    0 -0.96536616046E-01  0.84387481298E-01  0.73698893245E-01  0.89234079370E+00  0.88000000000E+00 0.  1.
        -11    1    4    4    0    0  0.25005012293E-01 -0.32363793514E-01 -0.36148369770E-01  0.54586001213E-01  0.51100000000E-03 0.  1.
         11    1    4    4    0    0  0.50322619050E-01 -0.39550681391E-01 -0.32883187019E-01  0.71959624068E-01  0.51100000000E-03 0. -1.
</event>
<event>
 8    1  0.1076606E+005  0.1043930E+01  0.7957747E-01            NaN
         13   -1    0    0    0    0  0.00000000000E+00  0.00000000000E+00  0.74505805969E-08  0.10566000000E+00  0.10566000000E+00 0. -1.
     999900   -1    0    0    0    0 -0.00000000000E+00 -0.00000000000E+00 -0.74505805969E-08  0.93827000000E+00  0.93827000000E+00 0.  1.
     999902    2    1    2    0    0 -0.13581473210E-01 -0.28413917874E-01 -0.98809544430E-02  0.10109233279E+01  0.10103843499E+01 0.  0.
     999903    2    3    3    0    0 -0.82884800977E-02 -0.27672374517E-01 -0.11908542107E+00  0.12415719119E+00  0.19980275228E-01 0.  0.
         14    1    1    2    0    0  0.13581473210E-01  0.28413917874E-01  0.98809544430E-02  0.33006672117E-01  0.00000000000E+00 0.  1.
     999901    1    3    3    0    0 -0.52929931127E-02 -0.74154335746E-03  0.10920446663E+00  0.88676613670E+00  0.88000000000E+00 0. -1.
        -11    1    4    4    0    0  0.48671961325E-02 -0.27954774034E-02 -0.35886077334E-01  0.36325968116E-01  0.51100000000E-03 0.  1.
         11    1    4    4    0    0 -0.13155676230E-01 -0.24876897113E-01 -0.83199343735E-01  0.87831223070E-01  0.51100000000E-03 0. -1.
</event>
<event>
 8    1  0.1060404E+005  0.1043930E+01  0.7957747E-01            NaN
         13   -1    0    0    0    0  0.00000000000E+00  0.00000000000E+00  0.74505805969E-08  0.10566000000E+00  0.10566000000E+00 0.  1.
     999900   -1    0    0    0    0 -0.00000000000E+00 -0.00000000000E+00 -0.74505805969E-08  0.93827000000E+00  0.93827000000E+00 0. -1.
     999902    2    1    2    0    0 -0.16104769328E-01  0.13837805394E-01  0.17850688893E-01  0.10161902172E+01  0.10158115288E+01 0.  0.
     999903    2    3    3    0    0 -0.11490441055E-01 -0.74577284644E-01  0.10121963301E+00  0.12782717152E+00  0.20014246195E-01 0.  0.
         14    1    1    2    0    0  0.16104769328E-01 -0.13837805394E-01 -0.17850688893E-01  0.27739782753E-01  0.00000000000E+00 0. -1.
     999901    1    3    3    0    0 -0.46143282727E-02  0.88415090038E-01 -0.83368944120E-01  0.88836304573E+00  0.88000000000E+00 0.  1.
        -11    1    4    4    0    0  0.53151390407E-02 -0.18230515398E-01  0.20338721914E-01  0.27830327429E-01  0.51100000000E-03 0.  1.
         11    1    4    4    0    0 -0.16805580096E-01 -0.56346769246E-01  0.80880911099E-01  0.99996844091E-01  0.51100000000E-03 0. -1.
</event>
<event>
 7    1  0.1175938E+005  0.1043930E+01  0.7957747E-01            NaN
         13   -1    0    0    0    0  0.00000000000E+00  0.00000000000E+00  0.74505805969E-08  0.10566000000E+00  0.10566000000E+00 0.  1.
     999900   -1    0    0    0    0 -0.00000000000E+00 -0.00000000000E+00 -0.74505805969E-08  0.93827000000E+00  0.93827000000E+00 0.  1.
     999903    2    1    2    0    0  0.89814559912E-01 -0.44884345456E-01 -0.28254724930E-01  0.10608083639E+00  0.19327563965E-01 0.  0.
         14    1    1    2    0    0 -0.34340202782E-01 -0.75809403820E-02 -0.38352718917E-01  0.52035096161E-01  0.00000000000E+00 0. -1.
     999901    1    1    2    0    0 -0.55474357129E-01  0.52465285838E-01  0.66607443847E-01  0.88581406745E+00  0.88000000000E+00 0. -1.
        -11    1    3    3    0    0  0.33916310595E-01 -0.27009134348E-01 -0.87350830969E-02  0.44230897123E-01  0.51100000000E-03 0. -1.
         11    1    3    3    0    0  0.55898249316E-01 -0.17875211109E-01 -0.19519641833E-01  0.61849939265E-01  0.51100000000E-03 0.  1.
</event>
<event>
 8    1  0.1060404E+005  0.1043930E+01  0.7957747E-01            NaN
         13   -1    0    0    0    0  0.00000000000E+00  0.00000000000E+00  0.74505805969E-08  0.10566000000E+00  0.10566000000E+00 0.  1.
     999900   -1    0    0    0    0 -0.00000000000E+00 -0.00000000000E+00 -0.74505805969E-08  0.93827000000E+00  0.93827000000E+00 0.  1.
     999902    2    1    2    0    0  0.85874213180E-02  0.12236285404E-01  0.16102111537E-01  0.10219584620E+01  0.10217222468E+01 0.  0.
     999903    2    3    3    0    0 -0.73961252308E-01 -0.76651535559E-01  0.74770912952E-01  0.13170155725E+00  0.20220930020E-01 0.  0.
         14    1    1    2    0    0 -0.85874213180E-02 -0.12236285404E-01 -0.16102111537E-01  0.21971537983E-01  0.00000000000E+00 0. -1.
     999901    1    3    3    0    0  0.82548673626E-01  0.88887820963E-01 -0.58668801415E-01  0.89025690477E+00  0.88000000000E+00 0.  1.
        -11    1    4    4    0    0 -0.34783697577E-01 -0.40025182123E-01  0.48978828386E-01  0.72188001580E-01  0.51100000000E-03 0.  1.
         11    1    4    4    0    0 -0.39177554732E-01 -0.36626353436E-01  0.25792084566E-01  0.59513555666E-01  0.51100000000E-03 0. -1.
</event>
<event>
 8    1  0.1060404E+005  0.1043930E+01  0.7957747E-01            NaN
         13   -1    0    0    0    0  0.00000000000E+00  0.00000000000E+00  0.74505805969E-08  0.10566000000E+00  0.10566000000E+00 0. -1.
     999900   -1    0    0    0    0 -0.00000000000E+00 -0.00000000000E+00 -0.74505805969E-08  0.93827000000E+00  0.93827000000E+00 0.  1.
     999902    2    1    2    0    0 -0.62373829041E-02  0.14414483915E-01 -0.18127377383E-01  0.10199449192E+01  0.10196628629E+01 0.  0.
     999903    2    3    3    0    0 -0.11700927702E+00 -0.52677545218E-01  0.87383680804E-02  0.13006092606E+00  0.19323320906E-01 0.  0.
         14    1    1    2    0    0  0.62373829041E-02 -0.14414483915E-01  0.18127377383E-01  0.23985080838E-01  0.00000000000E+00 0. -1.
     999901    1    3    3    0    0  0.11077189412E+00  0.67092029132E-01 -0.26865745463E-01  0.88988399310E+00  0.88000000000E+00 0.  1.
        -11    1    4    4    0    0 -0.10370776337E+00 -0.42822480936E-01  0.21117337131E-02  0.11222203704E+00  0.51100000000E-03 0.  1.
         11    1    4    4    0    0 -0.13301513657E-01 -0.98550642820E-02  0.66266343673E-02  0.17838889024E-01  0.51100000000E-03 0. -1.
</event>
<event>
 7    1  0.1060404E+005  0.1043930E+01  0.7957747E-01            NaN
         13   -1    0    0    0    0  0.00000000000E+00  0.00000000000E+00  0.74505805969E-08  0.10566000000E+00  0.10566000000E+00 0. -1.
     999900   -1    0    0    0    0 -0.00000000000E+00 -0.00000000000E+00 -0.74505805969E-08  0.93827000000E+00  0.93827000000E+00 0.  1.
     999902    2    1    2    0    0 -0.15850943256E-01 -0.16050439434E-01  0.73581855897E-02  0.10202021281E+01  0.10199261593E+01 0.  0.
         14    1    1    2    0    0  0.15850943256E-01  0.16050439434E-01 -0.73581855897E-02  0.23727871866E-01  0.00000000000E+00 0.  1.
     999901    1    3    3    0    0  0.10800306851E+00 -0.14608746412E-01 -0.19933823028E-01  0.88694725637E+00  0.88000000000E+00 0.  1.
        -11    1    3    3    0    0  0.47082857531E-03 -0.64904373260E-03  0.72612015335E-02  0.73231896073E-02  0.51100000000E-03 0. -1.
         11    1    3    3    0    0 -0.12432484034E+00 -0.79264928996E-03  0.20030807084E-01  0.12593168216E+00  0.51100000000E-03 0.  1.
</event>
<event>
 8    1  0.1060404E+005  0.1043930E+01  0.7957747E-01            NaN
         13   -1    0    0    0    0  0.00000000000E+00  0.00000000000E+00  0.74505805969E-08  0.10566000000E+00  0.10566000000E+00 0.  1.
     999900   -1    0    0    0    0 -0.00000000000E+00 -0.00000000000E+00 -0.74505805969E-08  0.93827000000E+00  0.93827000000E+00 0. -1.
     999902    2    1    2    0    0  0.86136208717E-02 -0.12727926085E-01  0.16997451394E-01  0.10210147666E+01  0.10207575842E+01 0.  0.
     999903    2    3    3    0    0 -0.62904619677E-01  0.27501776287E-01  0.11137447717E+00  0.13217264865E+00  0.18761556754E-01 0.  0.
         14    1    1    2    0    0 -0.86136208717E-02  0.12727926085E-01 -0.16997451394E-01  0.22915233379E-01  0.00000000000E+00 0. -1.
     999901    1    3    3    0    0  0.71518240548E-01 -0.40229702371E-01 -0.94377025771E-01  0.88884211797E+00  0.88000000000E+00 0. -1.
        -11    1    4    4    0    0 -0.31389700147E-01  0.64239766063E-02  0.39079923001E-01  0.50537928861E-01  0.51100000000E-03 0. -1.
         11    1    4    4    0    0 -0.31514919529E-01  0.21077799680E-01  0.72294554165E-01  0.81634719790E-01  0.51100000000E-03 0.  1.
</event>
<event>
 8    1  0.1060404E+005  0.1043930E+01  0.7957747E-01            NaN
         13   -1    0    0    0    0  0.00000000000E+00  0.00000000000E+00  0.74505805969E-08  0.10566000000E+00  0.10566000000E+00 0. -1.
     999900   -1    0    0    0    0 -0.00000000000E+00 -0.00000000000E+00 -0.74505805969E-08  0.93827000000E+00  0.93827000000E+00 0.  1.
     999902    2    1    2    0    0  0.94454095433E-02 -0.20717396676E-01  0.63286694730E-02  0.10202978536E+01  0.10200241329E+01 0.  0.
     999903    2    3    3    0    0 -0.20645107639E-01 -0.10209425276E+00  0.80086451172E-01  0.13296035169E+00  0.20375439726E-01 0.  0.
         14    1    1    2    0    0 -0.94454095433E-02  0.20717396676E-01 -0.63286694730E-02  0.23632146406E-01  0.00000000000E+00 0. -1.
     999901    1    3    3    0    0  0.30090517182E-01  0.81376856080E-01 -0.73757781699E-01  0.88733750191E+00  0.88000000000E+00 0.  1.
        -11    1    4    4    0    0 -0.54203917113E-02 -0.73695770522E-01  0.54839748941E-01  0.92022314816E-01  0.51100000000E-03 0. -1.
         11    1    4    4    0    0 -0.15224715928E-01 -0.28398482234E-01  0.25246702231E-01  0.40938036870E-01  0.51100000000E-03 0.  1.
</event>
<event>
 8    1  0.1062869E+005  0.1043930E+01  0.7957747E-01            NaN
         13   -1    0    0    0    0  0.00000000000E+00  0.00000000000E+00  0.74505805969E-08  0.10566000000E+00  0.10566000000E+00 0. -1.
     999900   -1    0    0    0    0 -0.00000000000E+00 -0.00000000000E+00 -0.74505805969E-08  0.93827000000E+00  0.93827000000E+00 0. -1.
     999902    2    1    2    0    0  0.16463501390E-01 -0.40191110560E-02 -0.12222087032E-01  0.10230355140E+01  0.10228221172E+01 0.  0.
     999903    2    3    3    0    0  0.35329940212E-01 -0.90757461397E-01 -0.91436975659E-01  0.13502961175E+00  0.19676230783E-01 0.  0.
         14    1    1    2    0    0 -0.16463501390E-01  0.40191110560E-02  0.12222087032E-01  0.20894485950E-01  0.00000000000E+00 0. -1.
     999901    1    3    3    0    0 -0.18866438822E-01  0.86738350341E-01  0.79214888627E-01  0.88800590230E+00  0.88000000000E+00 0.  1.
        -11    1    4    4    0    0  0.16031520655E-01 -0.66208391423E-01 -0.63334774771E-01  0.93016748844E-01  0.51100000000E-03 0. -1.
         11    1    4    4    0    0  0.19298419557E-01 -0.24549069975E-01 -0.28102200888E-01  0.42012862909E-01  0.51100000000E-03 0.  1.
</event>
<event>
 8    1  0.1060404E+005  0.1043930E+01  0.7957747E-01            NaN
         13   -1    0    0    0    0  0.00000000000E+00  0.00000000000E+00  0.74505805969E-08  0.10566000000E+00  0.10566000000E+00 0. -1.
     999900   -1    0    0    0    0 -0.00000000000E+00 -0.00000000000E+00 -0.74505805969E-08  0.93827000000E+00  0.93827000000E+00 0. -1.
     999902    2    1    2    0    0  0.92484344690E-02 -0.17126940462E-01 -0.83842422771E-02  0.10227365777E+01  0.10225169662E+01 0.  0.
     999903    2    3    3    0    0  0.80845471959E-01 -0.77820800191E-01  0.70838606177E-01  0.13420625178E+00  0.20028544944E-01 0.  0.
         14    1    1    2    0    0 -0.92484344690E-02  0.17126940462E-01  0.83842422771E-02  0.21193422288E-01  0.00000000000E+00 0. -1.
     999901    1    3    3    0    0 -0.71597037490E-01  0.60693859729E-01 -0.79222848454E-01  0.88853032593E+00  0.88000000000E+00 0.  1.
        -11    1    4    4    0    0  0.61059876275E-01 -0.69134953055E-01  0.59888115463E-01  0.10997635073E+00  0.51100000000E-03 0. -1.
         11    1    4    4    0    0  0.19785595684E-01 -0.86858471360E-02  0.10950490714E-01  0.24229901051E-01  0.51100000000E-03 0.  1.
</event>
<event>
 8    1  0.1060404E+005  0.1043930E+01  0.7957747E-01            NaN
         13   -1    0    0    0    0  0.00000000000E+00  0.00000000000E+00  0.74505805969E-08  0.10566000000E+00  0.10566000000E+00 0.  1.
     999900   -1    0    0    0    0 -0.00000000000E+00 -0.00000000000E+00 -0.74505805969E-08  0.93827000000E+00  0.93827000000E+00 0.  1.
     999902    2    1    2    0    0  0.22269049620E-01 -0.18523008991E-02 -0.74628667500E-02  0.10203707986E+01  0.10200987848E+01 0.  0.
     999903    2    3    3    0    0 -0.11195855212E+00  0.49319963015E-01 -0.34446508990E-01  0.12831487738E+00  0.17634331026E-01 0.  0.
         14    1    1    2    0    0 -0.22269049620E-01  0.18523008991E-02  0.74628667500E-02  0.23559201381E-01  0.00000000000E+00 0. -1.
     999901    1    3    3    0    0  0.13422760174E+00 -0.51172263914E-01  0.26983642240E-01  0.89205592124E+00  0.88000000000E+00 0. -1.
        -11    1    4    4    0    0 -0.79812575947E-01  0.39355875309E-01 -0.31995955455E-01  0.94567089874E-01  0.51100000000E-03 0.  1.
         11    1    4    4    0    0 -0.32145976176E-01  0.99640877053E-02 -0.24505535354E-02  0.33747787509E-01  0.51100000000E-03 0. -1.
</event>
<event>
 8    1  0.1060404E+005  0.1043930E+01  0.7957747E-01            NaN
         13   -1    0    0    0    0  0.00000000000E+00  0.00000000000E+00  0.74505805969E-08  0.10566000000E+00  0.10566000000E+00 0. -1.
     999900   -1    0    0    0    0 -0.00000000000E+00 -0.00000000000E+00 -0.74505805969E-08  0.93827000000E+00  0.93827000000E+00 0.  1.
     999902    2    1    2    0    0  0.17441439055E-01 -0.44539746554E-02 -0.15319217606E-01  0.10202927389E+01  0.10200188983E+01 0.  0.
     999903    2    3    3    0    0 -0.12509341897E+00 -0.71576081926E-02 -0.22185050912E-01  0.12879364460E+00  0.19900542242E-01 0.  0.
         14    1    1    2    0    0 -0.17441439055E-01  0.44539746554E-02  0.15319217606E-01  0.23637261149E-01  0.00000000000E+00 0. -1.
     999901    1    3    3    0    0  0.14253485802E+00  0.27036335372E-02  0.68658333054E-02  0.89149909425E+00  0.88000000000E+00 0.  1.
        -11    1    4    4    0    0 -0.71203932963E-01 -0.11357893359E-01 -0.19383220103E-01  0.74665736141E-01  0.51100000000E-03 0.  1.
         11    1    4    4    0    0 -0.53889486004E-01  0.42002851660E-02 -0.28018308087E-02  0.54127908458E-01  0.51100000000E-03 0. -1.
</event>
<event>
 8    1  0.1060404E+005  0.1043930E+01  0.7957747E-01            NaN
         13   -1    0    0    0    0  0.00000000000E+00  0.00000000000E+00  0.74505805969E-08  0.10566000000E+00  0.10566000000E+00 0. -1.
     999900   -1    0    0    0    0 -0.00000000000E+00 -0.00000000000E+00 -0.74505805969E-08  0.93827000000E+00  0.93827000000E+00 0. -1.
     999902    2    1    2    0    0  0.10565308960E-01  0.21060591657E-01 -0.73758584810E-03  0.10203563217E+01  0.10200839696E+01 0.  0.
     999903    2    3    3    0    0 -0.10025930929E+00  0.55385038462E-02 -0.79219365556E-01  0.12980457087E+00  0.22156593020E-01 0.  0.
         14    1    1    2    0    0 -0.10565308960E-01 -0.21060591657E-01  0.73758584810E-03  0.23573678271E-01  0.00000000000E+00 0.  1.
     999901    1    3    3    0    0  0.11082461825E+00  0.15522087811E-01  0.78481779708E-01  0.89055175086E+00  0.88000000000E+00 0.  1.
        -11    1    4    4    0    0 -0.89282499169E-01 -0.87576782903E-03 -0.74314509369E-01  0.11616814990E+00  0.51100000000E-03 0. -1.
         11    1    4    4    0    0 -0.10976810121E-01  0.64142716752E-02 -0.49048561862E-02  0.13636420966E-01  0.51100000000E-03 0.  1.
</event>
<event>
 8    1  0.1060404E+005  0.1043930E+01  0.7957747E-01            NaN
         13   -1    0    0    0    0  0.00000000000E+00  0.00000000000E+00  0.74505805969E-08  0.10566000000E+00  0.10566000000E+00 0.  1.
     999900   -1    0    0    0    0 -0.00000000000E+00 -0.00000000000E+00 -0.74505805969E-08  0.93827000000E+00  0.93827000000E+00 0. -1.
     999902    2    1    2    0    0 -0.34229738469E-03  0.16842380322E-01  0.15670605589E-01  0.10209223747E+01  0.10206630905E+01 0.  0.
     999903    2    3    3    0    0 -0.16187055612E-01  0.87707039089E-01 -0.94108822200E-01  0.13113342276E+00  0.19620363764E-01 0.  0.
         14    1    1    2    0    0  0.34229738469E-03 -0.16842380322E-01 -0.15670605589E-01  0.23007625299E-01  0.00000000000E+00 0.  1.
     999901    1    3    3    0    0  0.15844758228E-01 -0.70864658768E-01  0.10977942779E+00  0.88978895194E+00  0.88000000000E+00 0.  1.
        -11    1    4    4    0    0 -0.87839093840E-02  0.51355115404E-01 -0.40763649386E-01  0.66154676134E-01  0.51100000000E-03 0. -1.
         11    1    4    4    0    0 -0.74031462285E-02  0.36351923686E-01 -0.53345172815E-01  0.64978746628E-01  0.51100000000E-03 0.  1.
</event>
<event>
 8    1  0.1060404E+005  0.1043930E+01  0.7957747E-01            NaN
         13   -1    0    0    0    0  0.00000000000E+00  0.00000000000E+00  0.74505805969E-08  0.10566000000E+00  0.10566000000E+00 0.  1.
     999900   -1    0    0    0    0 -0.00000000000E+00 -0.00000000000E+00 -0.74505805969E-08  0.93827000000E+00  0.93827000000E+00 0.  1.
     999902    2    1    2    0    0 -0.17147832169E-02  0.11556722832E-02 -0.24554213432E-01  0.10192888666E+01  0.10189909754E+01 0.  0.
     999903    2    3    3    0    0  0.28611770817E-01 -0.49412601676E-01 -0.11760923091E+00  0.13242016913E+00  0.21045934592E-01 0.  0.
         14    1    1    2    0    0  0.17147832169E-02 -0.11556722832E-02  0.24554213432E-01  0.24641133439E-01  0.00000000000E+00 0.  1.
     999901    1    3    3    0    0 -0.30326554033E-01  0.50568273959E-01  0.93055017477E-01  0.88686869743E+00  0.88000000000E+00 0. -1.
        -11    1    4    4    0    0  0.29847239395E-01 -0.33444324783E-01 -0.86402894078E-01  0.97340134507E-01  0.51100000000E-03 0.  1.
         11    1    4    4    0    0 -0.12354685784E-02 -0.15968276893E-01 -0.31206336830E-01  0.35080034620E-01  0.51100000000E-03 0. -1.
</event>
<event>
 8    1  0.1060404E+005  0.1043930E+01  0.7957747E-01            NaN
         13   -1    0    0    0    0  0.00000000000E+00  0.00000000000E+00  0.74505805969E-08  0.10566000000E+00  0.10566000000E+00 0.  1.
     999900   -1    0    0    0    0 -0.00000000000E+00 -0.00000000000E+00 -0.74505805969E-08  0.93827000000E+00  0.93827000000E+00 0. -1.
     999902    2    1    2    0    0 -0.53930528371E-04 -0.79049191776E-02 -0.29105450449E-01  0.10137701276E+01  0.10133213971E+01 0.  0.
     999903    2    3    3    0    0 -0.11703132560E+00 -0.33138629189E-01  0.19133430549E-01  0.12436164964E+00  0.17470884895E-01 0.  0.
         14    1    1    2    0    0  0.53930528371E-04  0.79049191776E-02  0.29105450449E-01  0.30159872373E-01  0.00000000000E+00 0.  1.
     999901    1    3    3    0    0  0.11697739507E+00  0.25233710012E-01 -0.48238880998E-01  0.88940847799E+00  0.88000000000E+00 0.  1.
        -11    1    4    4    0    0 -0.10741316503E+00 -0.27992292795E-01  0.12799674986E-01  0.11173741217E+00  0.51100000000E-03 0. -1.
         11    1    4    4    0    0 -0.96181605706E-02 -0.51463363939E-02  0.63337555630E-02  0.12624237465E-01  0.51100000000E-03 0.  1.
</event>
<event>
 8    1  0.1060404E+005  0.1043930E+01  0.7957747E-01            NaN
         13   -1    0    0    0    0  0.00000000000E+00  0.00000000000E+00  0.74505805969E-08  0.10566000000E+00  0.10566000000E+00 0. -1.
     999900   -1    0    0    0    0 -0.00000000000E+00 -0.00000000000E+00 -0.74505805969E-08  0.93827000000E+00  0.93827000000E+00 0.  1.
     999902    2    1    2    0    0  0.20024018266E-01 -0.20850492543E-02  0.26290644707E-01  0.10108164569E+01  0.10102739246E+01 0.  0.
     999903    2    3    3    0    0 -0.72355711919E-01 -0.68400461558E-01 -0.62429268230E-01  0.11907491844E+00  0.19168997905E-01 0.  0.
         14    1    1    2    0    0 -0.20024018266E-01  0.20850492543E-02 -0.26290644707E-01  0.33113543105E-01  0.00000000000E+00 0.  1.
     999901    1    3    3    0    0  0.92379730184E-01  0.66315412303E-01  0.88719912937E-01  0.89174153846E+00  0.88000000000E+00 0. -1.
        -11    1    4    4    0    0 -0.31490252388E-01 -0.17513275587E-01 -0.19766251200E-01  0.41101297117E-01  0.51100000000E-03 0.  1.
         11    1    4    4    0    0 -0.40865459531E-01 -0.50887185971E-01 -0.42663017030E-01  0.77973621320E-01  0.51100000000E-03 0. -1.
</event>
<event>
 8    1  0.1060404E+005  0.1043930E+01  0.7957747E-01            NaN
         13   -1    0    0    0    0  0.00000000000E+00  0.00000000000E+00  0.74505805969E-08  0.10566000000E+00  0.10566000000E+00 0.  1.
     999900   -1    0    0    0    0 -0.00000000000E+00 -0.00000000000E+00 -0.74505805969E-08  0.93827000000E+00  0.93827000000E+00 0. -1.
     999902    2    1    2    0    0  0.23248134168E-01  0.20253530303E-02  0.56760783877E-02  0.10199134294E+01  0.10196306232E+01 0.  0.
     999903    2    3    3    0    0  0.26563360886E-01 -0.12532903625E+00 -0.20211287940E-01  0.13036281987E+00  0.13152534868E-01 0.  0.
         14    1    1    2    0    0 -0.23248134168E-01 -0.20253530303E-02 -0.56760783877E-02  0.24016570593E-01  0.00000000000E+00 0. -1.
     999901    1    3    3    0    0 -0.33152267183E-02  0.12735438928E+00  0.25887366328E-01  0.88955060954E+00  0.88000000000E+00 0. -1.
        -11    1    4    4    0    0  0.23253408482E-01 -0.96190446257E-01 -0.10752737330E-01  0.99544992030E-01  0.51100000000E-03 0.  1.
         11    1    4    4    0    0  0.33099524045E-02 -0.29138589997E-01 -0.94585506101E-02  0.30817827837E-01  0.51100000000E-03 0. -1.
</event>
<event>
 8    1  0.1060404E+005  0.1043930E+01  0.7957747E-01            NaN
         13   -1    0    0    0    0  0.00000000000E+00  0.00000000000E+00  0.74505805969E-08  0.10566000000E+00  0.10566000000E+00 0.  1.
     999900   -1    0    0    0    0 -0.00000000000E+00 -0.00000000000E+00 -0.74505805969E-08  0.93827000000E+00  0.93827000000E+00 0. -1.
     999902    2    1    2    0    0 -0.11015463515E-01 -0.20798507771E-01 -0.23366790977E-02  0.10202788176E+01  0.10200046505E+01 0.  0.
     999903    2    3    3    0    0  0.66488681681E-01  0.31373977531E-01  0.10410025432E+00  0.12895526152E+00  0.19685661465E-01 0.  0.
         14    1    1    2    0    0  0.11015463515E-01  0.20798507771E-01  0.23366790977E-02  0.23651182447E-01  0.00000000000E+00 0.  1.
     999901    1    3    3    0    0 -0.77504145196E-01 -0.52172485302E-01 -0.10643693341E+00  0.89132355603E+00  0.88000000000E+00 0. -1.
        -11    1    4    4    0    0  0.31148249968E-02  0.54905491390E-02  0.17202189833E-01  0.18330977078E-01  0.51100000000E-03 0.  1.
         11    1    4    4    0    0  0.63373856684E-01  0.25883428392E-01  0.86898064483E-01  0.11062428444E+00  0.51100000000E-03 0. -1.
</event>
<event>
 8    1  0.1060404E+005  0.1043930E+01  0.7957747E-01            NaN
         13   -1    0    0    0    0  0.00000000000E+00  0.00000000000E+00  0.74505805969E-08  0.10566000000E+00  0.10566000000E+00 0. -1.
     999900   -1    0    0    0    0 -0.00000000000E+00 -0.00000000000E+00 -0.74505805969E-08  0.93827000000E+00  0.93827000000E+00 0. -1.
     999902    2    1    2    0    0 -0.15078775098E-01 -0.16514487106E-01 -0.97724115260E-02  0.10195251282E+01  0.10192329906E+01 0.  0.
     999903    2    3    3    0    0 -0.41236066601E-01 -0.70770328951E-01 -0.10254834902E+00  0.13260051194E+00  0.18917696214E-01 0.  0.
         14    1    1    2    0    0  0.15078775098E-01  0.16514487106E-01  0.97724115260E-02  0.24404871847E-01  0.00000000000E+00 0. -1.
     999901    1    3    3    0    0  0.26157291503E-01  0.54255841845E-01  0.92775937497E-01  0.88692461622E+00  0.88000000000E+00 0.  1.
        -11    1    4    4    0    0 -0.45460665887E-02 -0.22396720977E-02 -0.13314238904E-01  0.14255277308E-01  0.51100000000E-03 0. -1.
         11    1    4    4    0    0 -0.36690000012E-01 -0.68530656853E-01 -0.89234110119E-01  0.11834523463E+00  0.51100000000E-03 0.  1.
</event>
<event>
 8    1  0.1060404E+005  0.1043930E+01  0.7957747E-01            NaN
         13   -1    0    0    0    0  0.00000000000E+00  0.00000000000E+00  0.74505805969E-08  0.10566000000E+00  0.10566000000E+00 0.  1.
     999900   -1    0    0    0    0 -0.00000000000E+00 -0.00000000000E+00 -0.74505805969E-08  0.93827000000E+00  0.93827000000E+00 0. -1.
     999902    2    1    2    0    0  0.37273095681E-02  0.22984173920E-01 -0.56693526717E-02  0.10199653042E+01  0.10196837328E+01 0.  0.
     999903    2    3    3    0    0 -0.89689821287E-01  0.42886367394E-01  0.82212489168E-01  0.13044516623E+00  0.19327272618E-01 0.  0.
         14    1    1    2    0    0 -0.37273095681E-02 -0.22984173920E-01  0.56693526717E-02  0.23964695849E-01  0.00000000000E+00 0.  1.
     999901    1    3    3    0    0  0.93417130855E-01 -0.19902193474E-01 -0.87881841840E-01  0.88952013792E+00  0.88000000000E+00 0. -1.
        -11    1    4    4    0    0 -0.74674159384E-01  0.43023968545E-01  0.68257257941E-01  0.10993910283E+00  0.51100000000E-03 0.  1.
         11    1    4    4    0    0 -0.15015661903E-01 -0.13760115061E-03  0.13955231227E-01  0.20506063397E-01  0.51100000000E-03 0. -1.
</event>
<event>
 8    1  0.1060404E+005  0.1043930E+01  0.7957747E-01            NaN
         13   -1    0    0    0    0  0.00000000000E+00  0.00000000000E+00  0.74505805969E-08  0.10566000000E+00  0.10566000000E+00 0. -1.
     999900   -1    0    0    0    0 -0.00000000000E+00 -0.00000000000E+00 -0.74505805969E-08  0.93827000000E+00  0.93827000000E+00 0. -1.
     999902    2    1    2    0    0  0.34630554505E-02  0.28931304796E-02 -0.23195958199E-01  0.10202991847E+01  0.10200254952E+01 0.  0.
     999903    2    3    3    0    0 -0.10990201185E+00 -0.94858294219E-02 -0.68944934748E-01  0.13176227153E+00  0.20963277488E-01 0.  0.
         14    1    1    2    0    0 -0.34630554505E-02 -0.28931304796E-02  0.23195958199E-01  0.23630815343E-01  0.00000000000E+00 0. -1.
     999901    1    3    3    0    0  0.11336506730E+00  0.12378959902E-01  0.45748976549E-01  0.88853691313E+00  0.88000000000E+00 0.  1.
        -11    1    4    4    0    0 -0.70804671628E-01 -0.11636972172E-01 -0.54171293477E-01  0.89908346686E-01  0.51100000000E-03 0. -1.
         11    1    4    4    0    0 -0.39097340222E-01  0.21511427500E-02 -0.14773641270E-01  0.41853924845E-01  0.51100000000E-03 0.  1.
</event>
<event>
 8    1  0.1060404E+005  0.1043930E+01  0.7957747E-01            NaN
         13   -1    0    0    0    0  0.00000000000E+00  0.00000000000E+00  0.74505805969E-08  0.10566000000E+00  0.10566000000E+00 0. -1.
     999900   -1    0    0    0    0 -0.00000000000E+00 -0.00000000000E+00 -0.74505805969E-08  0.93827000000E+00  0.93827000000E+00 0.  1.
     999902    2    1    2    0    0  0.10657442916E-01  0.19615331467E-01 -0.91392341742E-02  0.10198080615E+01  0.10195227385E+01 0.  0.
     999903    2    3    3    0    0 -0.71652341471E-01  0.28929154704E-01 -0.10280652199E+00  0.13096881349E+00  0.24752678894E-01 0.  0.
         14    1    1    2    0    0 -0.10657442916E-01 -0.19615331467E-01  0.91392341742E-02  0.24121938549E-01  0.00000000000E+00 0.  1.
     999901    1    3    3    0    0  0.82309784387E-01 -0.93138232377E-02  0.93667287819E-01  0.88883924796E+00  0.88000000000E+00 0. -1.
        -11    1    4    4    0    0 -0.70134373872E-02  0.17776635925E-02 -0.25916928393E-01  0.26912760731E-01  0.51100000000E-03 0. -1.
         11    1    4    4    0    0 -0.64638904084E-01  0.27151491112E-01 -0.76889593600E-01  0.10405605276E+00  0.51100000000E-03 0.  1.
</event>
<event>
 8    1  0.1060404E+005  0.1043930E+01  0.7957747E-01            NaN
         13   -1    0    0    0    0  0.00000000000E+00  0.00000000000E+00  0.74505805969E-08  0.10566000000E+00  0.10566000000E+00 0.  1.
     999900   -1    0    0    0    0 -0.00000000000E+00 -0.00000000000E+00 -0.74505805969E-08  0.93827000000E+00  0.93827000000E+00 0.  1.
     999902    2    1    2    0    0  0.17738807321E-01  0.14619489957E-01 -0.61276458576E-02  0.10201404473E+01  0.10198630249E+01 0.  0.
     999903    2    3    3    0    0 -0.68513606634E-01 -0.73247355466E-01 -0.79230500054E-01  0.12856650833E+00  0.13877519538E-01 0.  0.
         14    1    1    2    0    0 -0.17738807321E-01 -0.14619489957E-01  0.61276458576E-02  0.23789552655E-01  0.00000000000E+00 0. -1.
     999901    1    3    3    0    0  0.86252413956E-01  0.87866845423E-01  0.73102854197E-01  0.89157393901E+00  0.88000000000E+00 0.  1.
        -11    1    4    4    0    0 -0.44305711396E-01 -0.52636499969E-01 -0.47227159768E-01  0.83452159541E-01  0.51100000000E-03 0. -1.
         11    1    4    4    0    0 -0.24207895238E-01 -0.20610855497E-01 -0.32003340286E-01  0.45114348789E-01  0.51100000000E-03 0.  1.
</event>
<event>
 8    1  0.1060404E+005  0.1043930E+01  0.7957747E-01            NaN
         13   -1    0    0    0    0  0.00000000000E+00  0.00000000000E+00  0.74505805969E-08  0.10566000000E+00  0.10566000000E+00 0. -1.
     999900   -1    0    0    0    0 -0.00000000000E+00 -0.00000000000E+00 -0.74505805969E-08  0.93827000000E+00  0.93827000000E+00 0.  1.
     999902    2    1    2    0    0  0.11455132804E-02  0.21796530912E-01 -0.90787403171E-02  0.10202905312E+01  0.10200166388E+01 0.  0.
     999903    2    3    3    0    0  0.60583088350E-01  0.69533770301E-01 -0.93629442366E-01  0.13295717185E+00  0.20146495049E-01 0.  0.
         14    1    1    2    0    0 -0.11455132804E-02 -0.21796530912E-01  0.90787403171E-02  0.23639468822E-01  0.00000000000E+00 0.  1.
     999901    1    3    3    0    0 -0.59437575070E-01 -0.47737239390E-01  0.84550702049E-01  0.88733335933E+00  0.88000000000E+00 0. -1.
        -11    1    4    4    0    0  0.28392870474E-01  0.46796548590E-01 -0.59129267905E-01  0.80576693266E-01  0.51100000000E-03 0.  1.
         11    1    4    4    0    0  0.32190217876E-01  0.22737221711E-01 -0.34500174462E-01  0.52380478586E-01  0.51100000000E-03 0. -1.
</event>
<event>
 8    1  0.1060404E+005  0.1043930E+01  0.7957747E-01            NaN
         13   -1    0    0    0    0  0.00000000000E+00  0.00000000000E+00  0.74505805969E-08  0.10566000000E+00  0.10566000000E+00 0. -1.
     999900   -1    0    0    0    0 -0.00000000000E+00 -0.00000000000E+00 -0.74505805969E-08  0.93827000000E+00  0.93827000000E+00 0.  1.
     999902    2    1    2    0    0 -0.17330985104E-01  0.22974212549E-02 -0.15568587272E-01  0.10205201282E+01  0.10202515915E+01 0.  0.
     999903    2    3    3    0    0  0.67114553920E-01 -0.62861853771E-01 -0.91683502877E-01  0.13081778438E+00  0.15857238183E-01 0.  0.
         14    1    1    2    0    0  0.17330985104E-01 -0.22974212549E-02  0.15568587272E-01  0.23409871822E-01  0.00000000000E+00 0. -1.
     999901    1    3    3    0    0 -0.84445539024E-01  0.65159275026E-01  0.76114915606E-01  0.88970234380E+00  0.88000000000E+00 0. -1.
        -11    1    4    4    0    0  0.38946466664E-01 -0.45596866811E-01 -0.64073110127E-01  0.87758339154E-01  0.51100000000E-03 0.  1.
         11    1    4    4    0    0  0.28168087256E-01 -0.17264986959E-01 -0.27610392750E-01  0.43059445226E-01  0.51100000000E-03 0. -1.
</event>
<event>
 8    1  0.1060404E+005  0.1043930E+01  0.7957747E-01            NaN
         13   -1    0    0    0    0  0.00000000000E+00  0.00000000000E+00  0.74505805969E-08  0.10566000000E+00  0.10566000000E+00 0. -1.
     999900   -1    0    0    0    0 -0.00000000000E+00 -0.00000000000E+00 -0.74505805969E-08  0.93827000000E+00  0.93827000000E+00 0. -1.
     999902    2    1    2    0    0 -0.10621777591E-01 -0.13145717287E-01 -0.16209760202E-01  0.10205123065E+01  0.10202435883E+01 0.  0.
     999903    2    3    3    0    0 -0.88173476824E-02 -0.22956971027E-02 -0.13144212074E+00  0.13293161958E+00  0.17628628246E-01 0.  0.
         14    1    1    2    0    0  0.10621777591E-01  0.13145717287E-01  0.16209760202E-01  0.23417693481E-01  0.00000000000E+00 0. -1.
     999901    1    3    3    0    0 -0.18044299082E-02 -0.10850020184E-01  0.11523236054E+00  0.88758068694E+00  0.88000000000E+00 0.  1.
        -11    1    4    4    0    0  0.50763284998E-02  0.10313043752E-02 -0.47076298102E-01  0.47363188910E-01  0.51100000000E-03 0.  1.
         11    1    4    4    0    0 -0.13893676182E-01 -0.33270014780E-02 -0.84365822643E-01  0.85568430674E-01  0.51100000000E-03 0. -1.
</event>
<event>
 8    1  0.1060404E+005  0.1043930E+01  0.7957747E-01            NaN
         13   -1    0    0    0    0  0.00000000000E+00  0.00000000000E+00  0.74505805969E-08  0.10566000000E+00  0.10566000000E+00 0. -1.
     999900   -1    0    0    0    0 -0.00000000000E+00 -0.00000000000E+00 -0.74505805969E-08  0.93827000000E+00  0.93827000000E+00 0.  1.
     999902    2    1    2    0    0  0.11334682268E-01  0.10043685830E-01  0.24428240510E-01  0.10151882258E+01  0.10147812791E+01 0.  0.
     999903    2    3    3    0    0 -0.58699533283E-01  0.71090779160E-01  0.86815591877E-01  0.12810101448E+00  0.19323271702E-01 0.  0.
         14    1    1    2    0    0 -0.11334682268E-01 -0.10043685830E-01 -0.24428240510E-01  0.28741774155E-01  0.00000000000E+00 0.  1.
     999901    1    3    3    0    0  0.70034215551E-01 -0.61047093330E-01 -0.62387351367E-01  0.88708721136E+00  0.88000000000E+00 0.  1.
        -11    1    4    4    0    0 -0.59359942678E-02  0.19525773983E-01  0.18355746350E-01  0.27453349935E-01  0.51100000000E-03 0. -1.
         11    1    4    4    0    0 -0.52763539015E-01  0.51565005177E-01  0.68459845527E-01  0.10064766455E+00  0.51100000000E-03 0.  1.
</event>
<event>
 8    1  0.1060404E+005  0.1043930E+01  0.7957747E-01            NaN
         13   -1    0    0    0    0  0.00000000000E+00  0.00000000000E+00  0.74505805969E-08  0.10566000000E+00  0.10566000000E+00 0.  1.
     999900   -1    0    0    0    0 -0.00000000000E+00 -0.00000000000E+00 -0.74505805969E-08  0.93827000000E+00  0.93827000000E+00 0.  1.
     999902    2    1    2    0    0 -0.10496214781E-01  0.21134686653E-01  0.79276255861E-02  0.10190363713E+01  0.10187322677E+01 0.  0.
     999903    2    3    3    0    0  0.68859736961E-01 -0.48215042084E-01 -0.93080676311E-01  0.12701090693E+00  0.20035082205E-01 0.  0.
         14    1    1    2    0    0  0.10496214781E-01 -0.21134686653E-01 -0.79276255861E-02  0.24893628745E-01  0.00000000000E+00 0. -1.
     999901    1    3    3    0    0 -0.79355951743E-01  0.69349728737E-01  0.10100830190E+00  0.89202546433E+00  0.88000000000E+00 0. -1.
        -11    1    4    4    0    0  0.59406267042E-01 -0.31676548571E-01 -0.73999795038E-01  0.10004368586E+00  0.51100000000E-03 0.  1.
         11    1    4    4    0    0  0.94534699189E-02 -0.16538493513E-01 -0.19080881273E-01  0.26967221072E-01  0.51100000000E-03 0. -1.
</event>
<event>
 8    1  0.1060404E+005  0.1043930E+01  0.7957747E-01            NaN
         13   -1    0    0    0    0  0.00000000000E+00  0.00000000000E+00  0.74505805969E-08  0.10566000000E+00  0.10566000000E+00 0. -1.
     999900   -1    0    0    0    0 -0.00000000000E+00 -0.00000000000E+00 -0.74505805969E-08  0.93827000000E+00  0.93827000000E+00 0.  1.
     999902    2    1    2    0    0 -0.10433447186E-01  0.91521063924E-02 -0.15511520613E-01  0.10231159388E+01  0.10229041984E+01 0.  0.
     999903    2    3    3    0    0  0.37177967368E-01  0.90780340674E-01  0.86391918717E-01  0.13220947549E+00  0.19811872202E-01 0.  0.
         14    1    1    2    0    0  0.10433447186E-01 -0.91521063924E-02  0.15511520613E-01  0.20814061192E-01  0.00000000000E+00 0. -1.
     999901    1    3    3    0    0 -0.47611414554E-01 -0.81628234282E-01 -0.10190343933E+00  0.89090646331E+00  0.88000000000E+00 0.  1.
        -11    1    4    4    0    0  0.36203149993E-01  0.66968827886E-01  0.63074356423E-01  0.98864187333E-01  0.51100000000E-03 0. -1.
         11    1    4    4    0    0  0.97481737502E-03  0.23811512788E-01  0.23317562294E-01  0.33345288160E-01  0.51100000000E-03 0.  1.
</event>
<event>
 8    1  0.1060404E+005  0.1043930E+01  0.7957747E-01            NaN
         13   -1    0    0    0    0  0.00000000000E+00  0.00000000000E+00  0.74505805969E-08  0.10566000000E+00  0.10566000000E+00 0. -1.
     999900   -1    0    0    0    0 -0.00000000000E+00 -0.00000000000E+00 -0.74505805969E-08  0.93827000000E+00  0.93827000000E+00 0.  1.
     999902    2    1    2    0    0  0.12060502530E-02  0.58861584120E-02  0.23619040820E-01  0.10195586950E+01  0.10192673702E+01 0.  0.
     999903    2    3    3    0    0  0.33034639913E-01 -0.11486760414E+00 -0.42302835435E-01  0.12830103077E+00  0.19641046156E-01 0.  0.
         14    1    1    2    0    0 -0.12060502530E-02 -0.58861584120E-02 -0.23619040820E-01  0.24371304998E-01  0.00000000000E+00 0.  1.
     999901    1    3    3    0    0 -0.31828589660E-01  0.12075376255E+00  0.65921876255E-01  0.89125766424E+00  0.88000000000E+00 0. -1.
        -11    1    4    4    0    0  0.20943018394E-01 -0.82148730356E-01 -0.38817056038E-01  0.93241883717E-01  0.51100000000E-03 0. -1.
         11    1    4    4    0    0  0.12091621519E-01 -0.32718873786E-01 -0.34857793968E-02  0.35059147049E-01  0.51100000000E-03 0.  1.
</event>
<event>
 8    1  0.1060404E+005  0.1043930E+01  0.7957747E-01            NaN
         13   -1    0    0    0    0  0.00000000000E+00  0.00000000000E+00  0.74505805969E-08  0.10566000000E+00  0.10566000000E+00 0. -1.
     999900   -1    0    0    0    0 -0.00000000000E+00 -0.00000000000E+00 -0.74505805969E-08  0.93827000000E+00  0.93827000000E+00 0.  1.
     999902    2    1    2    0    0 -0.16361890214E-01  0.10146120076E-01 -0.12273185315E-01  0.10210983053E+01  0.10208430158E+01 0.  0.
     999903    2    3    3    0    0  0.26445796403E-02  0.65351750610E-01 -0.11455057944E+00  0.13325283854E+00  0.18884878105E-01 0.  0.
         14    1    1    2    0    0  0.16361890214E-01 -0.10146120076E-01  0.12273185315E-01  0.22831694675E-01  0.00000000000E+00 0. -1.
     999901    1    3    3    0    0 -0.19006469854E-01 -0.55205630535E-01  0.10227739412E+00  0.88784546678E+00  0.88000000000E+00 0. -1.
        -11    1    4    4    0    0 -0.47079589090E-02  0.27464709079E-01 -0.62686910298E-01  0.68603097346E-01  0.51100000000E-03 0.  1.
         11    1    4    4    0    0  0.73525385494E-02  0.37887041532E-01 -0.51863669139E-01  0.64649741196E-01  0.51100000000E-03 0. -1.
</event>
<event>
 8    1  0.1060404E+005  0.1043930E+01  0.7957747E-01            NaN
         13   -1    0    0    0    0  0.00000000000E+00  0.00000000000E+00  0.74505805969E-08  0.10566000000E+00  0.10566000000E+00 0. -1.
     999900   -1    0    0    0    0 -0.00000000000E+00 -0.00000000000E+00 -0.74505805969E-08  0.93827000000E+00  0.93827000000E+00 0.  1.
     999902    2    1    2    0    0  0.74214182034E-02  0.21743980614E-01 -0.60444562260E-02  0.10201726097E+01  0.10198959457E+01 0.  0.
     999903    2    3    3    0    0 -0.85228811674E-01 -0.61534403174E-01 -0.71708018407E-01  0.12897619048E+00  0.21032943035E-01 0.  0.
         14    1    1    2    0    0 -0.74214182034E-02 -0.21743980614E-01  0.60444562260E-02  0.23757390264E-01  0.00000000000E+00 0.  1.
     999901    1    3    3    0    0  0.92650229878E-01  0.83278383787E-01  0.65663562181E-01  0.89119641926E+00  0.88000000000E+00 0.  1.
        -11    1    4    4    0    0 -0.90542453108E-02 -0.59302772327E-02 -0.58222458442E-03  0.10851159047E-01  0.51100000000E-03 0. -1.
         11    1    4    4    0    0 -0.76174566363E-01 -0.55604125941E-01 -0.71125793822E-01  0.11812503143E+00  0.51100000000E-03 0.  1.
</event>
<event>
 8    1  0.1060404E+005  0.1043930E+01  0.7957747E-01            NaN
         13   -1    0    0    0    0  0.00000000000E+00  0.00000000000E+00  0.74505805969E-08  0.10566000000E+00  0.10566000000E+00 0.  1.
     999900   -1    0    0    0    0 -0.00000000000E+00 -0.00000000000E+00 -0.74505805969E-08  0.93827000000E+00  0.93827000000E+00 0. -1.
     999902    2    1    2    0    0  0.15223009636E-01  0.95407795167E-02  0.15392272342E-01  0.10202722625E+01  0.10199979417E+01 0.  0.
     999903    2    3    3    0    0  0.35931363096E-02  0.71128885980E-01  0.11042145746E+00  0.13293980234E+00  0.20195636419E-01 0.  0.
         14    1    1    2    0    0 -0.15223009636E-01 -0.95407795167E-02 -0.15392272342E-01  0.23657737508E-01  0.00000000000E+00 0. -1.
     999901    1    3    3    0    0  0.11629873326E-01 -0.61588106463E-01 -0.95029185117E-01  0.88733246015E+00  0.88000000000E+00 0. -1.
        -11    1    4    4    0    0  0.11999547360E-01  0.42758710943E-01  0.67786091363E-01  0.81040186337E-01  0.51100000000E-03 0. -1.
         11    1    4    4    0    0 -0.84064110506E-02  0.28370175038E-01  0.42635366096E-01  0.51899616005E-01  0.51100000000E-03 0.  1.
</event>
<event>
 8    1  0.1060404E+005  0.1043930E+01  0.7957747E-01            NaN
         13   -1    0    0    0    0  0.00000000000E+00  0.00000000000E+00  0.74505805969E-08  0.10566000000E+00  0.10566000000E+00 0. -1.
     999900   -1    0    0    0    0 -0.00000000000E+00 -0.00000000000E+00 -0.74505805969E-08  0.93827000000E+00  0.93827000000E+00 0.  1.
     999902    2    1    2    0    0 -0.53760994606E-02 -0.91105748208E-02 -0.19779695849E-01  0.10214991867E+01  0.10212528810E+01 0.  0.
     999903    2    3    3    0    0 -0.97909153422E-01  0.73935586901E-01  0.40457285210E-01  0.13072001934E+00  0.19956407388E-01 0.  0.
         14    1    1    2    0    0  0.53760994606E-02  0.91105748208E-02  0.19779695849E-01  0.22430813334E-01  0.00000000000E+00 0. -1.
     999901    1    3    3    0    0  0.92533053961E-01 -0.83046161722E-01 -0.60236981059E-01  0.89077916732E+00  0.88000000000E+00 0. -1.
        -11    1    4    4    0    0 -0.37784337924E-01  0.17406477760E-01  0.10350195767E-01  0.42872244329E-01  0.51100000000E-03 0. -1.
         11    1    4    4    0    0 -0.60124815497E-01  0.56529109141E-01  0.30107089443E-01  0.87847775012E-01  0.51100000000E-03 0.  1.
</event>
<event>
 8    1  0.1060404E+005  0.1043930E+01  0.7957747E-01            NaN
         13   -1    0    0    0    0  0.00000000000E+00  0.00000000000E+00  0.74505805969E-08  0.10566000000E+00  0.10566000000E+00 0.  1.
     999900   -1    0    0    0    0 -0.00000000000E+00 -0.00000000000E+00 -0.74505805969E-08  0.93827000000E+00  0.93827000000E+00 0. -1.
     999902    2    1    2    0    0  0.28952527470E-02 -0.19478043704E-01  0.13646496047E-01  0.10199716292E+01  0.10196902083E+01 0.  0.
     999903    2    3    3    0    0  0.66121838485E-01  0.10794865497E+00 -0.71995082263E-02  0.12830480774E+00  0.19628579580E-01 0.  0.
         14    1    1    2    0    0 -0.28952527470E-02  0.19478043704E-01 -0.13646496047E-01  0.23958370757E-01  0.00000000000E+00 0. -1.
     999901    1    3    3    0    0 -0.63226585738E-01 -0.12742669867E+00  0.20846004273E-01  0.89166682150E+00  0.88000000000E+00 0.  1.
        -11    1    4    4    0    0  0.52796609203E-01  0.69095340495E-01 -0.29745662100E-02  0.87010098188E-01  0.51100000000E-03 0.  1.
         11    1    4    4    0    0  0.13325229282E-01  0.38853314471E-01 -0.42249420163E-02  0.41294709550E-01  0.51100000000E-03 0. -1.
</event>
<event>
 8    1  0.1060404E+005  0.1043930E+01  0.7957747E-01            NaN
         13   -1    0    0    0    0  0.00000000000E+00  0.00000000000E+00  0.74505805969E-08  0.10566000000E+00  0.10566000000E+00 0.  1.
     999900   -1    0    0    0    0 -0.00000000000E+00 -0.00000000000E+00 -0.74505805969E-08  0.93827000000E+00  0.93827000000E+00 0. -1.
     999902    2    1    2    0    0  0.18108112783E-01 -0.78415437567E-02 -0.13055865883E-01  0.10202688675E+01  0.10199944670E+01 0.  0.
     999903    2    3    3    0    0  0.86017870942E-01 -0.69911618254E-01 -0.71505215325E-01  0.13354413240E+00  0.20840609167E-01 0.  0.
         14    1    1    2    0    0 -0.18108112783E-01  0.78415437567E-02  0.13055865883E-01  0.23661132496E-01  0.00000000000E+00 0.  1.
     999901    1    3    3    0    0 -0.67909758159E-01  0.62070074497E-01  0.58449349442E-01  0.88672473511E+00  0.88000000000E+00 0. -1.
        -11    1    4    4    0    0  0.10349193059E-01 -0.11452739442E-01 -0.18899583196E-01  0.24407507118E-01  0.51100000000E-03 0. -1.
         11    1    4    4    0    0  0.75668677883E-01 -0.58458878812E-01 -0.52605632129E-01  0.10913662528E+00  0.51100000000E-03 0.  1.
</event>
<event>
 8    1  0.1060404E+005  0.1043930E+01  0.7957747E-01            NaN
         13   -1    0    0    0    0  0.00000000000E+00  0.00000000000E+00  0.74505805969E-08  0.10566000000E+00  0.10566000000E+00 0.  1.
     999900   -1    0    0    0    0 -0.00000000000E+00 -0.00000000000E+00 -0.74505805969E-08  0.93827000000E+00  0.93827000000E+00 0.  1.
     999902    2    1    2    0    0  0.34214931361E-02  0.88053581528E-02  0.20944399065E-01  0.10209537340E+01  0.10206951642E+01 0.  0.
     999903    2    3    3    0    0 -0.16440116526E-01  0.11254873164E+00 -0.61594130302E-01  0.13080218515E+00  0.19439144175E-01 0.  0.
         14    1    1    2    0    0 -0.34214931361E-02 -0.88053581528E-02 -0.20944399065E-01  0.22976266008E-01  0.00000000000E+00 0. -1.
     999901    1    3    3    0    0  0.19861609662E-01 -0.10374337349E+00  0.82538529367E-01  0.89015154884E+00  0.88000000000E+00 0. -1.
        -11    1    4    4    0    0 -0.37371610151E-02  0.66328953181E-01 -0.27127323428E-01  0.71761056291E-01  0.51100000000E-03 0.  1.
         11    1    4    4    0    0 -0.12702955511E-01  0.46219778459E-01 -0.34466806874E-01  0.59041128856E-01  0.51100000000E-03 0. -1.
</event>
<event>
 8    1  0.1060404E+005  0.1043930E+01  0.7957747E-01            NaN
         13   -1    0    0    0    0  0.00000000000E+00  0.00000000000E+00  0.74505805969E-08  0.10566000000E+00  0.10566000000E+00 0.  1.
     999900   -1    0    0    0    0 -0.00000000000E+00 -0.00000000000E+00 -0.74505805969E-08  0.93827000000E+00  0.93827000000E+00 0.  1.
     999902    2    1    2    0    0  0.15530738220E-01  0.58906653397E-02 -0.16993400517E-01  0.10201670156E+01  0.10198902197E+01 0.  0.
     999903    2    3    3    0    0 -0.10463127801E+00  0.39889858995E-01  0.58951026142E-01  0.12811185402E+00  0.19962927366E-01 0.  0.
         14    1    1    2    0    0 -0.15530738220E-01 -0.58906653397E-02  0.16993400517E-01  0.23762984428E-01  0.00000000000E+00 0.  1.
     999901    1    3    3    0    0  0.12016201623E+00 -0.33999193656E-01 -0.75944426659E-01  0.89205516155E+00  0.88000000000E+00 0.  1.
        -11    1    4    4    0    0 -0.79357531067E-01  0.35639709425E-01  0.37689265791E-01  0.94807955899E-01  0.51100000000E-03 0. -1.
         11    1    4    4    0    0 -0.25273746939E-01  0.42501495705E-02  0.21261760351E-01  0.33303898119E-01  0.51100000000E-03 0.  1.
</event>
<event>
 8    1  0.1060404E+005  0.1043930E+01  0.7957747E-01            NaN
         13   -1    0    0    0    0  0.00000000000E+00  0.00000000000E+00  0.74505805969E-08  0.10566000000E+00  0.10566000000E+00 0.  1.
     999900   -1    0    0    0    0 -0.00000000000E+00 -0.00000000000E+00 -0.74505805969E-08  0.93827000000E+00  0.93827000000E+00 0. -1.
     999902    2    1    2    0    0  0.87145222708E-02  0.19713986245E-01 -0.10626145243E-01  0.10198987887E+01  0.10196156335E+01 0.  0.
     999903    2    3    3    0    0  0.37075984412E-01 -0.12076009024E-01 -0.12388518372E+00  0.13161809766E+00  0.21338375586E-01 0.  0.
         14    1    1    2    0    0 -0.87145222708E-02 -0.19713986245E-01  0.10626145243E-01  0.24031211264E-01  0.00000000000E+00 0.  1.
     999901    1    3    3    0    0 -0.28361462141E-01  0.31789995269E-01  0.11325903848E+00  0.88828069107E+00  0.88000000000E+00 0.  1.
        -11    1    4    4    0    0  0.24359776601E-01 -0.12258944797E-01 -0.53076323442E-01  0.59674430661E-01  0.51100000000E-03 0. -1.
         11    1    4    4    0    0  0.12716207811E-01  0.18293577308E-03 -0.70808860281E-01  0.71943667003E-01  0.51100000000E-03 0.  1.
</event>
<event>
 8    1  0.1060404E+005  0.1043930E+01  0.7957747E-01            NaN
         13   -1    0    0    0    0  0.00000000000E+00  0.00000000000E+00  0.74505805969E-08  0.10566000000E+00  0.10566000000E+00 0.  1.
     999900   -1    0    0    0    0 -0.00000000000E+00 -0.00000000000E+00 -0.74505805969E-08  0.93827000000E+00  0.93827000000E+00 0.  1.
     999902    2    1    2    0    0 -0.19331949694E-01 -0.34350587715E-02 -0.10333257812E-01  0.10217421627E+01  0.10215012222E+01 0.  0.
     999903    2    3    3    0    0 -0.13728303534E-01 -0.94464413096E-01  0.88262041296E-01  0.13155185876E+00  0.20092584442E-01 0.  0.
         14    1    1    2    0    0  0.19331949694E-01  0.34350587715E-02  0.10333257812E-01  0.22187837315E-01  0.00000000000E+00 0.  1.
     999901    1    3    3    0    0 -0.56036461597E-02  0.91029354324E-01 -0.98595299108E-01  0.89019030393E+00  0.88000000000E+00 0.  1.
        -11    1    4    4    0    0 -0.22706102976E-02 -0.20410308459E-01  0.88592739329E-02  0.22371504602E-01  0.51100000000E-03 0. -1.
         11    1    4    4    0    0 -0.11457693236E-01 -0.74054104637E-01  0.79402767363E-01  0.10918035416E+00  0.51100000000E-03 0.  1.
</event>
<event>
 8    1  0.1060404E+005  0.1043930E+01  0.7957747E-01            NaN
         13   -1    0    0    0    0  0.00000000000E+00  0.00000000000E+00  0.74505805969E-08  0.10566000000E+00  0.10566000000E+00 0.  1.
     999900   -1    0    0    0    0 -0.00000000000E+00 -0.00000000000E+00 -0.74505805969E-08  0.93827000000E+00  0.93827000000E+00 0. -1.
     999902    2    1    2    0    0  0.18790296156E-01  0.72394920145E-02  0.91854389352E-02  0.10217972694E+01  0.10215575373E+01 0.  0.
     999903    2    3    3    0    0 -0.42566387236E-01  0.53396403615E-01  0.11202745820E+00  0.13248765854E+00  0.18432445113E-01 0.  0.
         14    1    1    2    0    0 -0.18790296156E-01 -0.72394920145E-02 -0.91854389352E-02  0.22132730575E-01  0.00000000000E+00 0.  1.
     999901    1    3    3    0    0  0.61356683393E-01 -0.46156911600E-01 -0.10284201927E+00  0.88930961088E+00  0.88000000000E+00 0. -1.
        -11    1    4    4    0    0 -0.43106136856E-01  0.50959823819E-01  0.10025259554E+00  0.12044038655E+00  0.51100000000E-03 0.  1.
         11    1    4    4    0    0  0.53974961962E-03  0.24365797954E-02  0.11774862658E-01  0.12047271988E-01  0.51100000000E-03 0. -1.
</event>
<event>
 8    1  0.1060404E+005  0.1043930E+01  0.7957747E-01            NaN
         13   -1    0    0    0    0  0.00000000000E+00  0.00000000000E+00  0.74505805969E-08  0.10566000000E+00  0.10566000000E+00 0. -1.
     999900   -1    0    0    0    0 -0.00000000000E+00 -0.00000000000E+00 -0.74505805969E-08  0.93827000000E+00  0.93827000000E+00 0.  1.
     999902    2    1    2    0    0 -0.10342834364E-01 -0.19138269439E-01 -0.10410198174E-01  0.10198132049E+01  0.10195280051E+01 0.  0.
     999903    2    3    3    0    0 -0.42494052800E-01  0.20712959553E-01 -0.12100579501E+00  0.13141396619E+00  0.19810524132E-01 0.  0.
         14    1    1    2    0    0  0.10342834364E-01  0.19138269439E-01  0.10410198174E-01  0.24116795099E-01  0.00000000000E+00 0. -1.
     999901    1    3    3    0    0  0.32151218436E-01 -0.39851228992E-01  0.11059559684E+00  0.88839923871E+00  0.88000000000E+00 0. -1.
        -11    1    4    4    0    0 -0.26480291670E-01  0.25095340349E-02 -0.71469722576E-01  0.76260644989E-01  0.51100000000E-03 0. -1.
         11    1    4    4    0    0 -0.16013761130E-01  0.18203425518E-01 -0.49536072438E-01  0.55153321203E-01  0.51100000000E-03 0.  1.
</event>
<event>
 8    1  0.1060404E+005  0.1043930E+01  0.7957747E-01            NaN
         13   -1    0    0    0    0  0.00000000000E+00  0.00000000000E+00  0.74505805969E-08  0.10566000000E+00  0.10566000000E+00 0.  1.
     999900   -1    0    0    0    0 -0.00000000000E+00 -0.00000000000E+00 -0.74505805969E-08  0.93827000000E+00  0.93827000000E+00 0. -1.
     999902    2    1    2    0    0  0.23712500157E-01 -0.89997081415E-03  0.75467865425E-02  0.10190292651E+01  0.10187249857E+01 0.  0.
     999903    2    3    3    0    0  0.34607786933E-01 -0.99371825542E-01 -0.73042897200E-01  0.12981044469E+00  0.21048232529E-01 0.  0.
         14    1    1    2    0    0 -0.23712500157E-01  0.89997081415E-03 -0.75467865425E-02  0.24900734895E-01  0.00000000000E+00 0. -1.
     999901    1    3    3    0    0 -0.10895286776E-01  0.98471854728E-01  0.80589683742E-01  0.88921882041E+00  0.88000000000E+00 0. -1.
        -11    1    4    4    0    0  0.24481891892E-01 -0.90374782136E-01 -0.61687398255E-01  0.11212742974E+00  0.51100000000E-03 0. -1.
         11    1    4    4    0    0  0.10125895041E-01 -0.89970434061E-02 -0.11355498945E-01  0.17683014950E-01  0.51100000000E-03 0.  1.
</event>
<event>
 8    1  0.1060404E+005  0.1043930E+01  0.7957747E-01            NaN
         13   -1    0    0    0    0  0.00000000000E+00  0.00000000000E+00  0.74505805969E-08  0.10566000000E+00  0.10566000000E+00 0.  1.
     999900   -1    0    0    0    0 -0.00000000000E+00 -0.00000000000E+00 -0.74505805969E-08  0.93827000000E+00  0.93827000000E+00 0.  1.
     999902    2    1    2    0    0 -0.10856978698E-01 -0.20098886838E-01 -0.77387339022E-02  0.10198109776E+01  0.10195257244E+01 0.  0.
     999903    2    3    3    0    0 -0.93099380251E-01  0.48680438071E-01 -0.75090485386E-01  0.13074930001E+00  0.20482158188E-01 0.  0.
         14    1    1    2    0    0  0.10856978698E-01  0.20098886838E-01  0.77387339022E-02  0.24119022389E-01  0.00000000000E+00 0.  1.
     999901    1    3    3    0    0  0.82242401553E-01 -0.68779324909E-01  0.67351751484E-01  0.88906167760E+00  0.88000000000E+00 0. -1.
        -11    1    4    4    0    0 -0.25152729770E-01  0.53777684583E-02 -0.25012698111E-01  0.35881421325E-01  0.51100000000E-03 0.  1.
         11    1    4    4    0    0 -0.67946650481E-01  0.43302669613E-01 -0.50077787275E-01  0.94867878687E-01  0.51100000000E-03 0. -1.
</event>
<event>
 8    1  0.1060404E+005  0.1043930E+01  0.7957747E-01            NaN
         13   -1    0    0    0    0  0.00000000000E+00  0.00000000000E+00  0.74505805969E-08  0.10566000000E+00  0.10566000000E+00 0.  1.
     999900   -1    0    0    0    0 -0.00000000000E+00 -0.00000000000E+00 -0.74505805969E-08  0.93827000000E+00  0.93827000000E+00 0. -1.
     999902    2    1    2    0    0  0.60027865251E-02 -0.18059776499E-01  0.14408927967E-01  0.10200593867E+01  0.10197800480E+01 0.  0.
     999903    2    3    3    0    0  0.34637163758E-01  0.95479559321E-01  0.78453350134E-01  0.12999602024E+00  0.20687140196E-01 0.  0.
         14    1    1    2    0    0 -0.60027865251E-02  0.18059776499E-01 -0.14408927967E-01  0.23870613281E-01  0.00000000000E+00 0. -1.
     999901    1    3    3    0    0 -0.28634377233E-01 -0.11353933582E+00 -0.64044422168E-01  0.89006336648E+00  0.88000000000E+00 0.  1.
        -11    1    4    4    0    0 -0.20008032120E-02  0.15262400243E-01  0.10091277801E-01  0.18413013966E-01  0.51100000000E-03 0. -1.
         11    1    4    4    0    0  0.36637966970E-01  0.80217159078E-01  0.68362072333E-01  0.11158300627E+00  0.51100000000E-03 0.  1.
</event>
<event>
 8    1  0.1060404E+005  0.1043930E+01  0.7957747E-01            NaN
         13   -1    0    0    0    0  0.00000000000E+00  0.00000000000E+00  0.74505805969E-08  0.10566000000E+00  0.10566000000E+00 0.  1.
     999900   -1    0    0    0    0 -0.00000000000E+00 -0.00000000000E+00 -0.74505805969E-08  0.93827000000E+00  0.93827000000E+00 0. -1.
     999902    2    1    2    0    0  0.69595503279E-02 -0.34617319476E-02  0.22740286947E-01  0.10198979468E+01  0.10196147716E+01 0.  0.
     999903    2    3    3    0    0  0.64257216323E-01 -0.80178645114E-01 -0.75879047712E-01  0.12922725547E+00  0.19607363214E-01 0.  0.
         14    1    1    2    0    0 -0.69595503279E-02  0.34617319476E-02 -0.22740286947E-01  0.24032053164E-01  0.00000000000E+00 0. -1.
     999901    1    3    3    0    0 -0.57297665995E-01  0.76716913166E-01  0.98619334659E-01  0.89067069137E+00  0.88000000000E+00 0.  1.
        -11    1    4    4    0    0  0.29607991346E-01 -0.30004046151E-01 -0.41827384582E-01  0.59385748787E-01  0.51100000000E-03 0. -1.
         11    1    4    4    0    0  0.34649224977E-01 -0.50174598962E-01 -0.34051663130E-01  0.69841506681E-01  0.51100000000E-03 0.  1.
</event>
<event>
 8    1  0.1060404E+005  0.1043930E+01  0.7957747E-01            NaN
         13   -1    0    0    0    0  0.00000000000E+00  0.00000000000E+00  0.74505805969E-08  0.10566000000E+00  0.10566000000E+00 0.  1.
     999900   -1    0    0    0    0 -0.00000000000E+00 -0.00000000000E+00 -0.74505805969E-08  0.93827000000E+00  0.93827000000E+00 0.  1.
     999902    2    1    2    0    0  0.19363783319E-01 -0.12640695594E-01 -0.60160489638E-02  0.10200357301E+01  0.10197558308E+01 0.  0.
     999903    2    3    3    0    0  0.24852617269E-01 -0.11728741444E+00  0.51059899297E-01  0.13198239445E+00  0.20934396521E-01 0.  0.
         14    1    1    2    0    0 -0.19363783319E-01  0.12640695594E-01  0.60160489638E-02  0.23894269913E-01  0.00000000000E+00 0. -1.
     999901    1    3    3    0    0 -0.54888339502E-02  0.10464671885E+00 -0.57075948261E-01  0.88805333564E+00  0.88000000000E+00 0. -1.
        -11    1    4    4    0    0  0.19244286130E-01 -0.81042745398E-01  0.45406194743E-01  0.94869662023E-01  0.51100000000E-03 0.  1.
         11    1    4    4    0    0  0.56083311397E-02 -0.36244669042E-01  0.56537045547E-02  0.37112732429E-01  0.51100000000E-03 0. -1.
</event>
<event>
 8    1  0.1060404E+005  0.1043930E+01  0.7957747E-01            NaN
         13   -1    0    0    0    0  0.00000000000E+00  0.00000000000E+00  0.74505805969E-08  0.10566000000E+00  0.10566000000E+00 0. -1.
     999900   -1    0    0    0    0 -0.00000000000E+00 -0.00000000000E+00 -0.74505805969E-08  0.93827000000E+00  0.93827000000E+00 0. -1.
     999902    2    1    2    0    0 -0.11541549140E-01 -0.20496778828E-01  0.66634868958E-02  0.10194815367E+01  0.10191883420E+01 0.  0.
     999903    2    3    3    0    0 -0.92959709568E-02  0.88134034364E-01  0.91220014131E-01  0.12877647752E+00  0.20205620389E-01 0.  0.
         14    1    1    2    0    0  0.11541549140E-01  0.20496778828E-01 -0.66634868958E-02  0.24448463274E-01  0.00000000000E+00 0.  1.
     999901    1    3    3    0    0 -0.22455781830E-02 -0.10863081319E+00 -0.84556527235E-01  0.89070505921E+00  0.88000000000E+00 0. -1.
        -11    1    4    4    0    0  0.40331805814E-02  0.50084984949E-01  0.45142606666E-01  0.67549154847E-01  0.51100000000E-03 0.  1.
         11    1    4    4    0    0 -0.13329151538E-01  0.38049049415E-01  0.46077407465E-01  0.61227322674E-01  0.51100000000E-03 0. -1.
</event>
<event>
 8    1  0.1716087E+005  0.1043930E+01  0.7957747E-01            NaN
         13   -1    0    0    0    0  0.00000000000E+00  0.00000000000E+00  0.74505805969E-08  0.10566000000E+00  0.10566000000E+00 0.  1.
     999900   -1    0    0    0    0 -0.00000000000E+00 -0.00000000000E+00 -0.74505805969E-08  0.93827000000E+00  0.93827000000E+00 0.  1.
     999902    2    1    2    0    0  0.19500374941E-01  0.40893100748E-02 -0.13506870928E-01  0.10198588006E+01  0.10195746910E+01 0.  0.
     999903    2    3    3    0    0 -0.99277772452E-02 -0.59781064061E-02 -0.12962717907E+00  0.13168579097E+00  0.20090880356E-01 0.  0.
         14    1    1    2    0    0 -0.19500374941E-01 -0.40893100748E-02  0.13506870928E-01  0.24071199430E-01  0.00000000000E+00 0.  1.
     999901    1    3    3    0    0  0.29428152186E-01  0.10067416481E-01  0.11612030814E+00  0.88817300960E+00  0.88000000000E+00 0. -1.
        -11    1    4    4    0    0 -0.79408941226E-02 -0.11367821358E-01 -0.51204730291E-01  0.53051585151E-01  0.51100000000E-03 0.  1.
         11    1    4    4    0    0 -0.19868831226E-02  0.53897149521E-02 -0.78422448777E-01  0.78634205821E-01  0.51100000000E-03 0. -1.
</event>
<event>
 8    1  0.1060404E+005  0.1043930E+01  0.7957747E-01            NaN
         13   -1    0    0    0    0  0.00000000000E+00  0.00000000000E+00  0.74505805969E-08  0.10566000000E+00  0.10566000000E+00 0. -1.
     999900   -1    0    0    0    0 -0.00000000000E+00 -0.00000000000E+00 -0.74505805969E-08  0.93827000000E+00  0.93827000000E+00 0.  1.
     999902    2    1    2    0    0 -0.15636470440E-01 -0.99456910710E-02  0.14323463525E-01  0.10205082668E+01  0.10202394547E+01 0.  0.
     999903    2    3    3    0    0  0.62120957725E-01  0.11043284141E+00 -0.94021494411E-02  0.12860013620E+00  0.19878852264E-01 0.  0.
         14    1    1    2    0    0  0.15636470440E-01  0.99456910710E-02 -0.14323463525E-01  0.23421733199E-01  0.00000000000E+00 0. -1.
     999901    1    3    3    0    0 -0.77757428165E-01 -0.12037853248E+00  0.23725612966E-01  0.89190813060E+00  0.88000000000E+00 0. -1.
        -11    1    4    4    0    0  0.13521382551E-01  0.34147151071E-01  0.47882619284E-02  0.37041116150E-01  0.51100000000E-03 0.  1.
         11    1    4    4    0    0  0.48599575174E-01  0.76285690336E-01 -0.14190411370E-01  0.91559020053E-01  0.51100000000E-03 0. -1.
</event>
<event>
 8    1  0.1060404E+005  0.1043930E+01  0.7957747E-01            NaN
         13   -1    0    0    0    0  0.00000000000E+00  0.00000000000E+00  0.74505805969E-08  0.10566000000E+00  0.10566000000E+00 0. -1.
     999900   -1    0    0    0    0 -0.00000000000E+00 -0.00000000000E+00 -0.74505805969E-08  0.93827000000E+00  0.93827000000E+00 0. -1.
     999902    2    1    2    0    0  0.89802903588E-02 -0.16968357221E-01 -0.61608902728E-02  0.10237674771E+01  0.10235689131E+01 0.  0.
     999903    2    3    3    0    0  0.11326803526E+00 -0.38038336824E-01 -0.61067779372E-01  0.13566013883E+00  0.19945844418E-01 0.  0.
         14    1    1    2    0    0 -0.89802903588E-02  0.16968357221E-01  0.61608902728E-02  0.20162522924E-01  0.00000000000E+00 0. -1.
     999901    1    3    3    0    0 -0.10428774490E+00  0.21069979603E-01  0.54906889099E-01  0.88810733825E+00  0.88000000000E+00 0.  1.
        -11    1    4    4    0    0  0.52005366260E-01 -0.22694103082E-01 -0.38589692841E-01  0.68622197204E-01  0.51100000000E-03 0. -1.
         11    1    4    4    0    0  0.61262669001E-01 -0.15344233742E-01 -0.22478086531E-01  0.67037941625E-01  0.51100000000E-03 0.  1.
</event>
<event>
 8    1  0.1060404E+005  0.1043930E+01  0.7957747E-01            NaN
         13   -1    0    0    0    0  0.00000000000E+00  0.00000000000E+00  0.74505805969E-08  0.10566000000E+00  0.10566000000E+00 0.  1.
     999900   -1    0    0    0    0 -0.00000000000E+00 -0.00000000000E+00 -0.74505805969E-08  0.93827000000E+00  0.93827000000E+00 0. -1.
     999902    2    1    2    0    0 -0.30687881896E-02 -0.64178897003E-02  0.22769201737E-01  0.10200753712E+01  0.10197964108E+01 0.  0.
     999903    2    3    3    0    0  0.65238426674E-01 -0.94572459846E-01  0.62252390938E-01  0.13215869373E+00  0.19762532071E-01 0.  0.
         14    1    1    2    0    0  0.30687881896E-02  0.64178897003E-02 -0.22769201737E-01  0.23854628836E-01  0.00000000000E+00 0. -1.
     999901    1    3    3    0    0 -0.68307214864E-01  0.88154570146E-01 -0.39483189201E-01  0.88791667744E+00  0.88000000000E+00 0. -1.
        -11    1    4    4    0    0  0.51958873949E-01 -0.85622062870E-01  0.49723258737E-01  0.11181916568E+00  0.51100000000E-03 0. -1.
         11    1    4    4    0    0  0.13279552725E-01 -0.89503969764E-02  0.12529132201E-01  0.20339528051E-01  0.51100000000E-03 0.  1.
</event>
<event>
 8    1  0.1060404E+005  0.1043930E+01  0.7957747E-01            NaN
         13   -1    0    0    0    0  0.00000000000E+00  0.00000000000E+00  0.74505805969E-08  0.10566000000E+00  0.10566000000E+00 0. -1.
     999900   -1    0    0    0    0 -0.00000000000E+00 -0.00000000000E+00 -0.74505805969E-08  0.93827000000E+00  0.93827000000E+00 0.  1.
     999902    2    1    2    0    0  0.42989541673E-02 -0.97220654142E-02 -0.11302437948E-01  0.10284140512E+01  0.10282969980E+01 0.  0.
     999903    2    3    3    0    0  0.58319363528E-01  0.11654288044E+00 -0.38300318558E-01  0.13735292721E+00  0.20384333866E-01 0.  0.
         14    1    1    2    0    0 -0.42989541673E-02  0.97220654142E-02  0.11302437948E-01  0.15515948776E-01  0.00000000000E+00 0. -1.
     999901    1    3    3    0    0 -0.54020409360E-01 -0.12626494585E+00  0.26997880609E-01  0.89106112402E+00  0.88000000000E+00 0. -1.
        -11    1    4    4    0    0  0.16677127082E-01  0.17680386161E-01 -0.10844084764E-01  0.26619126918E-01  0.51100000000E-03 0. -1.
         11    1    4    4    0    0  0.41642236445E-01  0.98862494278E-01 -0.27456233794E-01  0.11073380029E+00  0.51100000000E-03 0.  1.
</event>
<event>
 8    1  0.1060404E+005  0.1043930E+01  0.7957747E-01            NaN
         13   -1    0    0    0    0  0.00000000000E+00  0.00000000000E+00  0.74505805969E-08  0.10566000000E+00  0.10566000000E+00 0.  1.
     999900   -1    0    0    0    0 -0.00000000000E+00 -0.00000000000E+00 -0.74505805969E-08  0.93827000000E+00  0.93827000000E+00 0.  1.
     999902    2    1    2    0    0  0.65347044751E-02 -0.19082284637E-01 -0.93009843119E-02  0.10217186457E+01  0.10214771886E+01 0.  0.
     999903    2    3    3    0    0  0.85216805486E-01 -0.98878424409E-01  0.22221015153E-01  0.13405207916E+00  0.20912667517E-01 0.  0.
         14    1    1    2    0    0 -0.65347044751E-02  0.19082284637E-01  0.93009843119E-02  0.22211354275E-01  0.00000000000E+00 0.  1.
     999901    1    3    3    0    0 -0.78682101010E-01  0.79796139772E-01 -0.31521999465E-01  0.88766656656E+00  0.88000000000E+00 0. -1.
        -11    1    4    4    0    0  0.22169334426E-01 -0.37184707287E-01  0.91973665224E-03  0.43304605776E-01  0.51100000000E-03 0.  1.
         11    1    4    4    0    0  0.63047471059E-01 -0.61693717122E-01  0.21301278500E-01  0.90747473387E-01  0.51100000000E-03 0. -1.
</event>
<event>
 8    1  0.1060404E+005  0.1043930E+01  0.7957747E-01            NaN
         13   -1    0    0    0    0  0.00000000000E+00  0.00000000000E+00  0.74505805969E-08  0.10566000000E+00  0.10566000000E+00 0. -1.
     999900   -1    0    0    0    0 -0.00000000000E+00 -0.00000000000E+00 -0.74505805969E-08  0.93827000000E+00  0.93827000000E+00 0.  1.
     999902    2    1    2    0    0  0.13227464441E-01 -0.66530750267E-02 -0.18070806825E-01  0.10205679949E+01  0.10203005679E+01 0.  0.
     999903    2    3    3    0    0 -0.53739036953E-01 -0.88876354853E-02 -0.11898361852E+00  0.13227024013E+00  0.19272799259E-01 0.  0.
         14    1    1    2    0    0 -0.13227464441E-01  0.66530750267E-02  0.18070806825E-01  0.23362005097E-01  0.00000000000E+00 0. -1.
     999901    1    3    3    0    0  0.66966501394E-01  0.22345604587E-02  0.10091281169E+00  0.88829775477E+00  0.88000000000E+00 0. -1.
        -11    1    4    4    0    0 -0.50333279072E-01 -0.27225235386E-02 -0.99387078178E-01  0.11144013436E+00  0.51100000000E-03 0. -1.
         11    1    4    4    0    0 -0.34057578803E-02 -0.61651119468E-02 -0.19596540340E-01  0.20830105769E-01  0.51100000000E-03 0.  1.
</event>
<event>
 8    1  0.1060404E+005  0.1043930E+01  0.7957747E-01            NaN
         13   -1    0    0    0    0  0.00000000000E+00  0.00000000000E+00  0.74505805969E-08  0.10566000000E+00  0.10566000000E+00 0. -1.
     999900   -1    0    0    0    0 -0.00000000000E+00 -0.00000000000E+00 -0.74505805969E-08  0.93827000000E+00  0.93827000000E+00 0. -1.
     999902    2    1    2    0    0  0.24388830175E-01  0.74471295974E-02 -0.37253064311E-02  0.10181588401E+01  0.10178326340E+01 0.  0.
     999903    2    3    3    0    0  0.11205319620E+00  0.79542987784E-02  0.64338512755E-01  0.13118759939E+00  0.21249761520E-01 0.  0.
         14    1    1    2    0    0 -0.24388830175E-01 -0.74471295974E-02  0.37253064311E-02  0.25771159938E-01  0.00000000000E+00 0. -1.
     999901    1    3    3    0    0 -0.87664366021E-01 -0.50716918104E-03 -0.68063819186E-01  0.88697124067E+00  0.88000000000E+00 0.  1.
        -11    1    4    4    0    0  0.45129997362E-01  0.18902290362E-02  0.14223507861E-01  0.47358831537E-01  0.51100000000E-03 0.  1.
         11    1    4    4    0    0  0.66923198833E-01  0.60640697422E-02  0.50115004893E-01  0.83828767857E-01  0.51100000000E-03 0. -1.
</event>
<event>
 8    1  0.1060404E+005  0.1043930E+01  0.7957747E-01            NaN
         13   -1    0    0    0    0  0.00000000000E+00  0.00000000000E+00  0.74505805969E-08  0.10566000000E+00  0.10566000000E+00 0.  1.
     999900   -1    0    0    0    0 -0.00000000000E+00 -0.00000000000E+00 -0.74505805969E-08  0.93827000000E+00  0.93827000000E+00 0.  1.
     999902    2    1    2    0    0 -0.16691734497E-01  0.12762094025E-01 -0.10035897588E-01  0.10206447196E+01  0.10203790665E+01 0.  0.
     999903    2    3    3    0    0  0.95200161741E-01 -0.81756308564E-01 -0.19259614743E-01  0.12849080805E+00  0.19793691137E-01 0.  0.
         14    1    1    2    0    0  0.16691734497E-01 -0.12762094025E-01  0.10035897588E-01  0.23285280432E-01  0.00000000000E+00 0.  1.
     999901    1    3    3    0    0 -0.11189189624E+00  0.94518402588E-01  0.92237171555E-02  0.89215391151E+00  0.88000000000E+00 0.  1.
        -11    1    4    4    0    0  0.37490870350E-01 -0.23432253569E-01 -0.18400547911E-04  0.44214220863E-01  0.51100000000E-03 0.  1.
         11    1    4    4    0    0  0.57709291391E-01 -0.58324054995E-01 -0.19241214195E-01  0.84276587191E-01  0.51100000000E-03 0. -1.
</event>
<event>
 8    1  0.1060404E+005  0.1043930E+01  0.7957747E-01            NaN
         13   -1    0    0    0    0  0.00000000000E+00  0.00000000000E+00  0.74505805969E-08  0.10566000000E+00  0.10566000000E+00 0.  1.
     999900   -1    0    0    0    0 -0.00000000000E+00 -0.00000000000E+00 -0.74505805969E-08  0.93827000000E+00  0.93827000000E+00 0.  1.
     999902    2    1    2    0    0  0.12715381737E-01 -0.27255518187E-02  0.17587721456E-01  0.10220567855E+01  0.10218227025E+01 0.  0.
     999903    2    3    3    0    0  0.11696739158E+00 -0.43496993480E-01  0.46038615432E-01  0.13450946545E+00  0.19997076034E-01 0.  0.
         14    1    1    2    0    0 -0.12715381737E-01  0.27255518187E-02 -0.17587721456E-01  0.21873214475E-01  0.00000000000E+00 0. -1.
     999901    1    3    3    0    0 -0.10425200984E+00  0.40771441661E-01 -0.28450893975E-01  0.88754732008E+00  0.88000000000E+00 0.  1.
        -11    1    4    4    0    0  0.28751273283E-01 -0.30481127878E-02  0.15263519506E-01  0.32698055840E-01  0.51100000000E-03 0. -1.
         11    1    4    4    0    0  0.88216118293E-01 -0.40448880692E-01  0.30775095925E-01  0.10181140961E+00  0.51100000000E-03 0.  1.
</event>
<event>
 8    1  0.1060404E+005  0.1043930E+01  0.7957747E-01            NaN
         13   -1    0    0    0    0  0.00000000000E+00  0.00000000000E+00  0.74505805969E-08  0.10566000000E+00  0.10566000000E+00 0.  1.
     999900   -1    0    0    0    0 -0.00000000000E+00 -0.00000000000E+00 -0.74505805969E-08  0.93827000000E+00  0.93827000000E+00 0.  1.
     999902    2    1    2    0    0 -0.10212279027E-01  0.27384871154E-02 -0.20605061532E-01  0.10207705847E+01  0.10205078286E+01 0.  0.
     999903    2    3    3    0    0 -0.88795054124E-01 -0.92592745266E-01 -0.24393987939E-01  0.13213249621E+00  0.20148245470E-01 0.  0.
         14    1    1    2    0    0  0.10212279027E-01 -0.27384871154E-02  0.20605061532E-01  0.23159415263E-01  0.00000000000E+00 0.  1.
     999901    1    3    3    0    0  0.78582775097E-01  0.95331232381E-01  0.37889264073E-02  0.88863808852E+00  0.88000000000E+00 0. -1.
        -11    1    4    4    0    0 -0.77842567741E-01 -0.84323806643E-01 -0.15579880347E-01  0.11581434934E+00  0.51100000000E-03 0.  1.
         11    1    4    4    0    0 -0.10952486384E-01 -0.82689386222E-02 -0.88141075926E-02  0.16318146879E-01  0.51100000000E-03 0. -1.
</event>
<event>
 8    1  0.1060404E+005  0.1043930E+01  0.7957747E-01            NaN
         13   -1    0    0    0    0  0.00000000000E+00  0.00000000000E+00  0.74505805969E-08  0.10566000000E+00  0.10566000000E+00 0.  1.
     999900   -1    0    0    0    0 -0.00000000000E+00 -0.00000000000E+00 -0.74505805969E-08  0.93827000000E+00  0.93827000000E+00 0.  1.
     999902    2    1    2    0    0  0.23862503762E-01  0.11005045698E-02 -0.29628888471E-02  0.10198590859E+01  0.10195749831E+01 0.  0.
     999903    2    3    3    0    0  0.76944244927E-02  0.53592906727E-01 -0.11737100096E+00  0.13075500019E+00  0.19736118893E-01 0.  0.
         14    1    1    2    0    0 -0.23862503762E-01 -0.11005045698E-02  0.29628888471E-02  0.24070914117E-01  0.00000000000E+00 0. -1.
     999901    1    3    3    0    0  0.16168079270E-01 -0.52492402157E-01  0.11440811212E+00  0.88910408569E+00  0.88000000000E+00 0. -1.
        -11    1    4    4    0    0  0.68958163856E-02  0.30960850919E-01 -0.88783696817E-01  0.94281135519E-01  0.51100000000E-03 0.  1.
         11    1    4    4    0    0  0.79860810701E-03  0.22632055808E-01 -0.28587304146E-01  0.36473864675E-01  0.51100000000E-03 0. -1.
</event>
<event>
 8    1  0.1060404E+005  0.1043930E+01  0.7957747E-01            NaN
         13   -1    0    0    0    0  0.00000000000E+00  0.00000000000E+00  0.74505805969E-08  0.10566000000E+00  0.10566000000E+00 0.  1.
     999900   -1    0    0    0    0 -0.00000000000E+00 -0.00000000000E+00 -0.74505805969E-08  0.93827000000E+00  0.93827000000E+00 0. -1.
     999902    2    1    2    0    0 -0.13363782515E-01  0.16093239107E-01 -0.14867495961E-01  0.10182663007E+01  0.10179428440E+01 0.  0.
     999903    2    3    3    0    0  0.11397778674E+00 -0.51024907697E-01  0.60341086436E-02  0.12632594504E+00  0.18093005480E-01 0.  0.
         14    1    1    2    0    0  0.13363782515E-01 -0.16093239107E-01  0.14867495961E-01  0.25663699348E-01  0.00000000000E+00 0.  1.
     999901    1    3    3    0    0 -0.12734156926E+00  0.67118146804E-01 -0.20901604605E-01  0.89194035561E+00  0.88000000000E+00 0.  1.
        -11    1    4    4    0    0  0.55610995673E-01 -0.33827129185E-01  0.69996061602E-02  0.65468413117E-01  0.51100000000E-03 0. -1.
         11    1    4    4    0    0  0.58366791070E-01 -0.17197778512E-01 -0.96549751659E-03  0.60857531925E-01  0.51100000000E-03 0.  1.
</event>
<event>
 8    1  0.1060404E+005  0.1043930E+01  0.7957747E-01            NaN
         13   -1    0    0    0    0  0.00000000000E+00  0.00000000000E+00  0.74505805969E-08  0.10566000000E+00  0.10566000000E+00 0. -1.
     999900   -1    0    0    0    0 -0.00000000000E+00 -0.00000000000E+00 -0.74505805969E-08  0.93827000000E+00  0.93827000000E+00 0. -1.
     999902    2    1    2    0    0 -0.72225094530E-02  0.55821177446E-02 -0.26944149784E-01  0.10154815925E+01  0.10150830276E+01 0.  0.
     999903    2    3    3    0    0 -0.61253469141E-01  0.87726504880E-01 -0.69206015108E-01  0.12899802796E+00  0.20077140020E-01 0.  0.
         14    1    1    2    0    0  0.72225094530E-02 -0.55821177446E-02  0.26944149784E-01  0.28448407493E-01  0.00000000000E+00 0. -1.
     999901    1    3    3    0    0  0.54030959688E-01 -0.82144387135E-01  0.42261865324E-01  0.88648356454E+00  0.88000000000E+00 0. -1.
        -11    1    4    4    0    0 -0.48608893898E-01  0.77468111963E-01 -0.64910669487E-01  0.11215074263E+00  0.51100000000E-03 0. -1.
         11    1    4    4    0    0 -0.12644575243E-01  0.10258392917E-01 -0.42953456215E-02  0.16847285340E-01  0.51100000000E-03 0.  1.
</event>
<event>
 8    1  0.1060404E+005  0.1043930E+01  0.7957747E-01            NaN
         13   -1    0    0    0    0  0.00000000000E+00  0.00000000000E+00  0.74505805969E-08  0.10566000000E+00  0.10566000000E+00 0. -1.
     999900   -1    0    0    0    0 -0.00000000000E+00 -0.00000000000E+00 -0.74505805969E-08  0.93827000000E+00  0.93827000000E+00 0. -1.
     999902    2    1    2    0    0  0.31904920281E-02  0.70080725692E-02 -0.22857331139E-01  0.10198105077E+01  0.10195252433E+01 0.  0.
     999903    2    3    3    0    0  0.10014439861E+00  0.66437193337E-01  0.44969483070E-01  0.12990469411E+00  0.20252750741E-01 0.  0.
         14    1    1    2    0    0 -0.31904920281E-02 -0.70080725692E-02  0.22857331139E-01  0.24119492269E-01  0.00000000000E+00 0. -1.
     999901    1    3    3    0    0 -0.96953906578E-01 -0.59429120768E-01 -0.67826814210E-01  0.88990581362E+00  0.88000000000E+00 0. -1.
        -11    1    4    4    0    0  0.32203975904E-01  0.32032034968E-01  0.21170036228E-01  0.50115655070E-01  0.51100000000E-03 0. -1.
         11    1    4    4    0    0  0.67940422702E-01  0.34405158370E-01  0.23799446843E-01  0.79789039037E-01  0.51100000000E-03 0.  1.
</event>
<event>
 8    1  0.1060404E+005  0.1043930E+01  0.7957747E-01            NaN
         13   -1    0    0    0    0  0.00000000000E+00  0.00000000000E+00  0.74505805969E-08  0.10566000000E+00  0.10566000000E+00 0.  1.
     999900   -1    0    0    0    0 -0.00000000000E+00 -0.00000000000E+00 -0.74505805969E-08  0.93827000000E+00  0.93827000000E+00 0. -1.
     999902    2    1    2    0    0  0.32161751510E-02  0.23561962184E-01 -0.24641117031E-02  0.10200222253E+01  0.10197420058E+01 0.  0.
     999903    2    3    3    0    0  0.36330210531E-01 -0.62836950209E-01 -0.10508584463E+00  0.12924024778E+00  0.19789906418E-01 0.  0.
         14    1    1    2    0    0 -0.32161751510E-02 -0.23561962184E-01  0.24641117031E-02  0.23907774699E-01  0.00000000000E+00 0.  1.
     999901    1    3    3    0    0 -0.33114035380E-01  0.86398912394E-01  0.10262173293E+00  0.89078197752E+00  0.88000000000E+00 0.  1.
        -11    1    4    4    0    0  0.11948924393E-01 -0.37836397787E-01 -0.47530835376E-01  0.61917777933E-01  0.51100000000E-03 0.  1.
         11    1    4    4    0    0  0.24381286137E-01 -0.25000552422E-01 -0.57555009256E-01  0.67322469849E-01  0.51100000000E-03 0. -1.
</event>
<event>
 8    1  0.1060404E+005  0.1043930E+01  0.7957747E-01            NaN
         13   -1    0    0    0    0  0.00000000000E+00  0.00000000000E+00  0.74505805969E-08  0.10566000000E+00  0.10566000000E+00 0.  1.
     999900   -1    0    0    0    0 -0.00000000000E+00 -0.00000000000E+00 -0.74505805969E-08  0.93827000000E+00  0.93827000000E+00 0.  1.
     999902    2    1    2    0    0  0.30443915982E-02  0.40679982090E-02  0.23400086402E-01  0.10199846252E+01  0.10197035131E+01 0.  0.
     999903    2    3    3    0    0  0.30229014003E-01  0.52416178356E-01  0.11696694794E+00  0.13328777297E+00  0.20569746510E-01 0.  0.
         14    1    1    2    0    0 -0.30443915982E-02 -0.40679982090E-02 -0.23400086402E-01  0.23945374778E-01  0.00000000000E+00 0. -1.
     999901    1    3    3    0    0 -0.27184622404E-01 -0.48348180147E-01 -0.93566861537E-01  0.88669685225E+00  0.88000000000E+00 0.  1.
        -11    1    4    4    0    0  0.16504448485E-01  0.10335899075E-01  0.31467008470E-01  0.37008936387E-01  0.51100000000E-03 0.  1.
         11    1    4    4    0    0  0.13724565517E-01  0.42080279281E-01  0.85499939470E-01  0.96278836581E-01  0.51100000000E-03 0. -1.
</event>
<event>
 8    1  0.1060404E+005  0.1043930E+01  0.7957747E-01            NaN
         13   -1    0    0    0    0  0.00000000000E+00  0.00000000000E+00  0.74505805969E-08  0.10566000000E+00  0.10566000000E+00 0. -1.
     999900   -1    0    0    0    0 -0.00000000000E+00 -0.00000000000E+00 -0.74505805969E-08  0.93827000000E+00  0.93827000000E+00 0. -1.
     999902    2    1    2    0    0 -0.20585170104E-01 -0.11261903785E-01  0.27644497941E-02  0.10203032802E+01  0.10200296867E+01 0.  0.
     999903    2    3    3    0    0 -0.79018281772E-01 -0.89877409137E-01 -0.54702156462E-01  0.13300556408E+00  0.19398882132E-01 0.  0.
         14    1    1    2    0    0  0.20585170104E-01  0.11261903785E-01 -0.27644497941E-02  0.23626719784E-01  0.00000000000E+00 0. -1.
     999901    1    3    3    0    0  0.58433111667E-01  0.78615505352E-01  0.57466606256E-01  0.88729771613E+00  0.88000000000E+00 0.  1.
        -11    1    4    4    0    0 -0.47057505092E-01 -0.45814374697E-01 -0.20878006229E-01  0.68916746727E-01  0.51100000000E-03 0. -1.
         11    1    4    4    0    0 -0.31960776680E-01 -0.44063034440E-01 -0.33824150233E-01  0.64088817356E-01  0.51100000000E-03 0.  1.
</event>
<event>
 8    1  0.1060404E+005  0.1043930E+01  0.7957747E-01            NaN
         13   -1    0    0    0    0  0.00000000000E+00  0.00000000000E+00  0.74505805969E-08  0.10566000000E+00  0.10566000000E+00 0. -1.
     999900   -1    0    0    0    0 -0.00000000000E+00 -0.00000000000E+00 -0.74505805969E-08  0.93827000000E+00  0.93827000000E+00 0. -1.
     999902    2    1    2    0    0  0.95684859658E-02 -0.23113063945E-01  0.52991868326E-02  0.10183594891E+01  0.10180384069E+01 0.  0.
     999903    2    3    3    0    0 -0.59950922658E-01 -0.60107355873E-01  0.96610663383E-01  0.13013693161E+00  0.19874439175E-01 0.  0.
         14    1    1    2    0    0 -0.95684859658E-02  0.23113063945E-01 -0.52991868326E-02  0.25570510939E-01  0.00000000000E+00 0. -1.
     999901    1    3    3    0    0  0.69519408624E-01  0.36994291929E-01 -0.91311476551E-01  0.88822255745E+00  0.88000000000E+00 0. -1.
        -11    1    4    4    0    0 -0.30008602655E-01 -0.42904287648E-01  0.52926062441E-01  0.74449468355E-01  0.51100000000E-03 0. -1.
         11    1    4    4    0    0 -0.29942320003E-01 -0.17203068225E-01  0.43684600942E-01  0.55687463257E-01  0.51100000000E-03 0.  1.
</event>
<event>
 8    1  0.1060404E+005  0.1043930E+01  0.7957747E-01            NaN
         13   -1    0    0    0    0  0.00000000000E+00  0.00000000000E+00  0.74505805969E-08  0.10566000000E+00  0.10566000000E+00 0.  1.
     999900   -1    0    0    0    0 -0.00000000000E+00 -0.00000000000E+00 -0.74505805969E-08  0.93827000000E+00  0.93827000000E+00 0.  1.
     999902    2    1    2    0    0  0.24541666965E-02 -0.23267236529E-01  0.75085912736E-03  0.10205216464E+01  0.10202531449E+01 0.  0.
     999903    2    3    3    0    0 -0.86956670764E-01 -0.97555978392E-01  0.11907908813E-01  0.13280683025E+00  0.20426070532E-01 0.  0.
         14    1    1    2    0    0 -0.24541666965E-02  0.23267236529E-01 -0.75085912736E-03  0.23408353622E-01  0.00000000000E+00 0.  1.
     999901    1    3    3    0    0  0.89410837460E-01  0.74288741863E-01 -0.11157049685E-01  0.88771481613E+00  0.88000000000E+00 0.  1.
        -11    1    4    4    0    0 -0.21466618329E-01 -0.31560467386E-01  0.11366427485E-01  0.39828828741E-01  0.51100000000E-03 0. -1.
         11    1    4    4    0    0 -0.65490052435E-01 -0.65995511006E-01  0.54148132793E-03  0.92978001505E-01  0.51100000000E-03 0.  1.
</event>
<event>
 8    1  0.1060404E+005  0.1043930E+01  0.7957747E-01            NaN
         13   -1    0    0    0    0  0.00000000000E+00  0.00000000000E+00  0.74505805969E-08  0.10566000000E+00  0.10566000000E+00 0. -1.
     999900   -1    0    0    0    0 -0.00000000000E+00 -0.00000000000E+00 -0.74505805969E-08  0.93827000000E+00  0.93827000000E+00 0. -1.
     999902    2    1    2    0    0 -0.15958594448E-01 -0.94423234935E-02 -0.14543992064E-01  0.10203638821E+01  0.10200917066E+01 0.  0.
     999903    2    3    3    0    0  0.94132234203E-01 -0.22098422928E-01  0.81795453916E-01  0.12819716207E+00  0.19869531171E-01 0.  0.
         14    1    1    2    0    0  0.15958594448E-01  0.94423234935E-02  0.14543992064E-01  0.23566117942E-01  0.00000000000E+00 0. -1.
     999901    1    3    3    0    0 -0.11009082865E+00  0.12656099434E-01 -0.96339445980E-01  0.89216671999E+00  0.88000000000E+00 0. -1.
        -11    1    4    4    0    0  0.71002557583E-01 -0.11148955994E-01  0.50877969462E-01  0.88059589487E-01  0.51100000000E-03 0.  1.
         11    1    4    4    0    0  0.23129676620E-01 -0.10949466934E-01  0.30917484454E-01  0.40137572580E-01  0.51100000000E-03 0. -1.
</event>
<event>
 8    1  0.1060404E+005  0.1043930E+01  0.7957747E-01            NaN
         13   -1    0    0    0    0  0.00000000000E+00  0.00000000000E+00  0.74505805969E-08  0.10566000000E+00  0.10566000000E+00 0. -1.
     999900   -1    0    0    0    0 -0.00000000000E+00 -0.00000000000E+00 -0.74505805969E-08  0.93827000000E+00  0.93827000000E+00 0.  1.
     999902    2    1    2    0    0 -0.87983482974E-02  0.21151870902E-01 -0.11900154673E-01  0.10181147670E+01  0.10177874299E+01 0.  0.
     999903    2    3    3    0    0  0.85091971758E-01 -0.78227478830E-03  0.91879576795E-01  0.12678613419E+00  0.19789178310E-01 0.  0.
         14    1    1    2    0    0  0.87983482974E-02 -0.21151870902E-01  0.11900154673E-01  0.25815233035E-01  0.00000000000E+00 0. -1.
     999901    1    3    3    0    0 -0.93890320055E-01  0.21934145691E-01 -0.10377973147E+00  0.89132863278E+00  0.88000000000E+00 0.  1.
        -11    1    4    4    0    0  0.52275451179E-01  0.86979825471E-02  0.51556860933E-01  0.73937464973E-01  0.51100000000E-03 0. -1.
         11    1    4    4    0    0  0.32816520579E-01 -0.94802573354E-02  0.40322715863E-01  0.52848669213E-01  0.51100000000E-03 0.  1.
</event>
<event>
 8    1  0.1060404E+005  0.1043930E+01  0.7957747E-01            NaN
         13   -1    0    0    0    0  0.00000000000E+00  0.00000000000E+00  0.74505805969E-08  0.10566000000E+00  0.10566000000E+00 0. -1.
     999900   -1    0    0    0    0 -0.00000000000E+00 -0.00000000000E+00 -0.74505805969E-08  0.93827000000E+00  0.93827000000E+00 0.  1.
     999902    2    1    2    0    0 -0.14151945816E-01 -0.97627317075E-02 -0.16956338282E-01  0.10197824140E+01  0.10194964767E+01 0.  0.
     999903    2    3    3    0    0 -0.12127263095E+00  0.21286591825E-01  0.38738772647E-01  0.13099624904E+00  0.22341771349E-01 0.  0.
         14    1    1    2    0    0  0.14151945816E-01  0.97627317075E-02  0.16956338282E-01  0.24147585981E-01  0.00000000000E+00 0. -1.
     999901    1    3    3    0    0  0.10712068514E+00 -0.31049323532E-01 -0.55695110929E-01  0.88878616498E+00  0.88000000000E+00 0.  1.
        -11    1    4    4    0    0 -0.71705032457E-01  0.21447825617E-01  0.16382858740E-01  0.76617753065E-01  0.51100000000E-03 0.  1.
         11    1    4    4    0    0 -0.49567598495E-01 -0.16123379229E-03  0.22355913906E-01  0.54378495975E-01  0.51100000000E-03 0. -1.
</event>
<event>
 8    1  0.1060404E+005  0.1043930E+01  0.7957747E-01            NaN
         13   -1    0    0    0    0  0.00000000000E+00  0.00000000000E+00  0.74505805969E-08  0.10566000000E+00  0.10566000000E+00 0. -1.
     999900   -1    0    0    0    0 -0.00000000000E+00 -0.00000000000E+00 -0.74505805969E-08  0.93827000000E+00  0.93827000000E+00 0.  1.
     999902    2    1    2    0    0 -0.22973802877E-02 -0.23949267367E-01  0.93593821903E-02  0.10181144350E+01  0.10177870894E+01 0.  0.
     999903    2    3    3    0    0  0.10163591117E+00  0.20521610079E-01 -0.71043798298E-01  0.12724718365E+00  0.19840099596E-01 0.  0.
         14    1    1    2    0    0  0.22973802877E-02  0.23949267367E-01 -0.93593821903E-02  0.25815565044E-01  0.00000000000E+00 0.  1.
     999901    1    3    3    0    0 -0.10393329145E+00 -0.44470877445E-01  0.80403180488E-01  0.89086725130E+00  0.88000000000E+00 0. -1.
        -11    1    4    4    0    0  0.67025228979E-01  0.10801987969E-01 -0.35182169455E-01  0.76466400676E-01  0.51100000000E-03 0.  1.
         11    1    4    4    0    0  0.34610682187E-01  0.97196221100E-02 -0.35861628843E-01  0.50780782976E-01  0.51100000000E-03 0. -1.
</event>
<event>
 8    1  0.1060404E+005  0.1043930E+01  0.7957747E-01            NaN
         13   -1    0    0    0    0  0.00000000000E+00  0.00000000000E+00  0.74505805969E-08  0.10566000000E+00  0.10566000000E+00 0. -1.
     999900   -1    0    0    0    0 -0.00000000000E+00 -0.00000000000E+00 -0.74505805969E-08  0.93827000000E+00  0.93827000000E+00 0. -1.
     999902    2    1    2    0    0 -0.24149525536E-01  0.20546480311E-01 -0.18610840552E-01  0.10071642439E+01  0.10064929674E+01 0.  0.
     999903    2    3    3    0    0  0.11002440960E+00  0.26893463286E-01  0.16444167897E-01  0.11628165752E+00  0.20551986343E-01 0.  0.
         14    1    1    2    0    0  0.24149525536E-01 -0.20546480311E-01  0.18610840552E-01  0.36765756116E-01  0.00000000000E+00 0. -1.
     999901    1    3    3    0    0 -0.13417393514E+00 -0.63469829748E-02 -0.35055008449E-01  0.89088258636E+00  0.88000000000E+00 0. -1.
        -11    1    4    4    0    0  0.45620732034E-01  0.69493431195E-02  0.16038775975E-01  0.48857425401E-01  0.51100000000E-03 0.  1.
         11    1    4    4    0    0  0.64403677569E-01  0.19944120166E-01  0.40539192217E-03  0.67424232121E-01  0.51100000000E-03 0. -1.
</event>
<event>
 8    1  0.1060404E+005  0.1043930E+01  0.7957747E-01            NaN
         13   -1    0    0    0    0  0.00000000000E+00  0.00000000000E+00  0.74505805969E-08  0.10566000000E+00  0.10566000000E+00 0.  1.
     999900   -1    0    0    0    0 -0.00000000000E+00 -0.00000000000E+00 -0.74505805969E-08  0.93827000000E+00  0.93827000000E+00 0.  1.
     999902    2    1    2    0    0 -0.14103972134E-01 -0.17788449436E-01 -0.71605900230E-02  0.10201261135E+01  0.10198483527E+01 0.  0.
     999903    2    3    3    0    0 -0.54673742135E-01  0.48890067502E-01  0.10494682921E+00  0.12958694855E+00  0.19987083149E-01 0.  0.
         14    1    1    2    0    0  0.14103972134E-01  0.17788449436E-01  0.71605900230E-02  0.23803886506E-01  0.00000000000E+00 0.  1.
     999901    1    3    3    0    0  0.40569770001E-01 -0.66678516938E-01 -0.11210741923E+00  0.89053916495E+00  0.88000000000E+00 0.  1.
        -11    1    4    4    0    0  0.13678849040E-02  0.32240477364E-02  0.70683887666E-02  0.79049878983E-02  0.51100000000E-03 0.  1.
         11    1    4    4    0    0 -0.56041627039E-01  0.45666019766E-01  0.97878440444E-01  0.12168196065E+00  0.51100000000E-03 0. -1.
</event>
<event>
 8    1  0.1060404E+005  0.1043930E+01  0.7957747E-01            NaN
         13   -1    0    0    0    0  0.00000000000E+00  0.00000000000E+00  0.74505805969E-08  0.10566000000E+00  0.10566000000E+00 0.  1.
     999900   -1    0    0    0    0 -0.00000000000E+00 -0.00000000000E+00 -0.74505805969E-08  0.93827000000E+00  0.93827000000E+00 0. -1.
     999902    2    1    2    0    0 -0.64031519348E-02 -0.13792041623E-01 -0.27410093474E-01  0.10125846018E+01  0.10120993240E+01 0.  0.
     999903    2    3    3    0    0 -0.30970339075E-02 -0.18440665103E-01  0.11759896386E+00  0.12069886534E+00  0.19724351544E-01 0.  0.
         14    1    1    2    0    0  0.64031519348E-02  0.13792041623E-01  0.27410093474E-01  0.31345398244E-01  0.00000000000E+00 0.  1.
     999901    1    3    3    0    0 -0.33061180273E-02  0.46486234803E-02 -0.14500905734E+00  0.89188573642E+00  0.88000000000E+00 0. -1.
        -11    1    4    4    0    0 -0.74446935383E-02 -0.13786738631E-01  0.41999050400E-01  0.44829443220E-01  0.51100000000E-03 0. -1.
         11    1    4    4    0    0  0.43476596308E-02 -0.46539264720E-02  0.75599913463E-01  0.75869422118E-01  0.51100000000E-03 0.  1.
</event>
<event>
 8    1  0.1060404E+005  0.1043930E+01  0.7957747E-01            NaN
         13   -1    0    0    0    0  0.00000000000E+00  0.00000000000E+00  0.74505805969E-08  0.10566000000E+00  0.10566000000E+00 0.  1.
     999900   -1    0    0    0    0 -0.00000000000E+00 -0.00000000000E+00 -0.74505805969E-08  0.93827000000E+00  0.93827000000E+00 0.  1.
     999902    2    1    2    0    0  0.67799709781E-03 -0.11782693936E-01 -0.20478254957E-01  0.10202942118E+01  0.10200204058E+01 0.  0.
     999903    2    3    3    0    0 -0.86069862849E-01  0.64854523460E-01  0.67146423052E-01  0.12839929734E+00  0.19068479862E-01 0.  0.
         14    1    1    2    0    0 -0.67799709781E-03  0.11782693936E-01  0.20478254957E-01  0.23635788172E-01  0.00000000000E+00 0.  1.
     999901    1    3    3    0    0  0.86747859947E-01 -0.76637217395E-01 -0.87624678009E-01  0.89189491449E+00  0.88000000000E+00 0.  1.
        -11    1    4    4    0    0 -0.23966246031E-01  0.29184904615E-01  0.21258323483E-01  0.43339555195E-01  0.51100000000E-03 0.  1.
         11    1    4    4    0    0 -0.62103616818E-01  0.35669618845E-01  0.45888099570E-01  0.85059742144E-01  0.51100000000E-03 0. -1.
</event>
<event>
 7    1  0.1060404E+005  0.1043930E+01  0.7957747E-01            NaN
         13   -1    0    0    0    0  0.00000000000E+00  0.00000000000E+00  0.74505805969E-08  0.10566000000E+00  0.10566000000E+00 0. -1.
     999900   -1    0    0    0    0 -0.00000000000E+00 -0.00000000000E+00 -0.74505805969E-08  0.93827000000E+00  0.93827000000E+00 0.  1.
     999902    2    1    2    0    0  0.24076447528E-02  0.21770073539E-01  0.86412700206E-02  0.10203842063E+01  0.10201125056E+01 0.  0.
         14    1    1    2    0    0 -0.24076447528E-02 -0.21770073539E-01 -0.86412700206E-02  0.23545793737E-01  0.00000000000E+00 0. -1.
     999901    1    3    3    0    0  0.11810745102E+00  0.65735260035E-01  0.81143780180E-02  0.89035742122E+00  0.88000000000E+00 0. -1.
        -11    1    3    3    0    0 -0.31270516894E-01  0.60462645674E-02 -0.12725728547E-02  0.31879195484E-01  0.51100000000E-03 0.  1.
         11    1    3    3    0    0 -0.84429289369E-01 -0.50011451063E-01  0.17994648574E-02  0.98147589556E-01  0.51100000000E-03 0. -1.
</event>
<event>
 8    1  0.1060404E+005  0.1043930E+01  0.7957747E-01            NaN
         13   -1    0    0    0    0  0.00000000000E+00  0.00000000000E+00  0.74505805969E-08  0.10566000000E+00  0.10566000000E+00 0.  1.
     999900   -1    0    0    0    0 -0.00000000000E+00 -0.00000000000E+00 -0.74505805969E-08  0.93827000000E+00  0.93827000000E+00 0.  1.
     999902    2    1    2    0    0  0.20480054533E-01 -0.25845765126E-02 -0.86721128273E-02  0.10215398635E+01  0.10212944603E+01 0.  0.
     999903    2    3    3    0    0 -0.93095647917E-02  0.12502406342E+00 -0.32745212954E-01  0.13151126819E+00  0.22478439858E-01 0.  0.
         14    1    1    2    0    0 -0.20480054533E-01  0.25845765126E-02  0.86721128273E-02  0.22390136452E-01  0.00000000000E+00 0.  1.
     999901    1    3    3    0    0  0.29789619325E-01 -0.12760863993E+00  0.24073100127E-01  0.89002859536E+00  0.88000000000E+00 0. -1.
        -11    1    4    4    0    0  0.44455749410E-02  0.79940502594E-01 -0.17360353510E-01  0.81926125788E-01  0.51100000000E-03 0. -1.
         11    1    4    4    0    0 -0.13755139733E-01  0.45083560827E-01 -0.15384859444E-01  0.49585142402E-01  0.51100000000E-03 0.  1.
</event>
<event>
 8    1  0.1060404E+005  0.1043930E+01  0.7957747E-01            NaN
         13   -1    0    0    0    0  0.00000000000E+00  0.00000000000E+00  0.74505805969E-08  0.10566000000E+00  0.10566000000E+00 0.  1.
     999900   -1    0    0    0    0 -0.00000000000E+00 -0.00000000000E+00 -0.74505805969E-08  0.93827000000E+00  0.93827000000E+00 0. -1.
     999902    2    1    2    0    0 -0.26130356728E-01  0.54899505638E-02 -0.27638979137E-02  0.10170864862E+01  0.10167321900E+01 0.  0.
     999903    2    3    3    0    0  0.15772478746E-01 -0.12223637223E+00 -0.21444432200E-01  0.12668274437E+00  0.19953753209E-01 0.  0.
         14    1    1    2    0    0  0.26130356728E-01 -0.54899505638E-02  0.27638979137E-02  0.26843513772E-01  0.00000000000E+00 0. -1.
     999901    1    3    3    0    0 -0.41902835474E-01  0.12772632279E+00  0.18680534286E-01  0.89040374186E+00  0.88000000000E+00 0. -1.
        -11    1    4    4    0    0  0.20295973114E-01 -0.89047009980E-01 -0.14626850130E-01  0.92495958705E-01  0.51100000000E-03 0. -1.
         11    1    4    4    0    0 -0.45234943685E-02 -0.33189362249E-01 -0.68175820697E-02  0.34186785665E-01  0.51100000000E-03 0.  1.
</event>
<event>
 7    1  0.1060404E+005  0.1043930E+01  0.7957747E-01            NaN
         13   -1    0    0    0    0  0.00000000000E+00  0.00000000000E+00  0.74505805969E-08  0.10566000000E+00  0.10566000000E+00 0. -1.
     999900   -1    0    0    0    0 -0.00000000000E+00 -0.00000000000E+00 -0.74505805969E-08  0.93827000000E+00  0.93827000000E+00 0. -1.
     999903    2    1    2    0    0  0.72008868115E-01  0.49759484285E-01 -0.73891048736E-01  0.11669437514E+00  0.22280187218E-01 0.  0.
         14    1    1    2    0    0 -0.38557435306E-01  0.13153856352E-01 -0.39516406273E-02  0.40930614678E-01  0.00000000000E+00 0.  1.
     999901    1    1    2    0    0 -0.33451432809E-01 -0.62913340637E-01  0.77842689363E-01  0.88630501018E+00  0.88000000000E+00 0.  1.
        -11    1    3    3    0    0  0.71805928689E-01  0.43332378154E-01 -0.68564311186E-01  0.10832872325E+00  0.51100000000E-03 0.  1.
         11    1    3    3    0    0  0.20293942608E-03  0.64271061313E-02 -0.53267375495E-02  0.83656518907E-02  0.51100000000E-03 0. -1.
</event>
<event>
 8    1  0.1060404E+005  0.1043930E+01  0.7957747E-01            NaN
         13   -1    0    0    0    0  0.00000000000E+00  0.00000000000E+00  0.74505805969E-08  0.10566000000E+00  0.10566000000E+00 0. -1.
     999900   -1    0    0    0    0 -0.00000000000E+00 -0.00000000000E+00 -0.74505805969E-08  0.93827000000E+00  0.93827000000E+00 0.  1.
     999902    2    1    2    0    0  0.19973673300E-01  0.11492558828E-01 -0.50963420016E-02  0.10203291688E+01  0.10200561815E+01 0.  0.
     999903    2    3    3    0    0 -0.98841957205E-01  0.81262251140E-01 -0.31934357204E-02  0.12960553874E+00  0.20349734062E-01 0.  0.
         14    1    1    2    0    0 -0.19973673300E-01 -0.11492558828E-01  0.50963420016E-02  0.23600831242E-01  0.00000000000E+00 0. -1.
     999901    1    3    3    0    0  0.11881563051E+00 -0.69769692312E-01 -0.19029062813E-02  0.89072363002E+00  0.88000000000E+00 0. -1.
        -11    1    4    4    0    0 -0.45185983489E-02  0.11041113998E-01  0.53956068379E-03  0.11953082284E-01  0.51100000000E-03 0.  1.
         11    1    4    4    0    0 -0.94323358856E-01  0.70221137142E-01 -0.37329964042E-02  0.11765245646E+00  0.51100000000E-03 0. -1.
</event>
<event>
 8    1  0.1060404E+005  0.1043930E+01  0.7957747E-01            NaN
         13   -1    0    0    0    0  0.00000000000E+00  0.00000000000E+00  0.74505805969E-08  0.10566000000E+00  0.10566000000E+00 0.  1.
     999900   -1    0    0    0    0 -0.00000000000E+00 -0.00000000000E+00 -0.74505805969E-08  0.93827000000E+00  0.93827000000E+00 0.  1.
     999902    2    1    2    0    0 -0.20885936471E-02  0.13167518147E-01 -0.19268208684E-01  0.10204990456E+01  0.10202300194E+01 0.  0.
     999903    2    3    3    0    0  0.32124347744E-01 -0.10429615868E+00 -0.68809730341E-01  0.13065490021E+00  0.20646101987E-01 0.  0.
         14    1    1    2    0    0  0.20885936471E-02 -0.13167518147E-01  0.19268208684E-01  0.23430954387E-01  0.00000000000E+00 0.  1.
     999901    1    3    3    0    0 -0.34212941391E-01  0.11746367683E+00  0.49541521657E-01  0.88984414540E+00  0.88000000000E+00 0. -1.
        -11    1    4    4    0    0  0.13687491649E-01 -0.69232839185E-01 -0.51774248781E-01  0.87529237442E-01  0.51100000000E-03 0.  1.
         11    1    4    4    0    0  0.18436856095E-01 -0.35063319494E-01 -0.17035481560E-01  0.43125662773E-01  0.51100000000E-03 0. -1.
</event>
<event>
 8    1  0.1060404E+005  0.1043930E+01  0.7957747E-01            NaN
         13   -1    0    0    0    0  0.00000000000E+00  0.00000000000E+00  0.74505805969E-08  0.10566000000E+00  0.10566000000E+00 0.  1.
     999900   -1    0    0    0    0 -0.00000000000E+00 -0.00000000000E+00 -0.74505805969E-08  0.93827000000E+00  0.93827000000E+00 0.  1.
     999902    2    1    2    0    0  0.18059089361E-01 -0.16808659323E-01  0.84685509332E-02  0.10178459418E+01  0.10175116624E+01 0.  0.
     999903    2    3    3    0    0  0.10659485478E+00 -0.22315947799E-01 -0.67567016650E-01  0.13012395857E+00  0.22505071957E-01 0.  0.
         14    1    1    2    0    0 -0.18059089361E-01  0.16808659323E-01 -0.84685509332E-02  0.26084058191E-01  0.00000000000E+00 0. -1.
     999901    1    3    3    0    0 -0.88535765419E-01  0.55072884767E-02  0.76035567583E-01  0.88772198324E+00  0.88000000000E+00 0. -1.
        -11    1    4    4    0    0  0.17360521141E-01 -0.36607647959E-02 -0.21811345560E-01  0.28120896311E-01  0.51100000000E-03 0.  1.
         11    1    4    4    0    0  0.89234333639E-01 -0.18655183004E-01 -0.45755671090E-01  0.10200306226E+00  0.51100000000E-03 0. -1.
</event>
<event>
 8    1  0.1060404E+005  0.1043930E+01  0.7957747E-01            NaN
         13   -1    0    0    0    0  0.00000000000E+00  0.00000000000E+00  0.74505805969E-08  0.10566000000E+00  0.10566000000E+00 0. -1.
     999900   -1    0    0    0    0 -0.00000000000E+00 -0.00000000000E+00 -0.74505805969E-08  0.93827000000E+00  0.93827000000E+00 0.  1.
     999902    2    1    2    0    0 -0.27650583165E-02 -0.35318438524E-02  0.23096164220E-01  0.10204023084E+01  0.10201310302E+01 0.  0.
     999903    2    3    3    0    0  0.12026934237E-01  0.10472668380E+00 -0.71166254340E-01  0.12864891461E+00  0.19328270146E-01 0.  0.
         14    1    1    2    0    0  0.27650583165E-02  0.35318438524E-02 -0.23096164220E-01  0.23527691560E-01  0.00000000000E+00 0.  1.
     999901    1    3    3    0    0 -0.14791992553E-01 -0.10825852765E+00  0.94262418560E-01  0.89175339383E+00  0.88000000000E+00 0. -1.
        -11    1    4    4    0    0  0.15211443183E-01  0.51709414078E-01 -0.39293887460E-01  0.66704739117E-01  0.51100000000E-03 0.  1.
         11    1    4    4    0    0 -0.31845089465E-02  0.53017269722E-01 -0.31872366880E-01  0.61944175493E-01  0.51100000000E-03 0. -1.
</event>
<event>
 8    1  0.1060404E+005  0.1043930E+01  0.7957747E-01            NaN
         13   -1    0    0    0    0  0.00000000000E+00  0.00000000000E+00  0.74505805969E-08  0.10566000000E+00  0.10566000000E+00 0. -1.
     999900   -1    0    0    0    0 -0.00000000000E+00 -0.00000000000E+00 -0.74505805969E-08  0.93827000000E+00  0.93827000000E+00 0.  1.
     999902    2    1    2    0    0 -0.10934448125E-01  0.15958668331E-02  0.20851628325E-01  0.10203312850E+01  0.10200583472E+01 0.  0.
     999903    2    3    3    0    0  0.12258932878E+00  0.14831682001E-01 -0.30269697690E-01  0.12869392833E+00  0.19943677410E-01 0.  0.
         14    1    1    2    0    0  0.10934448125E-01 -0.15958668331E-02 -0.20851628325E-01  0.23598715019E-01  0.00000000000E+00 0.  1.
     999901    1    3    3    0    0 -0.13352377691E+00 -0.13235815168E-01  0.51121326016E-01  0.89163735665E+00  0.88000000000E+00 0. -1.
        -11    1    4    4    0    0  0.76854225583E-01  0.18189740867E-01 -0.23002472647E-01  0.82260643880E-01  0.51100000000E-03 0.  1.
         11    1    4    4    0    0  0.45735103198E-01 -0.33580588659E-02 -0.72672250435E-02  0.46433284449E-01  0.51100000000E-03 0. -1.
</event>
<event>
 8    1  0.1060404E+005  0.1043930E+01  0.7957747E-01            NaN
         13   -1    0    0    0    0  0.00000000000E+00  0.00000000000E+00  0.74505805969E-08  0.10566000000E+00  0.10566000000E+00 0. -1.
     999900   -1    0    0    0    0 -0.00000000000E+00 -0.00000000000E+00 -0.74505805969E-08  0.93827000000E+00  0.93827000000E+00 0. -1.
     999902    2    1    2    0    0  0.61469112751E-02 -0.97629434822E-02 -0.18911461623E-01  0.10217772809E+01  0.10215371108E+01 0.  0.
     999903    2    3    3    0    0  0.74483382054E-01  0.87579742462E-01  0.59087018044E-01  0.13035749505E+00  0.16846819331E-01 0.  0.
         14    1    1    2    0    0 -0.61469112751E-02  0.97629434822E-02  0.18911461623E-01  0.22152719119E-01  0.00000000000E+00 0. -1.
     999901    1    3    3    0    0 -0.68336470779E-01 -0.97342685944E-01 -0.77998479667E-01  0.89141978583E+00  0.88000000000E+00 0. -1.
        -11    1    4    4    0    0  0.69406078905E-01  0.78563537595E-01  0.48374127660E-01  0.11545453900E+00  0.51100000000E-03 0.  1.
         11    1    4    4    0    0  0.50773031493E-02  0.90162048670E-02  0.10712890385E-01  0.14902956044E-01  0.51100000000E-03 0. -1.
</event>
<event>
 8    1  0.1060404E+005  0.1043930E+01  0.7957747E-01            NaN
         13   -1    0    0    0    0  0.00000000000E+00  0.00000000000E+00  0.74505805969E-08  0.10566000000E+00  0.10566000000E+00 0.  1.
     999900   -1    0    0    0    0 -0.00000000000E+00 -0.00000000000E+00 -0.74505805969E-08  0.93827000000E+00  0.93827000000E+00 0. -1.
     999902    2    1    2    0    0  0.13156402387E-01  0.18417568509E-01 -0.18296676071E-02  0.10212221723E+01  0.10209696763E+01 0.  0.
     999903    2    3    3    0    0 -0.40641185601E-02 -0.11423629756E+00 -0.57164227989E-01  0.12939511057E+00  0.20221200201E-01 0.  0.
         14    1    1    2    0    0 -0.13156402387E-01 -0.18417568509E-01  0.18296676071E-02  0.22707827662E-01  0.00000000000E+00 0.  1.
     999901    1    3    3    0    0  0.17220520947E-01  0.13265386607E+00  0.55334560382E-01  0.89182706177E+00  0.88000000000E+00 0.  1.
        -11    1    4    4    0    0 -0.10534613048E-01 -0.98142042742E-01 -0.49516562994E-01  0.11043092754E+00  0.51100000000E-03 0. -1.
         11    1    4    4    0    0  0.64704944877E-02 -0.16094254822E-01 -0.76476649949E-02  0.18964183032E-01  0.51100000000E-03 0.  1.
</event>
<event>
 8    1  0.1060404E+005  0.1043930E+01  0.7957747E-01            NaN
         13   -1    0    0    0    0  0.00000000000E+00  0.00000000000E+00  0.74505805969E-08  0.10566000000E+00  0.10566000000E+00 0. -1.
     999900   -1    0    0    0    0 -0.00000000000E+00 -0.00000000000E+00 -0.74505805969E-08  0.93827000000E+00  0.93827000000E+00 0.  1.
     999902    2    1    2    0    0  0.15734974038E-01  0.12784130951E-01  0.11026458145E-01  0.10208517377E+01  0.10205908407E+01 0.  0.
     999903    2    3    3    0    0  0.12803325908E+00  0.29593076711E-01  0.12986467826E-01  0.13355399334E+00  0.19993878367E-01 0.  0.
         14    1    1    2    0    0 -0.15734974038E-01 -0.12784130951E-01 -0.11026458145E-01  0.23078262313E-01  0.00000000000E+00 0.  1.
     999901    1    3    3    0    0 -0.11229828504E+00 -0.16808945760E-01 -0.19600096810E-02  0.88729774434E+00  0.88000000000E+00 0.  1.
        -11    1    4    4    0    0  0.10299644571E+00  0.17707908991E-01  0.46664903868E-02  0.10461297780E+00  0.51100000000E-03 0.  1.
         11    1    4    4    0    0  0.25036813364E-01  0.11885167719E-01  0.83199774393E-02  0.28941015544E-01  0.51100000000E-03 0. -1.
</event>
<event>
 8    1  0.1060404E+005  0.1043930E+01  0.7957747E-01            NaN
         13   -1    0    0    0    0  0.00000000000E+00  0.00000000000E+00  0.74505805969E-08  0.10566000000E+00  0.10566000000E+00 0. -1.
     999900   -1    0    0    0    0 -0.00000000000E+00 -0.00000000000E+00 -0.74505805969E-08  0.93827000000E+00  0.93827000000E+00 0.  1.
     999902    2    1    2    0    0  0.94845117537E-02  0.23941745315E-02 -0.21830099961E-01  0.10200084344E+01  0.10197278877E+01 0.  0.
     999903    2    3    3    0    0  0.38325056551E-01 -0.82803376955E-01 -0.93980498560E-01  0.13248599538E+00  0.19874497920E-01 0.  0.
         14    1    1    2    0    0 -0.94845117537E-02 -0.23941745315E-02  0.21830099961E-01  0.23921565567E-01  0.00000000000E+00 0. -1.
     999901    1    3    3    0    0 -0.28840544797E-01  0.85197551487E-01  0.72150398599E-01  0.88752243905E+00  0.88000000000E+00 0. -1.
        -11    1    4    4    0    0  0.25156878816E-01 -0.35164210205E-01 -0.52059679286E-01  0.67674674432E-01  0.51100000000E-03 0.  1.
         11    1    4    4    0    0  0.13168177735E-01 -0.47639166750E-01 -0.41920819274E-01  0.64811320949E-01  0.51100000000E-03 0. -1.
</event>
<event>
 8    1  0.1060404E+005  0.1043930E+01  0.7957747E-01            NaN
         13   -1    0    0    0    0  0.00000000000E+00  0.00000000000E+00  0.74505805969E-08  0.10566000000E+00  0.10566000000E+00 0.  1.
     999900   -1    0    0    0    0 -0.00000000000E+00 -0.00000000000E+00 -0.74505805969E-08  0.93827000000E+00  0.93827000000E+00 0.  1.
     999902    2    1    2    0    0 -0.23662467658E-01  0.63514783850E-02  0.79005718233E-02  0.10181875703E+01  0.10178621005E+01 0.  0.
     999903    2    3    3    0    0 -0.90027591116E-01  0.63167135462E-01  0.69595571344E-01  0.13171217779E+00  0.20236107909E-01 0.  0.
         14    1    1    2    0    0  0.23662467658E-01 -0.63514783850E-02 -0.79005718233E-02  0.25742429731E-01  0.00000000000E+00 0.  1.
     999901    1    3    3    0    0  0.66365123458E-01 -0.56815657077E-01 -0.61694999521E-01  0.88647539248E+00  0.88000000000E+00 0.  1.
        -11    1    4    4    0    0 -0.81704208499E-01  0.55719632041E-01  0.68858579229E-01  0.12050734474E+00  0.51100000000E-03 0.  1.
         11    1    4    4    0    0 -0.83233826174E-02  0.74475034207E-02  0.73699211484E-03  0.11204833054E-01  0.51100000000E-03 0. -1.
</event>
<event>
 8    1  0.1060404E+005  0.1043930E+01  0.7957747E-01            NaN
         13   -1    0    0    0    0  0.00000000000E+00  0.00000000000E+00  0.74505805969E-08  0.10566000000E+00  0.10566000000E+00 0.  1.
     999900   -1    0    0    0    0 -0.00000000000E+00 -0.00000000000E+00 -0.74505805969E-08  0.93827000000E+00  0.93827000000E+00 0.  1.
     999902    2    1    2    0    0  0.18530608242E-01  0.16897152735E-01 -0.15847279202E-02  0.10188021554E+01  0.10184922303E+01 0.  0.
     999903    2    3    3    0    0  0.86511161507E-01 -0.83980261984E-01 -0.42707662487E-01  0.12948291902E+00  0.20125019617E-01 0.  0.
         14    1    1    2    0    0 -0.18530608242E-01 -0.16897152735E-01  0.15847279202E-02  0.25127844614E-01  0.00000000000E+00 0.  1.
     999901    1    3    3    0    0 -0.67980553265E-01  0.10087741472E+00  0.41122934567E-01  0.88931923637E+00  0.88000000000E+00 0. -1.
        -11    1    4    4    0    0  0.63625722907E-01 -0.60660564458E-01 -0.21416476824E-01  0.90481286996E-01  0.51100000000E-03 0.  1.
         11    1    4    4    0    0  0.22885438600E-01 -0.23319697526E-01 -0.21291185663E-01  0.39001632024E-01  0.51100000000E-03 0. -1.
</event>
<event>
 7    1  0.1060404E+005  0.1043930E+01  0.7957747E-01            NaN
         13   -1    0    0    0    0  0.00000000000E+00  0.00000000000E+00  0.74505805969E-08  0.10566000000E+00  0.10566000000E+00 0. -1.
     999900   -1    0    0    0    0 -0.00000000000E+00 -0.00000000000E+00 -0.74505805969E-08  0.93827000000E+00  0.93827000000E+00 0.  1.
     999903    2    1    2    0    0 -0.53926615656E-01 -0.88642100793E-01 -0.15582423476E-01  0.10707471541E+00  0.21370092412E-01 0.  0.
         14    1    1    2    0    0 -0.46316217564E-01  0.11061296714E-01 -0.69932396139E-03  0.47623873723E-01  0.00000000000E+00 0.  1.
     999901    1    1    2    0    0  0.10024283322E+00  0.77580804079E-01  0.16281747437E-01  0.88923141087E+00  0.88000000000E+00 0. -1.
        -11    1    3    3    0    0 -0.36916655178E-01 -0.69923625360E-01 -0.19586564048E-01  0.81461938507E-01  0.51100000000E-03 0.  1.
         11    1    3    3    0    0 -0.17009960478E-01 -0.18718475432E-01  0.40041405720E-02  0.25612776903E-01  0.51100000000E-03 0. -1.
</event>
<event>
 8    1  0.1060404E+005  0.1043930E+01  0.7957747E-01            NaN
         13   -1    0    0    0    0  0.00000000000E+00  0.00000000000E+00  0.74505805969E-08  0.10566000000E+00  0.10566000000E+00 0. -1.
     999900   -1    0    0    0    0 -0.00000000000E+00 -0.00000000000E+00 -0.74505805969E-08  0.93827000000E+00  0.93827000000E+00 0. -1.
     999902    2    1    2    0    0  0.11339304921E-01 -0.15056391641E-01 -0.90316818861E-02  0.10230291377E+01  0.10228156093E+01 0.  0.
     999903    2    3    3    0    0 -0.11639131347E+00  0.45003192437E-01  0.34299337003E-01  0.13072882859E+00  0.18475847120E-01 0.  0.
         14    1    1    2    0    0 -0.11339304921E-01  0.15056391641E-01  0.90316818861E-02  0.20900862256E-01  0.00000000000E+00 0. -1.
     999901    1    3    3    0    0  0.12773061839E+00 -0.60059584078E-01 -0.43331018889E-01  0.89230030915E+00  0.88000000000E+00 0. -1.
        -11    1    4    4    0    0 -0.11440889676E-01  0.10427633640E-01  0.20823354969E-02  0.15627755502E-01  0.51100000000E-03 0.  1.
         11    1    4    4    0    0 -0.10495042379E+00  0.34575558797E-01  0.32217001506E-01  0.11510107309E+00  0.51100000000E-03 0. -1.
</event>
<event>
 8    1  0.1060404E+005  0.1043930E+01  0.7957747E-01            NaN
         13   -1    0    0    0    0  0.00000000000E+00  0.00000000000E+00  0.74505805969E-08  0.10566000000E+00  0.10566000000E+00 0.  1.
     999900   -1    0    0    0    0 -0.00000000000E+00 -0.00000000000E+00 -0.74505805969E-08  0.93827000000E+00  0.93827000000E+00 0. -1.
     999902    2    1    2    0    0  0.11013427675E-01  0.16397851375E-01  0.14252798429E-01  0.10195716876E+01  0.10192806772E+01 0.  0.
     999903    2    3    3    0    0 -0.66873619171E-01 -0.79654125007E-01 -0.69799372198E-01  0.12695915039E+00  0.20731930381E-01 0.  0.
         14    1    1    2    0    0 -0.11013427675E-01 -0.16397851375E-01 -0.14252798429E-01  0.24358312378E-01  0.00000000000E+00 0. -1.
     999901    1    3    3    0    0  0.77887046846E-01  0.96051976382E-01  0.84052170627E-01  0.89261253723E+00  0.88000000000E+00 0.  1.
        -11    1    4    4    0    0 -0.45577558729E-01 -0.53612331846E-01 -0.35139273812E-01  0.78655105815E-01  0.51100000000E-03 0.  1.
         11    1    4    4    0    0 -0.21296060442E-01 -0.26041793161E-01 -0.34660098386E-01  0.48304044577E-01  0.51100000000E-03 0. -1.
</event>
<event>
 8    1  0.1060404E+005  0.1043930E+01  0.7957747E-01            NaN
         13   -1    0    0    0    0  0.00000000000E+00  0.00000000000E+00  0.74505805969E-08  0.10566000000E+00  0.10566000000E+00 0. -1.
     999900   -1    0    0    0    0 -0.00000000000E+00 -0.00000000000E+00 -0.74505805969E-08  0.93827000000E+00  0.93827000000E+00 0.  1.
     999902    2    1    2    0    0  0.14631471733E-01 -0.26645961869E-02 -0.18506729291E-01  0.10201880736E+01  0.10199117739E+01 0.  0.
     999903    2    3    3    0    0  0.21536463572E-01  0.47142621760E-01  0.11593868820E+00  0.12855810098E+00  0.19978985342E-01 0.  0.
         14    1    1    2    0    0 -0.14631471733E-01  0.26645961869E-02  0.18506729291E-01  0.23741926354E-01  0.00000000000E+00 0. -1.
     999901    1    3    3    0    0 -0.69049918395E-02 -0.49807217947E-01 -0.13444541750E+00  0.89162997267E+00  0.88000000000E+00 0.  1.
        -11    1    4    4    0    0  0.49865943029E-02  0.26759993287E-01  0.41596366501E-01  0.49714003968E-01  0.51100000000E-03 0.  1.
         11    1    4    4    0    0  0.16549869270E-01  0.20382628473E-01  0.74342321703E-01  0.78844097012E-01  0.51100000000E-03 0. -1.
</event>
<event>
 8    1  0.1060404E+005  0.1043930E+01  0.7957747E-01            NaN
         13   -1    0    0    0    0  0.00000000000E+00  0.00000000000E+00  0.74505805969E-08  0.10566000000E+00  0.10566000000E+00 0.  1.
     999900   -1    0    0    0    0 -0.00000000000E+00 -0.00000000000E+00 -0.74505805969E-08  0.93827000000E+00  0.93827000000E+00 0.  1.
     999902    2    1    2    0    0  0.12342277640E-01 -0.70294450083E-02 -0.11732851995E-01  0.10255070597E+01  0.10253415649E+01 0.  0.
     999903    2    3    3    0    0  0.81337564842E-01  0.79530488969E-01 -0.72780670805E-01  0.13647398492E+00  0.19678017831E-01 0.  0.
         14    1    1    2    0    0 -0.12342277640E-01  0.70294450083E-02  0.11732851995E-01  0.18422940330E-01  0.00000000000E+00 0.  1.
     999901    1    3    3    0    0 -0.68995287203E-01 -0.86559933977E-01  0.61047818811E-01  0.88903307475E+00  0.88000000000E+00 0. -1.
        -11    1    4    4    0    0  0.64550735033E-01  0.52503863526E-01 -0.47329593436E-01  0.95727763028E-01  0.51100000000E-03 0. -1.
         11    1    4    4    0    0  0.16786829809E-01  0.27026625443E-01 -0.25451077370E-01  0.40746221888E-01  0.51100000000E-03 0.  1.
</event>
<event>
 8    1  0.1060404E+005  0.1043930E+01  0.7957747E-01            NaN
         13   -1    0    0    0    0  0.00000000000E+00  0.00000000000E+00  0.74505805969E-08  0.10566000000E+00  0.10566000000E+00 0. -1.
     999900   -1    0    0    0    0 -0.00000000000E+00 -0.00000000000E+00 -0.74505805969E-08  0.93827000000E+00  0.93827000000E+00 0.  1.
     999902    2    1    2    0    0  0.21816515385E-01  0.69259124775E-02 -0.61422764968E-02  0.10202307138E+01  0.10199554172E+01 0.  0.
     999903    2    3    3    0    0  0.41788415695E-01  0.10067197619E-01 -0.12344364097E+00  0.13221700071E+00  0.19884230644E-01 0.  0.
         14    1    1    2    0    0 -0.21816515385E-01 -0.69259124775E-02  0.61422764968E-02  0.23699286229E-01  0.00000000000E+00 0. -1.
     999901    1    3    3    0    0 -0.19971900309E-01 -0.31412851419E-02  0.11730136447E+00  0.88801371306E+00  0.88000000000E+00 0. -1.
        -11    1    4    4    0    0  0.96767757742E-02 -0.20200441029E-02 -0.52319164284E-01  0.53247315801E-01  0.51100000000E-03 0.  1.
         11    1    4    4    0    0  0.32111639921E-01  0.12087241722E-01 -0.71124476681E-01  0.78969684911E-01  0.51100000000E-03 0. -1.
</event>
<event>
 8    1  0.1060404E+005  0.1043930E+01  0.7957747E-01            NaN
         13   -1    0    0    0    0  0.00000000000E+00  0.00000000000E+00  0.74505805969E-08  0.10566000000E+00  0.10566000000E+00 0. -1.
     999900   -1    0    0    0    0 -0.00000000000E+00 -0.00000000000E+00 -0.74505805969E-08  0.93827000000E+00  0.93827000000E+00 0. -1.
     999902    2    1    2    0    0 -0.87269320000E-02  0.20514784228E-01  0.39497959076E-02  0.10212889620E+01  0.10210379657E+01 0.  0.
     999903    2    3    3    0    0 -0.11255009406E+00  0.35277812975E-01 -0.57914576568E-01  0.13290593842E+00  0.19945990284E-01 0.  0.
         14    1    1    2    0    0  0.87269320000E-02 -0.20514784228E-01 -0.39497959076E-02  0.22641038001E-01  0.00000000000E+00 0. -1.
     999901    1    3    3    0    0  0.10382316206E+00 -0.14763028747E-01  0.61864372476E-01  0.88838302358E+00  0.88000000000E+00 0. -1.
        -11    1    4    4    0    0 -0.51282054105E-01  0.63255674114E-02 -0.21412260600E-01  0.55933960179E-01  0.51100000000E-03 0. -1.
         11    1    4    4    0    0 -0.61268039952E-01  0.28952245564E-01 -0.36502315968E-01  0.76971978244E-01  0.51100000000E-03 0.  1.
</event>
<event>
 8    1  0.1060404E+005  0.1043930E+01  0.7957747E-01            NaN
         13   -1    0    0    0    0  0.00000000000E+00  0.00000000000E+00  0.74505805969E-08  0.10566000000E+00  0.10566000000E+00 0. -1.
     999900   -1    0    0    0    0 -0.00000000000E+00 -0.00000000000E+00 -0.74505805969E-08  0.93827000000E+00  0.93827000000E+00 0.  1.
     999902    2    1    2    0    0  0.17585580356E-01 -0.98607950579E-02  0.12587569264E-01  0.10201616426E+01  0.10198847200E+01 0.  0.
     999903    2    3    3    0    0  0.11698113490E+00  0.33805730964E-02 -0.57277201032E-01  0.13171586693E+00  0.19297089076E-01 0.  0.
         14    1    1    2    0    0 -0.17585580356E-01  0.98607950579E-02 -0.12587569264E-01  0.23768357444E-01  0.00000000000E+00 0. -1.
     999901    1    3    3    0    0 -0.99395554544E-01 -0.13241368154E-01  0.69864770296E-01  0.88844577562E+00  0.88000000000E+00 0. -1.
        -11    1    4    4    0    0  0.50288521354E-01  0.62155902657E-02 -0.15606917442E-01  0.53022692645E-01  0.51100000000E-03 0.  1.
         11    1    4    4    0    0  0.66692613547E-01 -0.28350171693E-02 -0.41670283590E-01  0.78693174288E-01  0.51100000000E-03 0. -1.
</event>
<event>
 8    1  0.1060404E+005  0.1043930E+01  0.7957747E-01            NaN
         13   -1    0    0    0    0  0.00000000000E+00  0.00000000000E+00  0.74505805969E-08  0.10566000000E+00  0.10566000000E+00 0.  1.
     999900   -1    0    0    0    0 -0.00000000000E+00 -0.00000000000E+00 -0.74505805969E-08  0.93827000000E+00  0.93827000000E+00 0. -1.
     999902    2    1    2    0    0 -0.22935430986E-02 -0.21517204426E-01 -0.81465979240E-02  0.10208082033E+01  0.10205463098E+01 0.  0.
     999903    2    3    3    0    0 -0.12716806880E+00  0.22131397683E-03 -0.27150811290E-01  0.13152345108E+00  0.19735372485E-01 0.  0.
         14    1    1    2    0    0  0.22935430986E-02  0.21517204426E-01  0.81465979240E-02  0.23121796729E-01  0.00000000000E+00 0.  1.
     999901    1    3    3    0    0  0.12487452571E+00 -0.21738518403E-01  0.19004213366E-01  0.88928475219E+00  0.88000000000E+00 0.  1.
        -11    1    4    4    0    0 -0.34128299343E-01 -0.63791405950E-02 -0.13655045353E-02  0.34749963660E-01  0.51100000000E-03 0. -1.
         11    1    4    4    0    0 -0.93039769462E-01  0.66004545718E-02 -0.25785306754E-01  0.96773487420E-01  0.51100000000E-03 0.  1.
</event>
<event>
 8    1  0.1060404E+005  0.1043930E+01  0.7957747E-01            NaN
         13   -1    0    0    0    0  0.00000000000E+00  0.00000000000E+00  0.74505805969E-08  0.10566000000E+00  0.10566000000E+00 0. -1.
     999900   -1    0    0    0    0 -0.00000000000E+00 -0.00000000000E+00 -0.74505805969E-08  0.93827000000E+00  0.93827000000E+00 0. -1.
     999902    2    1    2    0    0 -0.24347765747E-02  0.22087009570E-01  0.10958344830E-01  0.10191540146E+01  0.10188528138E+01 0.  0.
     999903    2    3    3    0    0  0.39717552809E-01  0.43154263416E-01 -0.11323725920E+00  0.12918480388E+00  0.20646119010E-01 0.  0.
         14    1    1    2    0    0  0.24347765747E-02 -0.22087009570E-01 -0.10958344830E-01  0.24775985351E-01  0.00000000000E+00 0.  1.
     999901    1    3    3    0    0 -0.42152329383E-01 -0.21067253846E-01  0.12419560403E+00  0.88996921077E+00  0.88000000000E+00 0.  1.
        -11    1    4    4    0    0  0.18381960538E-01  0.22985004095E-01 -0.35681964247E-01  0.46256573371E-01  0.51100000000E-03 0. -1.
         11    1    4    4    0    0  0.21335592271E-01  0.20169259321E-01 -0.77555294953E-01  0.82928230508E-01  0.51100000000E-03 0.  1.
</event>
<event>
 8    1  0.1060404E+005  0.1043930E+01  0.7957747E-01            NaN
         13   -1    0    0    0    0  0.00000000000E+00  0.00000000000E+00  0.74505805969E-08  0.10566000000E+00  0.10566000000E+00 0. -1.
     999900   -1    0    0    0    0 -0.00000000000E+00 -0.00000000000E+00 -0.74505805969E-08  0.93827000000E+00  0.93827000000E+00 0. -1.
     999902    2    1    2    0    0  0.19142720374E-01  0.11314187400E-01 -0.22571761357E-02  0.10215793977E+01  0.10213348698E+01 0.  0.
     999903    2    3    3    0    0  0.37880395679E-01 -0.50769076202E-01  0.11353524702E+00  0.13162809713E+00  0.20573773695E-01 0.  0.
         14    1    1    2    0    0 -0.19142720374E-01 -0.11314187400E-01  0.22571761357E-02  0.22350602317E-01  0.00000000000E+00 0.  1.
     999901    1    3    3    0    0 -0.18737675306E-01  0.62083263602E-01 -0.11579242315E+00  0.88995130055E+00  0.88000000000E+00 0. -1.
        -11    1    4    4    0    0  0.31572456469E-01 -0.36200276686E-01  0.66884211597E-01  0.82347063831E-01  0.51100000000E-03 0. -1.
         11    1    4    4    0    0  0.63079392101E-02 -0.14568799516E-01  0.46651035419E-01  0.49281033299E-01  0.51100000000E-03 0.  1.
</event>
<event>
 8    1  0.1060404E+005  0.1043930E+01  0.7957747E-01            NaN
         13   -1    0    0    0    0  0.00000000000E+00  0.00000000000E+00  0.74505805969E-08  0.10566000000E+00  0.10566000000E+00 0. -1.
     999900   -1    0    0    0    0 -0.00000000000E+00 -0.00000000000E+00 -0.74505805969E-08  0.93827000000E+00  0.93827000000E+00 0.  1.
     999902    2    1    2    0    0 -0.52380356015E-02  0.13546416406E-01  0.18236444486E-01  0.10206166922E+01  0.10203503918E+01 0.  0.
     999903    2    3    3    0    0 -0.11303035205E-01 -0.11886516755E+00  0.48056969758E-01  0.13019045968E+00  0.19580520603E-01 0.  0.
         14    1    1    2    0    0  0.52380356015E-02 -0.13546416406E-01 -0.18236444486E-01  0.23313307828E-01  0.00000000000E+00 0.  1.
     999901    1    3    3    0    0  0.60649996040E-02  0.13241158396E+00 -0.29820525272E-01  0.89042623249E+00  0.88000000000E+00 0.  1.
        -11    1    4    4    0    0 -0.13647758146E-01 -0.54271077005E-01  0.17072964453E-01  0.58509472207E-01  0.51100000000E-03 0.  1.
         11    1    4    4    0    0  0.23447229404E-02 -0.64594090546E-01  0.30984005305E-01  0.71680987471E-01  0.51100000000E-03 0. -1.
</event>
<event>
 8    1  0.1060404E+005  0.1043930E+01  0.7957747E-01            NaN
         13   -1    0    0    0    0  0.00000000000E+00  0.00000000000E+00  0.74505805969E-08  0.10566000000E+00  0.10566000000E+00 0. -1.
     999900   -1    0    0    0    0 -0.00000000000E+00 -0.00000000000E+00 -0.74505805969E-08  0.93827000000E+00  0.93827000000E+00 0.  1.
     999902    2    1    2    0    0  0.11563559166E-01 -0.12389658197E-01  0.15881716865E-01  0.10207039702E+01  0.10204396828E+01 0.  0.
     999903    2    3    3    0    0  0.11225510600E+00  0.56662540220E-01  0.34837128304E-01  0.13207226844E+00  0.20435417652E-01 0.  0.
         14    1    1    2    0    0 -0.11563559166E-01  0.12389658197E-01 -0.15881716865E-01  0.23226029824E-01  0.00000000000E+00 0.  1.
     999901    1    3    3    0    0 -0.10069154683E+00 -0.69052198417E-01 -0.18955411439E-01  0.88863170174E+00  0.88000000000E+00 0.  1.
        -11    1    4    4    0    0  0.74376112651E-01  0.27520423695E-01  0.26062319359E-01  0.83478652749E-01  0.51100000000E-03 0.  1.
         11    1    4    4    0    0  0.37878993349E-01  0.29142116525E-01  0.87748089443E-02  0.48593615689E-01  0.51100000000E-03 0. -1.
</event>
<event>
 8    1  0.1060404E+005  0.1043930E+01  0.7957747E-01            NaN
         13   -1    0    0    0    0  0.00000000000E+00  0.00000000000E+00  0.74505805969E-08  0.10566000000E+00  0.10566000000E+00 0.  1.
     999900   -1    0    0    0    0 -0.00000000000E+00 -0.00000000000E+00 -0.74505805969E-08  0.93827000000E+00  0.93827000000E+00 0.  1.
     999902    2    1    2    0    0  0.65674633081E-02  0.11944775058E-01 -0.19145456649E-01  0.10204277079E+01  0.10201570219E+01 0.  0.
     999903    2    3    3    0    0 -0.62930659969E-01 -0.78942453911E-01 -0.80579812847E-01  0.13089712511E+00  0.21184242492E-01 0.  0.
         14    1    1    2    0    0 -0.65674633081E-02 -0.11944775058E-01  0.19145456649E-01  0.23502292139E-01  0.00000000000E+00 0.  1.
     999901    1    3    3    0    0  0.69498123277E-01  0.90887228969E-01  0.61434356198E-01  0.88953058275E+00  0.88000000000E+00 0.  1.
        -11    1    4    4    0    0 -0.57586305358E-01 -0.65573798925E-01 -0.60530960413E-01  0.10620905780E+00  0.51100000000E-03 0. -1.
         11    1    4    4    0    0 -0.53443546106E-02 -0.13368654986E-01 -0.20048852434E-01  0.24688067306E-01  0.51100000000E-03 0.  1.
</event>
<event>
 8    1  0.1156298E+005  0.1043930E+01  0.7957747E-01            NaN
         13   -1    0    0    0    0  0.00000000000E+00  0.00000000000E+00  0.74505805969E-08  0.10566000000E+00  0.10566000000E+00 0.  1.
     999900   -1    0    0    0    0 -0.00000000000E+00 -0.00000000000E+00 -0.74505805969E-08  0.93827000000E+00  0.93827000000E+00 0. -1.
     999902    2    1    2    0    0  0.32851118096E-02  0.99167695844E-02 -0.30062422482E-01  0.10121041689E+01  0.10116036601E+01 0.  0.
     999903    2    3    3    0    0  0.47044408656E-01 -0.64093719407E-01 -0.94998931556E-01  0.12553258199E+00  0.20308886979E-01 0.  0.
         14    1    1    2    0    0 -0.32851118096E-02 -0.99167695844E-02  0.30062422482E-01  0.31825831083E-01  0.00000000000E+00 0.  1.
     999901    1    3    3    0    0 -0.43759296847E-01  0.74010488992E-01  0.64936509073E-01  0.88657158693E+00  0.88000000000E+00 0.  1.
        -11    1    4    4    0    0  0.28563558930E-01 -0.38469515643E-01 -0.41454735171E-01  0.63360371856E-01  0.51100000000E-03 0.  1.
         11    1    4    4    0    0  0.18480849726E-01 -0.25624203764E-01 -0.53544196385E-01  0.62172210131E-01  0.51100000000E-03 0. -1.
</event>
<event>
 8    1  0.1060404E+005  0.1043930E+01  0.7957747E-01            NaN
         13   -1    0    0    0    0  0.00000000000E+00  0.00000000000E+00  0.74505805969E-08  0.10566000000E+00  0.10566000000E+00 0. -1.
     999900   -1    0    0    0    0 -0.00000000000E+00 -0.00000000000E+00 -0.74505805969E-08  0.93827000000E+00  0.93827000000E+00 0.  1.
     999902    2    1    2    0    0  0.92152581414E-03  0.17262532598E-01 -0.24912710255E-01  0.10136069498E+01  0.10131532763E+01 0.  0.
     999903    2    3    3    0    0 -0.56061350720E-01  0.10960078144E+00  0.17462402156E-01  0.12593074161E+00  0.19960206846E-01 0.  0.
         14    1    1    2    0    0 -0.92152581414E-03 -0.17262532598E-01  0.24912710255E-01  0.30323050206E-01  0.00000000000E+00 0. -1.
     999901    1    3    3    0    0  0.56982876534E-01 -0.92338248843E-01 -0.42375112411E-01  0.88767620818E+00  0.88000000000E+00 0. -1.
        -11    1    4    4    0    0 -0.34064520678E-01  0.48799030824E-01  0.14215172089E-01  0.61188799767E-01  0.51100000000E-03 0.  1.
         11    1    4    4    0    0 -0.21996830042E-01  0.60801750617E-01  0.32472300664E-02  0.64741941847E-01  0.51100000000E-03 0. -1.
</event>
<event>
 8    1  0.1060404E+005  0.1043930E+01  0.7957747E-01            NaN
         13   -1    0    0    0    0  0.00000000000E+00  0.00000000000E+00  0.74505805969E-08  0.10566000000E+00  0.10566000000E+00 0.  1.
     999900   -1    0    0    0    0 -0.00000000000E+00 -0.00000000000E+00 -0.74505805969E-08  0.93827000000E+00  0.93827000000E+00 0. -1.
     999902    2    1    2    0    0 -0.19761919565E-01 -0.20527373738E-02  0.12449108062E-01  0.10204837319E+01  0.10202143498E+01 0.  0.
     999903    2    3    3    0    0 -0.18365788622E-01 -0.70669522132E-01  0.10870218865E+00  0.13257896908E+00  0.20725194237E-01 0.  0.
         14    1    1    2    0    0  0.19761919565E-01  0.20527373738E-02 -0.12449108062E-01  0.23446268086E-01  0.00000000000E+00 0.  1.
     999901    1    3    3    0    0 -0.13961309439E-02  0.68616784758E-01 -0.96253080587E-01  0.88790476283E+00  0.88000000000E+00 0. -1.
        -11    1    4    4    0    0 -0.14839218344E-01 -0.37953690956E-01  0.75694111922E-01  0.85968277631E-01  0.51100000000E-03 0. -1.
         11    1    4    4    0    0 -0.35265702778E-02 -0.32715831176E-01  0.33008076728E-01  0.46610691453E-01  0.51100000000E-03 0.  1.
</event>
<event>
 8    1  0.1060404E+005  0.1043930E+01  0.7957747E-01            NaN
         13   -1    0    0    0    0  0.00000000000E+00  0.00000000000E+00  0.74505805969E-08  0.10566000000E+00  0.10566000000E+00 0. -1.
     999900   -1    0    0    0    0 -0.00000000000E+00 -0.00000000000E+00 -0.74505805969E-08  0.93827000000E+00  0.93827000000E+00 0.  1.
     999902    2    1    2    0    0  0.19285403144E-01 -0.12504135681E-01 -0.51652569445E-02  0.10203724097E+01  0.10201004334E+01 0.  0.
     999903    2    3    3    0    0 -0.83619240510E-01  0.82283076259E-01  0.46621351491E-01  0.12781662202E+00  0.20021399228E-01 0.  0.
         14    1    1    2    0    0 -0.19285403144E-01  0.12504135681E-01  0.51652569445E-02  0.23557590345E-01  0.00000000000E+00 0. -1.
     999901    1    3    3    0    0  0.10290464365E+00 -0.94787211940E-01 -0.51786608435E-01  0.89255578764E+00  0.88000000000E+00 0.  1.
        -11    1    4    4    0    0 -0.34987086374E-01  0.25870052372E-01  0.25324910110E-01  0.50348465874E-01  0.51100000000E-03 0.  1.
         11    1    4    4    0    0 -0.48632154135E-01  0.56413023886E-01  0.21296441380E-01  0.77468156144E-01  0.51100000000E-03 0. -1.
</event>
<event>
 8    1  0.1060404E+005  0.1043930E+01  0.7957747E-01            NaN
         13   -1    0    0    0    0  0.00000000000E+00  0.00000000000E+00  0.74505805969E-08  0.10566000000E+00  0.10566000000E+00 0. -1.
     999900   -1    0    0    0    0 -0.00000000000E+00 -0.00000000000E+00 -0.74505805969E-08  0.93827000000E+00  0.93827000000E+00 0. -1.
     999902    2    1    2    0    0 -0.19913863442E-02 -0.23566170767E-01  0.32368710167E-02  0.10200593620E+01  0.10197800227E+01 0.  0.
     999903    2    3    3    0    0 -0.57485015681E-01 -0.62650130424E-01  0.99456882551E-01  0.13221625119E+00  0.18971023246E-01 0.  0.
         14    1    1    2    0    0  0.19913863442E-02  0.23566170767E-01 -0.32368710167E-02  0.23870637993E-01  0.00000000000E+00 0. -1.
     999901    1    3    3    0    0  0.55493629337E-01  0.39083959657E-01 -0.96220011534E-01  0.88784311081E+00  0.88000000000E+00 0. -1.
        -11    1    4    4    0    0 -0.35068277928E-01 -0.50288964908E-01  0.74172799499E-01  0.96232164139E-01  0.51100000000E-03 0. -1.
         11    1    4    4    0    0 -0.22416737753E-01 -0.12361165516E-01  0.25284083052E-01  0.35984087055E-01  0.51100000000E-03 0.  1.
</event>
<event>
 8    1  0.1060404E+005  0.1043930E+01  0.7957747E-01            NaN
         13   -1    0    0    0    0  0.00000000000E+00  0.00000000000E+00  0.74505805969E-08  0.10566000000E+00  0.10566000000E+00 0.  1.
     999900   -1    0    0    0    0 -0.00000000000E+00 -0.00000000000E+00 -0.74505805969E-08  0.93827000000E+00  0.93827000000E+00 0.  1.
     999902    2    1    2    0    0 -0.19499420508E-04  0.67982307859E-02 -0.23352776927E-01  0.10196078185E+01  0.10193176811E+01 0.  0.
     999903    2    3    3    0    0  0.59606633909E-02  0.10898119339E+00 -0.71743300904E-01  0.13235432429E+00  0.21404109754E-01 0.  0.
         14    1    1    2    0    0  0.19499420508E-04 -0.67982307859E-02  0.23352776927E-01  0.24322181486E-01  0.00000000000E+00 0.  1.
     999901    1    3    3    0    0 -0.59801628114E-02 -0.10218296260E+00  0.48390523977E-01  0.88725349422E+00  0.88000000000E+00 0.  1.
        -11    1    4    4    0    0 -0.18960193672E-02  0.82027992990E-01 -0.61196040864E-01  0.10235918650E+00  0.51100000000E-03 0.  1.
         11    1    4    4    0    0  0.78566827581E-02  0.26953200399E-01 -0.10547260040E-01  0.29995137790E-01  0.51100000000E-03 0. -1.
</event>
<event>
 7    1  0.1060404E+005  0.1043930E+01  0.7957747E-01            NaN
         13   -1    0    0    0    0  0.00000000000E+00  0.00000000000E+00  0.74505805969E-08  0.10566000000E+00  0.10566000000E+00 0.  1.
     999900   -1    0    0    0    0 -0.00000000000E+00 -0.00000000000E+00 -0.74505805969E-08  0.93827000000E+00  0.93827000000E+00 0. -1.
     999903    2    1    2    0    0 -0.99840731947E-02  0.67778205351E-01  0.76962493944E-01  0.10495831331E+00  0.19986375860E-01 0.  0.
         14    1    1    2    0    0 -0.49954811967E-01 -0.16530538203E-02 -0.15475146329E-01  0.52322996660E-01  0.00000000000E+00 0.  1.
     999901    1    1    2    0    0  0.59938885162E-01 -0.66125151531E-01 -0.61487347616E-01  0.88664869003E+00  0.88000000000E+00 0. -1.
        -11    1    3    3    0    0  0.23684051542E-02  0.40662996227E-01  0.36424167741E-01  0.54644942325E-01  0.51100000000E-03 0. -1.
         11    1    3    3    0    0 -0.12352478349E-01  0.27115209125E-01  0.40538326203E-01  0.50313370982E-01  0.51100000000E-03 0.  1.
</event>
<event>
 8    1  0.1060404E+005  0.1043930E+01  0.7957747E-01            NaN
         13   -1    0    0    0    0  0.00000000000E+00  0.00000000000E+00  0.74505805969E-08  0.10566000000E+00  0.10566000000E+00 0.  1.
     999900   -1    0    0    0    0 -0.00000000000E+00 -0.00000000000E+00 -0.74505805969E-08  0.93827000000E+00  0.93827000000E+00 0. -1.
     999902    2    1    2    0    0  0.21671617897E-01  0.87448015275E-02 -0.28847429226E-02  0.10203831888E+01  0.10201114643E+01 0.  0.
     999903    2    3    3    0    0 -0.45833369241E-01  0.91193400894E-01 -0.78693332947E-01  0.13071941121E+00  0.21862975899E-01 0.  0.
         14    1    1    2    0    0 -0.21671617897E-01 -0.87448015275E-02  0.28847429226E-02  0.23546811201E-01  0.00000000000E+00 0.  1.
     999901    1    3    3    0    0  0.67504987137E-01 -0.82448599366E-01  0.75808590025E-01  0.88966377759E+00  0.88000000000E+00 0.  1.
        -11    1    4    4    0    0 -0.20506990710E-01  0.64025286269E-01 -0.51073076336E-01  0.84430410382E-01  0.51100000000E-03 0. -1.
         11    1    4    4    0    0 -0.25326378531E-01  0.27168114625E-01 -0.27620256611E-01  0.46289000832E-01  0.51100000000E-03 0.  1.
</event>
<event>
 8    1  0.1060404E+005  0.1043930E+01  0.7957747E-01            NaN
         13   -1    0    0    0    0  0.00000000000E+00  0.00000000000E+00  0.74505805969E-08  0.10566000000E+00  0.10566000000E+00 0. -1.
     999900   -1    0    0    0    0 -0.00000000000E+00 -0.00000000000E+00 -0.74505805969E-08  0.93827000000E+00  0.93827000000E+00 0. -1.
     999902    2    1    2    0    0  0.49701421136E-02 -0.18988652651E-01  0.10534158574E-01  0.10216535609E+01  0.10214106710E+01 0.  0.
     999903    2    3    3    0    0  0.92414114692E-01  0.45837356152E-01  0.80306512649E-01  0.13220595640E+00  0.19693834576E-01 0.  0.
         14    1    1    2    0    0 -0.49701421136E-02  0.18988652651E-01 -0.10534158574E-01  0.22276439101E-01  0.00000000000E+00 0.  1.
     999901    1    3    3    0    0 -0.87443972578E-01 -0.64826008804E-01 -0.69772354074E-01  0.88944760450E+00  0.88000000000E+00 0. -1.
        -11    1    4    4    0    0  0.29765890603E-01  0.64331508178E-02  0.17434061927E-01  0.35094177709E-01  0.51100000000E-03 0. -1.
         11    1    4    4    0    0  0.62648224089E-01  0.39404205335E-01  0.62872450722E-01  0.97111778690E-01  0.51100000000E-03 0.  1.
</event>
<event>
 8    1  0.1060404E+005  0.1043930E+01  0.7957747E-01            NaN
         13   -1    0    0    0    0  0.00000000000E+00  0.00000000000E+00  0.74505805969E-08  0.10566000000E+00  0.10566000000E+00 0. -1.
     999900   -1    0    0    0    0 -0.00000000000E+00 -0.00000000000E+00 -0.74505805969E-08  0.93827000000E+00  0.93827000000E+00 0.  1.
     999902    2    1    2    0    0  0.10091769684E-01 -0.14596883406E-01 -0.19173727573E-01  0.10178044445E+01  0.10174690868E+01 0.  0.
     999903    2    3    3    0    0 -0.18349185927E-01 -0.10145573042E+00 -0.78410212999E-01  0.13109011145E+00  0.20161794478E-01 0.  0.
         14    1    1    2    0    0 -0.10091769684E-01  0.14596883406E-01  0.19173727573E-01  0.26125555488E-01  0.00000000000E+00 0.  1.
     999901    1    3    3    0    0  0.28440955611E-01  0.86858847015E-01  0.59236485427E-01  0.88671433307E+00  0.88000000000E+00 0.  1.
        -11    1    4    4    0    0 -0.73269012704E-02 -0.51852444690E-01 -0.27468219312E-01  0.59136483627E-01  0.51100000000E-03 0.  1.
         11    1    4    4    0    0 -0.11022284657E-01 -0.49603285731E-01 -0.50941993687E-01  0.71953627818E-01  0.51100000000E-03 0. -1.
</event>
<event>
 8    1  0.1060404E+005  0.1043930E+01  0.7957747E-01            NaN
         13   -1    0    0    0    0  0.00000000000E+00  0.00000000000E+00  0.74505805969E-08  0.10566000000E+00  0.10566000000E+00 0. -1.
     999900   -1    0    0    0    0 -0.00000000000E+00 -0.00000000000E+00 -0.74505805969E-08  0.93827000000E+00  0.93827000000E+00 0.  1.
     999902    2    1    2    0    0  0.13037529766E-01 -0.18831514393E-02 -0.19903611381E-01  0.10200620887E+01  0.10197828140E+01 0.  0.
     999903    2    3    3    0    0  0.69317185832E-01  0.83692989926E-01 -0.73065628384E-01  0.13252793407E+00  0.20388193731E-01 0.  0.
         14    1    1    2    0    0 -0.13037529766E-01  0.18831514393E-02  0.19903611381E-01  0.23867911256E-01  0.00000000000E+00 0. -1.
     999901    1    3    3    0    0 -0.56279656066E-01 -0.85576141366E-01  0.53162017003E-01  0.88753415467E+00  0.88000000000E+00 0. -1.
        -11    1    4    4    0    0  0.30821762105E-01  0.35133813674E-01 -0.43567242481E-01  0.63896256705E-01  0.51100000000E-03 0. -1.
         11    1    4    4    0    0  0.38495423727E-01  0.48559176253E-01 -0.29498385903E-01  0.68631677367E-01  0.51100000000E-03 0.  1.
</event>
<event>
 8    1  0.1060404E+005  0.1043930E+01  0.7957747E-01            NaN
         13   -1    0    0    0    0  0.00000000000E+00  0.00000000000E+00  0.74505805969E-08  0.10566000000E+00  0.10566000000E+00 0. -1.
     999900   -1    0    0    0    0 -0.00000000000E+00 -0.00000000000E+00 -0.74505805969E-08  0.93827000000E+00  0.93827000000E+00 0. -1.
     999902    2    1    2    0    0 -0.19710787999E-01 -0.10452981312E-01 -0.67964658837E-02  0.10206067942E+01  0.10203402650E+01 0.  0.
     999903    2    3    3    0    0  0.10914409072E-01  0.12215965743E+00 -0.36932609035E-01  0.12963417855E+00  0.19972391172E-01 0.  0.
         14    1    1    2    0    0  0.19710787999E-01  0.10452981312E-01  0.67964658837E-02  0.23323205834E-01  0.00000000000E+00 0.  1.
     999901    1    3    3    0    0 -0.30625197071E-01 -0.13261263875E+00  0.30136143151E-01  0.89097261561E+00  0.88000000000E+00 0. -1.
        -11    1    4    4    0    0 -0.84108787997E-03  0.43540395006E-01 -0.21833869787E-01  0.48718091270E-01  0.51100000000E-03 0.  1.
         11    1    4    4    0    0  0.11755496952E-01  0.78619262427E-01 -0.15098739248E-01  0.80916087282E-01  0.51100000000E-03 0. -1.
</event>
<event>
 8    1  0.1060404E+005  0.1043930E+01  0.7957747E-01            NaN
         13   -1    0    0    0    0  0.00000000000E+00  0.00000000000E+00  0.74505805969E-08  0.10566000000E+00  0.10566000000E+00 0. -1.
     999900   -1    0    0    0    0 -0.00000000000E+00 -0.00000000000E+00 -0.74505805969E-08  0.93827000000E+00  0.93827000000E+00 0.  1.
     999902    2    1    2    0    0 -0.85972538265E-02 -0.94439548693E-03 -0.22876874762E-01  0.10194727709E+01  0.10191793633E+01 0.  0.
     999903    2    3    3    0    0  0.91597337546E-01 -0.22216618893E-01  0.83022282315E-01  0.12722499416E+00  0.20244737057E-01 0.  0.
         14    1    1    2    0    0  0.85972538265E-02  0.94439548693E-03  0.22876874762E-01  0.24457229096E-01  0.00000000000E+00 0. -1.
     999901    1    3    3    0    0 -0.10019459137E+00  0.21272223406E-01 -0.10589915708E+00  0.89224777674E+00  0.88000000000E+00 0.  1.
        -11    1    4    4    0    0  0.47286426965E-01 -0.35808993366E-02  0.32537506073E-01  0.57513297920E-01  0.51100000000E-03 0.  1.
         11    1    4    4    0    0  0.44310910580E-01 -0.18635719556E-01  0.50484776243E-01  0.69711696243E-01  0.51100000000E-03 0. -1.
</event>
<event>
 8    1  0.1060404E+005  0.1043930E+01  0.7957747E-01            NaN
         13   -1    0    0    0    0  0.00000000000E+00  0.00000000000E+00  0.74505805969E-08  0.10566000000E+00  0.10566000000E+00 0.  1.
     999900   -1    0    0    0    0 -0.00000000000E+00 -0.00000000000E+00 -0.74505805969E-08  0.93827000000E+00  0.93827000000E+00 0. -1.
     999902    2    1    2    0    0 -0.10533145906E-02 -0.13382160066E-01 -0.18646237126E-01  0.10209544948E+01  0.10206959423E+01 0.  0.
     999903    2    3    3    0    0 -0.71464776218E-01  0.97950458680E-01 -0.44839756431E-01  0.13076416327E+00  0.19676281214E-01 0.  0.
         14    1    1    2    0    0  0.10533145906E-02  0.13382160066E-01  0.18646237126E-01  0.22975505187E-01  0.00000000000E+00 0.  1.
     999901    1    3    3    0    0  0.70411461627E-01 -0.11133261875E+00  0.26193519305E-01  0.89019033155E+00  0.88000000000E+00 0. -1.
        -11    1    4    4    0    0 -0.42915588480E-01  0.47532030468E-01 -0.31203129346E-01  0.71238599488E-01  0.51100000000E-03 0. -1.
         11    1    4    4    0    0 -0.28549187738E-01  0.50418428212E-01 -0.13636627084E-01  0.59525563778E-01  0.51100000000E-03 0.  1.
</event>
<event>
 8    1  0.1060404E+005  0.1043930E+01  0.7957747E-01            NaN
         13   -1    0    0    0    0  0.00000000000E+00  0.00000000000E+00  0.74505805969E-08  0.10566000000E+00  0.10566000000E+00 0. -1.
     999900   -1    0    0    0    0 -0.00000000000E+00 -0.00000000000E+00 -0.74505805969E-08  0.93827000000E+00  0.93827000000E+00 0. -1.
     999902    2    1    2    0    0 -0.19985931891E-01 -0.37041592021E-02 -0.98718470156E-02  0.10213332827E+01  0.10210832790E+01 0.  0.
     999903    2    3    3    0    0  0.83846788521E-01 -0.94858252284E-01  0.21732959380E-01  0.12999206505E+00  0.19930967859E-01 0.  0.
         14    1    1    2    0    0  0.19985931891E-01  0.37041592021E-02  0.98718470156E-02  0.22596717293E-01  0.00000000000E+00 0. -1.
     999901    1    3    3    0    0 -0.10383272041E+00  0.91154093082E-01 -0.31604806395E-01  0.89134121766E+00  0.88000000000E+00 0. -1.
        -11    1    4    4    0    0  0.20862189942E-01 -0.15626429531E-01  0.10677686515E-01  0.28172511060E-01  0.51100000000E-03 0. -1.
         11    1    4    4    0    0  0.62984598578E-01 -0.79231822753E-01  0.11055272864E-01  0.10181955399E+00  0.51100000000E-03 0.  1.
</event>
<event>
 8    1  0.1060404E+005  0.1043930E+01  0.7957747E-01            NaN
         13   -1    0    0    0    0  0.00000000000E+00  0.00000000000E+00  0.74505805969E-08  0.10566000000E+00  0.10566000000E+00 0. -1.
     999900   -1    0    0    0    0 -0.00000000000E+00 -0.00000000000E+00 -0.74505805969E-08  0.93827000000E+00  0.93827000000E+00 0. -1.
     999902    2    1    2    0    0  0.12417205923E-01 -0.39810234827E-02  0.19628197602E-01  0.10203651598E+01  0.10200930142E+01 0.  0.
     999903    2    3    3    0    0 -0.49016780794E-01  0.49015718148E-01 -0.10554968676E+00  0.12781135637E+00  0.19743885527E-01 0.  0.
         14    1    1    2    0    0 -0.12417205923E-01  0.39810234827E-02 -0.19628197602E-01  0.23564840165E-01  0.00000000000E+00 0.  1.
     999901    1    3    3    0    0  0.61433986716E-01 -0.52996741631E-01  0.12517788437E+00  0.89255380347E+00  0.88000000000E+00 0.  1.
        -11    1    4    4    0    0 -0.40203981975E-01  0.33047926847E-01 -0.89394331947E-01  0.10344144885E+00  0.51100000000E-03 0.  1.
         11    1    4    4    0    0 -0.88127988187E-02  0.15967791300E-01 -0.16155354818E-01  0.24369907516E-01  0.51100000000E-03 0. -1.
</event>
<event>
 8    1  0.1060404E+005  0.1043930E+01  0.7957747E-01            NaN
         13   -1    0    0    0    0  0.00000000000E+00  0.00000000000E+00  0.74505805969E-08  0.10566000000E+00  0.10566000000E+00 0.  1.
     999900   -1    0    0    0    0 -0.00000000000E+00 -0.00000000000E+00 -0.74505805969E-08  0.93827000000E+00  0.93827000000E+00 0. -1.
     999902    2    1    2    0    0  0.16080864379E-01 -0.16973293671E-01 -0.71647358235E-02  0.10194755457E+01  0.10191822054E+01 0.  0.
     999903    2    3    3    0    0 -0.41753647701E-01  0.65142641160E-01 -0.10090603476E+00  0.12881551588E+00  0.20602875670E-01 0.  0.
         14    1    1    2    0    0 -0.16080864379E-01  0.16973293671E-01  0.71647358235E-02  0.24454454331E-01  0.00000000000E+00 0. -1.
     999901    1    3    3    0    0  0.57834512080E-01 -0.82115934831E-01  0.93741298938E-01  0.89066002979E+00  0.88000000000E+00 0.  1.
        -11    1    4    4    0    0 -0.24821194648E-01  0.20127480159E-01 -0.39118771319E-01  0.50514815171E-01  0.51100000000E-03 0.  1.
         11    1    4    4    0    0 -0.16932453053E-01  0.45015161001E-01 -0.61787263443E-01  0.78300700707E-01  0.51100000000E-03 0. -1.
</event>
<event>
 8    1  0.1060404E+005  0.1043930E+01  0.7957747E-01            NaN
         13   -1    0    0    0    0  0.00000000000E+00  0.00000000000E+00  0.74505805969E-08  0.10566000000E+00  0.10566000000E+00 0. -1.
     999900   -1    0    0    0    0 -0.00000000000E+00 -0.00000000000E+00 -0.74505805969E-08  0.93827000000E+00  0.93827000000E+00 0. -1.
     999902    2    1    2    0    0 -0.29863887345E-02  0.24751922496E-01  0.16196029395E-02  0.10189460192E+01  0.10186396766E+01 0.  0.
     999903    2    3    3    0    0  0.11222569596E+00 -0.57405805942E-01  0.24623740775E-02  0.12764111787E+00  0.19903725674E-01 0.  0.
         14    1    1    2    0    0  0.29863887345E-02 -0.24751922496E-01 -0.16196029395E-02  0.24983980840E-01  0.00000000000E+00 0. -1.
     999901    1    3    3    0    0 -0.11521208469E+00  0.82157728438E-01 -0.84277113803E-03  0.89130490129E+00  0.88000000000E+00 0.  1.
        -11    1    4    4    0    0  0.77796988182E-01 -0.48876107734E-01  0.54715197948E-02  0.92040447235E-01  0.51100000000E-03 0. -1.
         11    1    4    4    0    0  0.34428707776E-01 -0.85296982085E-02 -0.30091457173E-02  0.35600670634E-01  0.51100000000E-03 0.  1.
</event>
<event>
 8    1  0.1060404E+005  0.1043930E+01  0.7957747E-01            NaN
         13   -1    0    0    0    0  0.00000000000E+00  0.00000000000E+00  0.74505805969E-08  0.10566000000E+00  0.10566000000E+00 0. -1.
     999900   -1    0    0    0    0 -0.00000000000E+00 -0.00000000000E+00 -0.74505805969E-08  0.93827000000E+00  0.93827000000E+00 0. -1.
     999902    2    1    2    0    0  0.13771090090E-01  0.18146680486E-01 -0.77206897739E-02  0.10198768508E+01  0.10195931722E+01 0.  0.
     999903    2    3    3    0    0 -0.76629797088E-01 -0.80958439421E-01 -0.58851106451E-01  0.12824437905E+00  0.23596044445E-01 0.  0.
         14    1    1    2    0    0 -0.13771090090E-01 -0.18146680486E-01  0.77206897739E-02  0.24053149181E-01  0.00000000000E+00 0.  1.
     999901    1    3    3    0    0  0.90400887178E-01  0.99105119907E-01  0.51130416677E-01  0.89163247176E+00  0.88000000000E+00 0.  1.
        -11    1    4    4    0    0 -0.50539335529E-02 -0.17328800772E-01 -0.11479862915E-01  0.21398082954E-01  0.51100000000E-03 0.  1.
         11    1    4    4    0    0 -0.71575863535E-01 -0.63629638649E-01 -0.47371243536E-01  0.10684629610E+00  0.51100000000E-03 0. -1.
</event>
<event>
 8    1  0.1060404E+005  0.1043930E+01  0.7957747E-01            NaN
         13   -1    0    0    0    0  0.00000000000E+00  0.00000000000E+00  0.74505805969E-08  0.10566000000E+00  0.10566000000E+00 0.  1.
     999900   -1    0    0    0    0 -0.00000000000E+00 -0.00000000000E+00 -0.74505805969E-08  0.93827000000E+00  0.93827000000E+00 0.  1.
     999902    2    1    2    0    0  0.21458587194E-01  0.40523701915E-02 -0.10577713078E-01  0.10196651966E+01  0.10193764430E+01 0.  0.
     999903    2    3    3    0    0  0.35328404537E-01 -0.38990588148E-01 -0.11940070817E+00  0.13180962710E+00  0.18678505108E-01 0.  0.
         14    1    1    2    0    0 -0.21458587194E-01 -0.40523701915E-02  0.10577713078E-01  0.24264803368E-01  0.00000000000E+00 0.  1.
     999901    1    3    3    0    0 -0.13869817343E-01  0.43042958339E-01  0.10882299509E+00  0.88785556954E+00  0.88000000000E+00 0. -1.
        -11    1    4    4    0    0  0.12168030853E-01 -0.24291023005E-01 -0.73144406617E-01  0.78028713393E-01  0.51100000000E-03 0.  1.
         11    1    4    4    0    0  0.23160373684E-01 -0.14699565143E-01 -0.46256301551E-01  0.53780913703E-01  0.51100000000E-03 0. -1.
</event>
<event>
 8    1  0.1060404E+005  0.1043930E+01  0.7957747E-01            NaN
         13   -1    0    0    0    0  0.00000000000E+00  0.00000000000E+00  0.74505805969E-08  0.10566000000E+00  0.10566000000E+00 0.  1.
     999900   -1    0    0    0    0 -0.00000000000E+00 -0.00000000000E+00 -0.74505805969E-08  0.93827000000E+00  0.93827000000E+00 0.  1.
     999902    2    1    2    0    0  0.23144754720E-01 -0.19220876420E-01 -0.20220600167E-02  0.10137768826E+01  0.10133283561E+01 0.  0.
     999903    2    3    3    0    0  0.24468774571E-01  0.45785223748E-01 -0.11160182367E+00  0.12460014501E+00  0.19370633672E-01 0.  0.
         14    1    1    2    0    0 -0.23144754720E-01  0.19220876420E-01  0.20220600167E-02  0.30153117386E-01  0.00000000000E+00 0.  1.
     999901    1    3    3    0    0 -0.13240198506E-02 -0.65006100168E-01  0.10957976365E+00  0.88917673760E+00  0.88000000000E+00 0. -1.
        -11    1    4    4    0    0  0.51413421715E-02  0.34171396972E-02 -0.30102083827E-01  0.30732829593E-01  0.51100000000E-03 0. -1.
         11    1    4    4    0    0  0.19327432399E-01  0.42368084051E-01 -0.81499739840E-01  0.93867315421E-01  0.51100000000E-03 0.  1.
</event>
<event>
 8    1  0.1060404E+005  0.1043930E+01  0.7957747E-01            NaN
         13   -1    0    0    0    0  0.00000000000E+00  0.00000000000E+00  0.74505805969E-08  0.10566000000E+00  0.10566000000E+00 0.  1.
     999900   -1    0    0    0    0 -0.00000000000E+00 -0.00000000000E+00 -0.74505805969E-08  0.93827000000E+00  0.93827000000E+00 0. -1.
     999902    2    1    2    0    0 -0.90072722538E-02 -0.13363784275E-01  0.17232216756E-01  0.10203361241E+01  0.10200632996E+01 0.  0.
     999903    2    3    3    0    0 -0.86531790468E-01  0.44833963997E-01  0.87122017952E-01  0.13225864265E+00  0.20106403304E-01 0.  0.
         14    1    1    2    0    0  0.90072722538E-02  0.13363784275E-01 -0.17232216756E-01  0.23593875856E-01  0.00000000000E+00 0. -1.
     999901    1    3    3    0    0  0.77524518214E-01 -0.58197748271E-01 -0.69889801196E-01  0.88807748150E+00  0.88000000000E+00 0. -1.
        -11    1    4    4    0    0 -0.36995036154E-01  0.99704293840E-02  0.26730996161E-01  0.46720974293E-01  0.51100000000E-03 0. -1.
         11    1    4    4    0    0 -0.49536754315E-01  0.34863534613E-01  0.60391021791E-01  0.85537668355E-01  0.51100000000E-03 0.  1.
</event>
<event>
 7    1  0.1060404E+005  0.1043930E+01  0.7957747E-01            NaN
         13   -1    0    0    0    0  0.00000000000E+00  0.00000000000E+00  0.74505805969E-08  0.10566000000E+00  0.10566000000E+00 0.  1.
     999900   -1    0    0    0    0 -0.00000000000E+00 -0.00000000000E+00 -0.74505805969E-08  0.93827000000E+00  0.93827000000E+00 0.  1.
     999902    2    1    2    0    0  0.13648707794E-01  0.87984215461E-03  0.19498240214E-01  0.10201131421E+01  0.10198350749E+01 0.  0.
         14    1    1    2    0    0 -0.13648707794E-01 -0.87984215461E-03 -0.19498240214E-01  0.23816857855E-01  0.00000000000E+00 0. -1.
     999901    1    3    3    0    0  0.65017838009E-02  0.41131648292E-01 -0.10672608358E+00  0.88742579555E+00  0.88000000000E+00 0.  1.
        -11    1    3    3    0    0  0.25062017361E-02 -0.12142783036E-01  0.39068658093E-01  0.40992065003E-01  0.51100000000E-03 0.  1.
         11    1    3    3    0    0  0.46407222571E-02 -0.28109023102E-01  0.87155665698E-01  0.91695281597E-01  0.51100000000E-03 0. -1.
</event>
<event>
 8    1  0.1060404E+005  0.1043930E+01  0.7957747E-01            NaN
         13   -1    0    0    0    0  0.00000000000E+00  0.00000000000E+00  0.74505805969E-08  0.10566000000E+00  0.10566000000E+00 0.  1.
     999900   -1    0    0    0    0 -0.00000000000E+00 -0.00000000000E+00 -0.74505805969E-08  0.93827000000E+00  0.93827000000E+00 0. -1.
     999902    2    1    2    0    0  0.16032773940E-01  0.10461904343E-01  0.13472233695E-01  0.10205205497E+01  0.10202520228E+01 0.  0.
     999903    2    3    3    0    0  0.93169635786E-01 -0.40514295118E-01  0.83214867582E-01  0.13293241134E+00  0.20599093607E-01 0.  0.
         14    1    1    2    0    0 -0.16032773940E-01 -0.10461904343E-01 -0.13472233695E-01  0.23409450302E-01  0.00000000000E+00 0. -1.
     999901    1    3    3    0    0 -0.77136861846E-01  0.50976199462E-01 -0.69742633887E-01  0.88758813836E+00  0.88000000000E+00 0. -1.
        -11    1    4    4    0    0  0.80306886390E-01 -0.26407952942E-01  0.69071310350E-01  0.10916814102E+00  0.51100000000E-03 0.  1.
         11    1    4    4    0    0  0.12862749396E-01 -0.14106342176E-01  0.14143557231E-01  0.23764270319E-01  0.51100000000E-03 0. -1.
</event>
<event>
 8    1  0.1060404E+005  0.1043930E+01  0.7957747E-01            NaN
         13   -1    0    0    0    0  0.00000000000E+00  0.00000000000E+00  0.74505805969E-08  0.10566000000E+00  0.10566000000E+00 0.  1.
     999900   -1    0    0    0    0 -0.00000000000E+00 -0.00000000000E+00 -0.74505805969E-08  0.93827000000E+00  0.93827000000E+00 0.  1.
     999902    2    1    2    0    0  0.14691909910E-01 -0.16468225192E-01  0.71667878742E-02  0.10207261748E+01  0.10204623983E+01 0.  0.
     999903    2    3    3    0    0 -0.31519768478E-01 -0.29492157306E-01 -0.12112877124E+00  0.13012812147E+00  0.19946569276E-01 0.  0.
         14    1    1    2    0    0 -0.14691909910E-01  0.16468225192E-01 -0.71667878742E-02  0.23203825249E-01  0.00000000000E+00 0. -1.
     999901    1    3    3    0    0  0.46211678387E-01  0.13023932114E-01  0.12829555912E+00  0.89059805329E+00  0.88000000000E+00 0. -1.
        -11    1    4    4    0    0 -0.87114800407E-02 -0.15310154544E-01 -0.72102184859E-01  0.74224503361E-01  0.51100000000E-03 0. -1.
         11    1    4    4    0    0 -0.22808288437E-01 -0.14182002762E-01 -0.49026586383E-01  0.55903618104E-01  0.51100000000E-03 0.  1.
</event>
<event>
 8    1  0.1060404E+005  0.1043930E+01  0.7957747E-01            NaN
         13   -1    0    0    0    0  0.00000000000E+00  0.00000000000E+00  0.74505805969E-08  0.10566000000E+00  0.10566000000E+00 0.  1.
     999900   -1    0    0    0    0 -0.00000000000E+00 -0.00000000000E+00 -0.74505805969E-08  0.93827000000E+00  0.93827000000E+00 0.  1.
     999902    2    1    2    0    0  0.11286852433E-01 -0.15408773984E-01 -0.14145958826E-01  0.10201617122E+01  0.10198847913E+01 0.  0.
     999903    2    3    3    0    0  0.12926207967E+00 -0.68425272393E-02  0.14627088580E-01  0.13178148782E+00  0.19922434356E-01 0.  0.
         14    1    1    2    0    0 -0.11286852433E-01  0.15408773984E-01  0.14145958826E-01  0.23768287794E-01  0.00000000000E+00 0. -1.
     999901    1    3    3    0    0 -0.11797522724E+00 -0.85662467442E-02 -0.28773047407E-01  0.88838022439E+00  0.88000000000E+00 0. -1.
        -11    1    4    4    0    0  0.45226852107E-01 -0.63292460800E-02  0.13904017171E-01  0.47740028508E-01  0.51100000000E-03 0.  1.
         11    1    4    4    0    0  0.84035227567E-01 -0.51328115935E-03  0.72307140933E-03  0.84041459311E-01  0.51100000000E-03 0. -1.
</event>
<event>
 8    1  0.1761756E+005  0.1043930E+01  0.7957747E-01            NaN
         13   -1    0    0    0    0  0.00000000000E+00  0.00000000000E+00  0.74505805969E-08  0.10566000000E+00  0.10566000000E+00 0.  1.
     999900   -1    0    0    0    0 -0.00000000000E+00 -0.00000000000E+00 -0.74505805969E-08  0.93827000000E+00  0.93827000000E+00 0. -1.
     999902    2    1    2    0    0  0.88215018718E-02  0.37996109269E-03 -0.22385453370E-01  0.10198660895E+01  0.10195821540E+01 0.  0.
     999903    2    3    3    0    0  0.69713026426E-01  0.25241094096E-01  0.10311991261E+00  0.12853144383E+00  0.19738206365E-01 0.  0.
         14    1    1    2    0    0 -0.88215018718E-02 -0.37996109269E-03  0.22385453370E-01  0.24063910495E-01  0.00000000000E+00 0.  1.
     999901    1    3    3    0    0 -0.60891524554E-01 -0.24861133003E-01 -0.12550536598E+00  0.89133464568E+00  0.88000000000E+00 0. -1.
        -11    1    4    4    0    0  0.23773028010E-01 -0.88985613241E-03  0.34677890287E-01  0.42056698640E-01  0.51100000000E-03 0.  1.
         11    1    4    4    0    0  0.45939998416E-01  0.26130950229E-01  0.68442022325E-01  0.86474745187E-01  0.51100000000E-03 0. -1.
</event>
<event>
 8    1  0.1060404E+005  0.1043930E+01  0.7957747E-01            NaN
         13   -1    0    0    0    0  0.00000000000E+00  0.00000000000E+00  0.74505805969E-08  0.10566000000E+00  0.10566000000E+00 0.  1.
     999900   -1    0    0    0    0 -0.00000000000E+00 -0.00000000000E+00 -0.74505805969E-08  0.93827000000E+00  0.93827000000E+00 0. -1.
     999902    2    1    2    0    0 -0.23166991814E-01 -0.33087030079E-02  0.56710212458E-03  0.10205210566E+01  0.10202525415E+01 0.  0.
     999903    2    3    3    0    0  0.38634466335E-01  0.79950097365E-01 -0.92113094809E-01  0.12959958591E+00  0.20654064378E-01 0.  0.
         14    1    1    2    0    0  0.23166991814E-01  0.33087030079E-02 -0.56710212458E-03  0.23408943380E-01  0.00000000000E+00 0. -1.
     999901    1    3    3    0    0 -0.61801458149E-01 -0.83258800373E-01  0.92680196933E-01  0.89092147071E+00  0.88000000000E+00 0.  1.
        -11    1    4    4    0    0  0.24674417972E-01  0.38063010419E-01 -0.58916702836E-01  0.74357640216E-01  0.51100000000E-03 0. -1.
         11    1    4    4    0    0  0.13960048362E-01  0.41887086946E-01 -0.33196391972E-01  0.55241945694E-01  0.51100000000E-03 0.  1.
</event>
<event>
 8    1  0.1060404E+005  0.1043930E+01  0.7957747E-01            NaN
         13   -1    0    0    0    0  0.00000000000E+00  0.00000000000E+00  0.74505805969E-08  0.10566000000E+00  0.10566000000E+00 0.  1.
     999900   -1    0    0    0    0 -0.00000000000E+00 -0.00000000000E+00 -0.74505805969E-08  0.93827000000E+00  0.93827000000E+00 0. -1.
     999902    2    1    2    0    0  0.80385085300E-02 -0.13972334377E-01  0.17317526897E-01  0.10202711648E+01  0.10199968182E+01 0.  0.
     999903    2    3    3    0    0 -0.88264685924E-01 -0.30025379885E-01  0.90498749865E-01  0.13185262773E+00  0.22425732855E-01 0.  0.
         14    1    1    2    0    0 -0.80385085300E-02  0.13972334377E-01 -0.17317526897E-01  0.23658835245E-01  0.00000000000E+00 0. -1.
     999901    1    3    3    0    0  0.96303194454E-01  0.16053045509E-01 -0.73181222969E-01  0.88841853702E+00  0.88000000000E+00 0. -1.
        -11    1    4    4    0    0 -0.36839922625E-01 -0.71551085051E-02  0.49972357866E-01  0.62496985115E-01  0.51100000000E-03 0. -1.
         11    1    4    4    0    0 -0.51424763298E-01 -0.22870271380E-01  0.40526392000E-01  0.69355642617E-01  0.51100000000E-03 0.  1.
</event>
<event>
 8    1  0.1060404E+005  0.1043930E+01  0.7957747E-01            NaN
         13   -1    0    0    0    0  0.00000000000E+00  0.00000000000E+00  0.74505805969E-08  0.10566000000E+00  0.10566000000E+00 0. -1.
     999900   -1    0    0    0    0 -0.00000000000E+00 -0.00000000000E+00 -0.74505805969E-08  0.93827000000E+00  0.93827000000E+00 0.  1.
     999902    2    1    2    0    0 -0.65748175494E-02 -0.22291166498E-01 -0.46398563187E-02  0.10202307891E+01  0.10199554944E+01 0.  0.
     999903    2    3    3    0    0 -0.18866964926E-01  0.47721854306E-01  0.11677046415E+00  0.12905550564E+00  0.19663277841E-01 0.  0.
         14    1    1    2    0    0  0.65748175494E-02  0.22291166498E-01  0.46398563187E-02  0.23699210879E-01  0.00000000000E+00 0.  1.
     999901    1    3    3    0    0  0.12292147376E-01 -0.70013020804E-01 -0.12141032047E+00  0.89117528348E+00  0.88000000000E+00 0.  1.
        -11    1    4    4    0    0  0.29643980470E-02  0.16518390975E-01  0.38971552998E-01  0.42434513786E-01  0.51100000000E-03 0.  1.
         11    1    4    4    0    0 -0.21831362973E-01  0.31203463332E-01  0.77798911148E-01  0.86620991856E-01  0.51100000000E-03 0. -1.
</event>
<event>
 8    1  0.1060404E+005  0.1043930E+01  0.7957747E-01            NaN
         13   -1    0    0    0    0  0.00000000000E+00  0.00000000000E+00  0.74505805969E-08  0.10566000000E+00  0.10566000000E+00 0. -1.
     999900   -1    0    0    0    0 -0.00000000000E+00 -0.00000000000E+00 -0.74505805969E-08  0.93827000000E+00  0.93827000000E+00 0.  1.
     999902    2    1    2    0    0 -0.28027551087E-02 -0.22844075420E-01  0.17820043557E-02  0.10208457465E+01  0.10205847125E+01 0.  0.
     999903    2    3    3    0    0 -0.42341596385E-01  0.63040969113E-01 -0.10301162833E+00  0.12959871777E+00  0.20431776864E-01 0.  0.
         14    1    1    2    0    0  0.28027551087E-02  0.22844075420E-01 -0.17820043557E-02  0.23084253454E-01  0.00000000000E+00 0.  1.
     999901    1    3    3    0    0  0.39538841276E-01 -0.85885044533E-01  0.10479363269E+00  0.89124702877E+00  0.88000000000E+00 0. -1.
        -11    1    4    4    0    0 -0.23218465311E-01  0.17019086128E-01 -0.36765872053E-01  0.46698360709E-01  0.51100000000E-03 0.  1.
         11    1    4    4    0    0 -0.19123131073E-01  0.46021882985E-01 -0.66245756279E-01  0.82900357065E-01  0.51100000000E-03 0. -1.
</event>
<event>
 8    1  0.1136705E+005  0.1043930E+01  0.7957747E-01            NaN
         13   -1    0    0    0    0  0.00000000000E+00  0.00000000000E+00  0.74505805969E-08  0.10566000000E+00  0.10566000000E+00 0. -1.
     999900   -1    0    0    0    0 -0.00000000000E+00 -0.00000000000E+00 -0.74505805969E-08  0.93827000000E+00  0.93827000000E+00 0. -1.
     999902    2    1    2    0    0 -0.13335035325E-01  0.11107601619E-01 -0.15868975042E-01  0.10204134877E+01  0.10201424702E+01 0.  0.
     999903    2    3    3    0    0  0.55767832748E-01  0.72225624133E-01  0.89451063571E-01  0.12934506746E+00  0.20051477548E-01 0.  0.
         14    1    1    2    0    0  0.13335035325E-01 -0.11107601619E-01  0.15868975042E-01  0.23516512278E-01  0.00000000000E+00 0.  1.
     999901    1    3    3    0    0 -0.69102868073E-01 -0.61118022514E-01 -0.10532003861E+00  0.89106842026E+00  0.88000000000E+00 0. -1.
        -11    1    4    4    0    0  0.32672166401E-01  0.26378655642E-01  0.37368307616E-01  0.56213481176E-01  0.51100000000E-03 0.  1.
         11    1    4    4    0    0  0.23095666347E-01  0.45846968491E-01  0.52082755955E-01  0.73131586286E-01  0.51100000000E-03 0. -1.
</event>
<event>
 8    1  0.1060404E+005  0.1043930E+01  0.7957747E-01            NaN
         13   -1    0    0    0    0  0.00000000000E+00  0.00000000000E+00  0.74505805969E-08  0.10566000000E+00  0.10566000000E+00 0. -1.
     999900   -1    0    0    0    0 -0.00000000000E+00 -0.00000000000E+00 -0.74505805969E-08  0.93827000000E+00  0.93827000000E+00 0. -1.
     999902    2    1    2    0    0  0.18633909490E-01 -0.45472312683E-02 -0.16385118739E-01  0.10187035851E+01  0.10183911931E+01 0.  0.
     999903    2    3    3    0    0 -0.11019186884E+00  0.58890371053E-01  0.42060184443E-02  0.12682668464E+00  0.21377408259E-01 0.  0.
         14    1    1    2    0    0 -0.18633909490E-01  0.45472312683E-02  0.16385118739E-01  0.25226414949E-01  0.00000000000E+00 0.  1.
     999901    1    3    3    0    0  0.12882577833E+00 -0.63437602321E-01 -0.20591137184E-01  0.89187690041E+00  0.88000000000E+00 0.  1.
        -11    1    4    4    0    0 -0.59827248271E-02  0.98689296908E-02  0.13040978585E-02  0.11625427382E-01  0.51100000000E-03 0.  1.
         11    1    4    4    0    0 -0.10420914402E+00  0.49021441362E-01  0.29019205858E-02  0.11520125726E+00  0.51100000000E-03 0. -1.
</event>
<event>
 8    1  0.1060404E+005  0.1043930E+01  0.7957747E-01            NaN
         13   -1    0    0    0    0  0.00000000000E+00  0.00000000000E+00  0.74505805969E-08  0.10566000000E+00  0.10566000000E+00 0. -1.
     999900   -1    0    0    0    0 -0.00000000000E+00 -0.00000000000E+00 -0.74505805969E-08  0.93827000000E+00  0.93827000000E+00 0.  1.
     999902    2    1    2    0    0 -0.16756522126E-01 -0.11731972424E-01  0.11721625646E-01  0.10203542345E+01  0.10200818336E+01 0.  0.
     999903    2    3    3    0    0 -0.68957528635E-01  0.10626138774E+00  0.24928223458E-01  0.13084774642E+00  0.21285984554E-01 0.  0.
         14    1    1    2    0    0  0.16756522126E-01  0.11731972424E-01 -0.11721625646E-01  0.23575765491E-01  0.00000000000E+00 0.  1.
     999901    1    3    3    0    0  0.52201006509E-01 -0.11799336017E+00 -0.13206597811E-01  0.88950648809E+00  0.88000000000E+00 0. -1.
        -11    1    4    4    0    0 -0.23801229681E-01  0.35827979948E-01 -0.16864061677E-02  0.43049364319E-01  0.51100000000E-03 0.  1.
         11    1    4    4    0    0 -0.45156298954E-01  0.70433407794E-01  0.26614629625E-01  0.87798382102E-01  0.51100000000E-03 0. -1.
</event>
<event>
 8    1  0.1060404E+005  0.1043930E+01  0.7957747E-01            NaN
         13   -1    0    0    0    0  0.00000000000E+00  0.00000000000E+00  0.74505805969E-08  0.10566000000E+00  0.10566000000E+00 0.  1.
     999900   -1    0    0    0    0 -0.00000000000E+00 -0.00000000000E+00 -0.74505805969E-08  0.93827000000E+00  0.93827000000E+00 0. -1.
     999902    2    1    2    0    0  0.67155282522E-02 -0.18693090188E-01  0.14519554386E-01  0.10193261914E+01  0.10190292130E+01 0.  0.
     999903    2    3    3    0    0  0.61476876528E-01 -0.90164330192E-01  0.72440762244E-01  0.13283772006E+00  0.22117482891E-01 0.  0.
         14    1    1    2    0    0 -0.67155282522E-02  0.18693090188E-01 -0.14519554386E-01  0.24603808649E-01  0.00000000000E+00 0. -1.
     999901    1    3    3    0    0 -0.54761348275E-01  0.71471240004E-01 -0.57921207858E-01  0.88648847129E+00  0.88000000000E+00 0. -1.
        -11    1    4    4    0    0  0.45443253994E-01 -0.79475898268E-01  0.54750104833E-01  0.10667400264E+00  0.51100000000E-03 0. -1.
         11    1    4    4    0    0  0.16033622533E-01 -0.10688431924E-01  0.17690657411E-01  0.26163717419E-01  0.51100000000E-03 0.  1.
</event>
<event>
 8    1  0.1060404E+005  0.1043930E+01  0.7957747E-01            NaN
         13   -1    0    0    0    0  0.00000000000E+00  0.00000000000E+00  0.74505805969E-08  0.10566000000E+00  0.10566000000E+00 0.  1.
     999900   -1    0    0    0    0 -0.00000000000E+00 -0.00000000000E+00 -0.74505805969E-08  0.93827000000E+00  0.93827000000E+00 0. -1.
     999902    2    1    2    0    0 -0.25398609679E-02  0.22457590082E-01 -0.58465151723E-02  0.10205852793E+01  0.10203182525E+01 0.  0.
     999903    2    3    3    0    0 -0.75883507255E-02 -0.11242038881E+00  0.57528481045E-01  0.12804175284E+00  0.19729101681E-01 0.  0.
         14    1    1    2    0    0  0.25398609679E-02 -0.22457590082E-01  0.58465151723E-02  0.23344720724E-01  0.00000000000E+00 0.  1.
     999901    1    3    3    0    0  0.50484897576E-02  0.13487797889E+00 -0.63374996218E-01  0.89254352644E+00  0.88000000000E+00 0.  1.
        -11    1    4    4    0    0 -0.13515550380E-02 -0.28354594728E-01  0.53197562703E-02  0.28885475087E-01  0.51100000000E-03 0.  1.
         11    1    4    4    0    0 -0.62367956875E-02 -0.84065794077E-01  0.52208724775E-01  0.99156277753E-01  0.51100000000E-03 0. -1.
</event>
<event>
 8    1  0.1060404E+005  0.1043930E+01  0.7957747E-01            NaN
         13   -1    0    0    0    0  0.00000000000E+00  0.00000000000E+00  0.74505805969E-08  0.10566000000E+00  0.10566000000E+00 0. -1.
     999900   -1    0    0    0    0 -0.00000000000E+00 -0.00000000000E+00 -0.74505805969E-08  0.93827000000E+00  0.93827000000E+00 0. -1.
     999902    2    1    2    0    0  0.98549606939E-02 -0.21732308149E-01  0.56777866854E-02  0.10194014303E+01  0.10191062876E+01 0.  0.
     999903    2    3    3    0    0 -0.44643734142E-01 -0.64242250170E-01 -0.10273816245E+00  0.13005829019E+00  0.15488677145E-01 0.  0.
         14    1    1    2    0    0 -0.98549606939E-02  0.21732308149E-01 -0.56777866854E-02  0.24528569657E-01  0.00000000000E+00 0. -1.
     999901    1    3    3    0    0  0.54498694836E-01  0.42509942021E-01  0.10841594913E+00  0.88934314015E+00  0.88000000000E+00 0. -1.
        -11    1    4    4    0    0 -0.17845035470E-01 -0.13720826455E-01 -0.27133075016E-01  0.35258633700E-01  0.51100000000E-03 0.  1.
         11    1    4    4    0    0 -0.26798698672E-01 -0.50521423715E-01 -0.75605087430E-01  0.94799656492E-01  0.51100000000E-03 0. -1.
</event>
<event>
 8    1  0.1060404E+005  0.1043930E+01  0.7957747E-01            NaN
         13   -1    0    0    0    0  0.00000000000E+00  0.00000000000E+00  0.74505805969E-08  0.10566000000E+00  0.10566000000E+00 0. -1.
     999900   -1    0    0    0    0 -0.00000000000E+00 -0.00000000000E+00 -0.74505805969E-08  0.93827000000E+00  0.93827000000E+00 0.  1.
     999902    2    1    2    0    0  0.38701610625E-02  0.20176632649E-01  0.14885617648E-01  0.10185596184E+01  0.10182436054E+01 0.  0.
     999903    2    3    3    0    0  0.12786387542E+00  0.65470687109E-02 -0.29214687475E-02  0.12958419770E+00  0.19786221641E-01 0.  0.
         14    1    1    2    0    0 -0.38701610625E-02 -0.20176632649E-01 -0.14885617648E-01  0.25370381638E-01  0.00000000000E+00 0. -1.
     999901    1    3    3    0    0 -0.12399371436E+00  0.13629563938E-01  0.17807086395E-01  0.88897542066E+00  0.88000000000E+00 0. -1.
        -11    1    4    4    0    0  0.46225581186E-01 -0.65352357978E-02 -0.43514458222E-02  0.46890402693E-01  0.51100000000E-03 0. -1.
         11    1    4    4    0    0  0.81638294238E-01  0.13082304509E-01  0.14299770747E-02  0.82693795008E-01  0.51100000000E-03 0.  1.
</event>
<event>
 8    1  0.1060404E+005  0.1043930E+01  0.7957747E-01            NaN
         13   -1    0    0    0    0  0.00000000000E+00  0.00000000000E+00  0.74505805969E-08  0.10566000000E+00  0.10566000000E+00 0.  1.
     999900   -1    0    0    0    0 -0.00000000000E+00 -0.00000000000E+00 -0.74505805969E-08  0.93827000000E+00  0.93827000000E+00 0. -1.
     999902    2    1    2    0    0 -0.35254555983E-02  0.22142694262E-01 -0.27848558503E-01  0.10081770986E+01  0.10075429481E+01 0.  0.
     999903    2    3    3    0    0  0.99451866130E-01  0.45588444301E-01  0.42503436935E-01  0.11907449754E+00  0.20080186323E-01 0.  0.
         14    1    1    2    0    0  0.35254555983E-02 -0.22142694262E-01  0.27848558503E-01  0.35752901380E-01  0.00000000000E+00 0.  1.
     999901    1    3    3    0    0 -0.10297732173E+00 -0.23445750038E-01 -0.70351995438E-01  0.88910260108E+00  0.88000000000E+00 0. -1.
        -11    1    4    4    0    0  0.45886726920E-01  0.10729203950E-01  0.14594478274E-01  0.49335255568E-01  0.51100000000E-03 0.  1.
         11    1    4    4    0    0  0.53565139209E-01  0.34859240351E-01  0.27908958661E-01  0.69739241972E-01  0.51100000000E-03 0. -1.
</event>
<event>
 8    1  0.1060404E+005  0.1043930E+01  0.7957747E-01            NaN
         13   -1    0    0    0    0  0.00000000000E+00  0.00000000000E+00  0.74505805969E-08  0.10566000000E+00  0.10566000000E+00 0. -1.
     999900   -1    0    0    0    0 -0.00000000000E+00 -0.00000000000E+00 -0.74505805969E-08  0.93827000000E+00  0.93827000000E+00 0. -1.
     999902    2    1    2    0    0  0.10181810995E-01  0.16520467371E-01  0.60472130332E-02  0.10236035664E+01  0.10234017282E+01 0.  0.
     999903    2    3    3    0    0  0.48235024971E-01 -0.38753241129E-01 -0.11593365146E+00  0.13265880872E+00  0.18147083968E-01 0.  0.
         14    1    1    2    0    0 -0.10181810995E-01 -0.16520467371E-01 -0.60472130332E-02  0.20326433597E-01  0.00000000000E+00 0.  1.
     999901    1    3    3    0    0 -0.38053213977E-01  0.55273708500E-01  0.12198086450E+00  0.89094475769E+00  0.88000000000E+00 0.  1.
        -11    1    4    4    0    0  0.30297775981E-01 -0.32625504561E-01 -0.91234907072E-01  0.10152067852E+00  0.51100000000E-03 0.  1.
         11    1    4    4    0    0  0.17937248991E-01 -0.61277365676E-02 -0.24698744392E-01  0.31138130200E-01  0.51100000000E-03 0. -1.
</event>
<event>
 8    1  0.1060404E+005  0.1043930E+01  0.7957747E-01            NaN
         13   -1    0    0    0    0  0.00000000000E+00  0.00000000000E+00  0.74505805969E-08  0.10566000000E+00  0.10566000000E+00 0. -1.
     999900   -1    0    0    0    0 -0.00000000000E+00 -0.00000000000E+00 -0.74505805969E-08  0.93827000000E+00  0.93827000000E+00 0. -1.
     999902    2    1    2    0    0  0.18084420932E-02 -0.41637617413E-02 -0.23330694248E-01  0.10201617719E+01  0.10198848524E+01 0.  0.
     999903    2    3    3    0    0 -0.11905471214E+00 -0.33912461597E-01  0.32950640030E-01  0.12962234220E+00  0.19802206600E-01 0.  0.
         14    1    1    2    0    0 -0.18084420932E-02  0.41637617413E-02  0.23330694248E-01  0.23768228136E-01  0.00000000000E+00 0. -1.
     999901    1    3    3    0    0  0.12086315423E+00  0.29748699855E-01 -0.56281334278E-01  0.89053942966E+00  0.88000000000E+00 0. -1.
        -11    1    4    4    0    0 -0.97793343637E-01 -0.20281833560E-01  0.23124024076E-01  0.10251766893E+00  0.51100000000E-03 0.  1.
         11    1    4    4    0    0 -0.21261368500E-01 -0.13630628037E-01  0.98266159535E-02  0.27104673273E-01  0.51100000000E-03 0. -1.
</event>
<event>
 8    1  0.1060404E+005  0.1043930E+01  0.7957747E-01            NaN
         13   -1    0    0    0    0  0.00000000000E+00  0.00000000000E+00  0.74505805969E-08  0.10566000000E+00  0.10566000000E+00 0.  1.
     999900   -1    0    0    0    0 -0.00000000000E+00 -0.00000000000E+00 -0.74505805969E-08  0.93827000000E+00  0.93827000000E+00 0. -1.
     999902    2    1    2    0    0 -0.16321677801E-01  0.71191359533E-02 -0.16247568283E-01  0.10198247570E+01  0.10195398336E+01 0.  0.
     999903    2    3    3    0    0 -0.60895327813E-01  0.59500664455E-02  0.11202941739E+00  0.12940734815E+00  0.21260930240E-01 0.  0.
         14    1    1    2    0    0  0.16321677801E-01 -0.71191359533E-02  0.16247568283E-01  0.24105242958E-01  0.00000000000E+00 0.  1.
     999901    1    3    3    0    0  0.44573650012E-01  0.11690695078E-02 -0.12827698567E+00  0.89041740889E+00  0.88000000000E+00 0. -1.
        -11    1    4    4    0    0 -0.30851766629E-01 -0.75491474107E-02  0.57941629926E-01  0.66078095692E-01  0.51100000000E-03 0.  1.
         11    1    4    4    0    0 -0.30043561184E-01  0.13499213856E-01  0.54087787466E-01  0.63329252461E-01  0.51100000000E-03 0. -1.
</event>
<event>
 8    1  0.1060404E+005  0.1043930E+01  0.7957747E-01            NaN
         13   -1    0    0    0    0  0.00000000000E+00  0.00000000000E+00  0.74505805969E-08  0.10566000000E+00  0.10566000000E+00 0.  1.
     999900   -1    0    0    0    0 -0.00000000000E+00 -0.00000000000E+00 -0.74505805969E-08  0.93827000000E+00  0.93827000000E+00 0.  1.
     999902    2    1    2    0    0  0.10682252868E-01  0.42826431768E-02  0.20789739491E-01  0.10201673228E+01  0.10198905342E+01 0.  0.
     999903    2    3    3    0    0  0.12071177528E-01  0.88695337924E-01  0.96576929565E-01  0.13288431817E+00  0.17848316325E-01 0.  0.
         14    1    1    2    0    0 -0.10682252868E-01 -0.42826431768E-02 -0.20789739491E-01  0.23762677185E-01  0.00000000000E+00 0. -1.
     999901    1    3    3    0    0 -0.13889246594E-02 -0.84412694748E-01 -0.75787190075E-01  0.88728300464E+00  0.88000000000E+00 0.  1.
        -11    1    4    4    0    0  0.13717354181E-01  0.39376509379E-01  0.39600246369E-01  0.57507529334E-01  0.51100000000E-03 0. -1.
         11    1    4    4    0    0 -0.16461766531E-02  0.49318828545E-01  0.56976683196E-01  0.75376788839E-01  0.51100000000E-03 0.  1.
</event>
<event>
 8    1  0.1060404E+005  0.1043930E+01  0.7957747E-01            NaN
         13   -1    0    0    0    0  0.00000000000E+00  0.00000000000E+00  0.74505805969E-08  0.10566000000E+00  0.10566000000E+00 0.  1.
     999900   -1    0    0    0    0 -0.00000000000E+00 -0.00000000000E+00 -0.74505805969E-08  0.93827000000E+00  0.93827000000E+00 0. -1.
     999902    2    1    2    0    0 -0.19880923799E-01  0.12129940118E-01  0.35218242176E-03  0.10206381428E+01  0.10203723379E+01 0.  0.
     999903    2    3    3    0    0  0.85930555884E-01 -0.97180864169E-02  0.93742151043E-01  0.12912533207E+00  0.20180655630E-01 0.  0.
         14    1    1    2    0    0  0.19880923799E-01 -0.12129940118E-01 -0.35218242176E-03  0.23291857179E-01  0.00000000000E+00 0.  1.
     999901    1    3    3    0    0 -0.10581147968E+00  0.21848026535E-01 -0.93389968621E-01  0.89151281075E+00  0.88000000000E+00 0. -1.
        -11    1    4    4    0    0  0.52980382455E-01  0.24612870954E-02  0.48742389489E-01  0.72035133882E-01  0.51100000000E-03 0.  1.
         11    1    4    4    0    0  0.32950173428E-01 -0.12179373512E-01  0.44999761554E-01  0.57090198187E-01  0.51100000000E-03 0. -1.
</event>
<event>
 8    1  0.1060404E+005  0.1043930E+01  0.7957747E-01            NaN
         13   -1    0    0    0    0  0.00000000000E+00  0.00000000000E+00  0.74505805969E-08  0.10566000000E+00  0.10566000000E+00 0. -1.
     999900   -1    0    0    0    0 -0.00000000000E+00 -0.00000000000E+00 -0.74505805969E-08  0.93827000000E+00  0.93827000000E+00 0. -1.
     999902    2    1    2    0    0 -0.13305097453E-01 -0.10992845739E-01 -0.16059485917E-01  0.10203551116E+01  0.10200827311E+01 0.  0.
     999903    2    3    3    0    0 -0.28977728181E-01 -0.82166424886E-01  0.94656169078E-01  0.13042856070E+00  0.21465996176E-01 0.  0.
         14    1    1    2    0    0  0.13305097453E-01  0.10992845739E-01  0.16059485917E-01  0.23574888411E-01  0.00000000000E+00 0. -1.
     999901    1    3    3    0    0  0.15672630728E-01  0.71173579147E-01 -0.11071565499E+00  0.88992655089E+00  0.88000000000E+00 0. -1.
        -11    1    4    4    0    0 -0.27849163891E-01 -0.64598653133E-01  0.85029690546E-01  0.11035792365E+00  0.51100000000E-03 0.  1.
         11    1    4    4    0    0 -0.11285642906E-02 -0.17567771753E-01  0.96264785325E-02  0.20070637051E-01  0.51100000000E-03 0. -1.
</event>
<event>
 8    1  0.1060404E+005  0.1043930E+01  0.7957747E-01            NaN
         13   -1    0    0    0    0  0.00000000000E+00  0.00000000000E+00  0.74505805969E-08  0.10566000000E+00  0.10566000000E+00 0.  1.
     999900   -1    0    0    0    0 -0.00000000000E+00 -0.00000000000E+00 -0.74505805969E-08  0.93827000000E+00  0.93827000000E+00 0. -1.
     999902    2    1    2    0    0  0.11143138119E-01 -0.11844874011E-01  0.21088562140E-01  0.10172992279E+01  0.10169505992E+01 0.  0.
     999903    2    3    3    0    0  0.10745606143E+00  0.57636127644E-02  0.71068335221E-01  0.13045977476E+00  0.19723594691E-01 0.  0.
         14    1    1    2    0    0 -0.11143138119E-01  0.11844874011E-01 -0.21088562140E-01  0.26630772062E-01  0.00000000000E+00 0. -1.
     999901    1    3    3    0    0 -0.96312923313E-01 -0.17608486775E-01 -0.49979773082E-01  0.88683945318E+00  0.88000000000E+00 0. -1.
        -11    1    4    4    0    0  0.81921005749E-01  0.89190948615E-02  0.45278380811E-01  0.94026561811E-01  0.51100000000E-03 0.  1.
         11    1    4    4    0    0  0.25535055683E-01 -0.31554820970E-02  0.25789954410E-01  0.36433212945E-01  0.51100000000E-03 0. -1.
</event>
<event>
 8    1  0.1060404E+005  0.1043930E+01  0.7957747E-01            NaN
         13   -1    0    0    0    0  0.00000000000E+00  0.00000000000E+00  0.74505805969E-08  0.10566000000E+00  0.10566000000E+00 0.  1.
     999900   -1    0    0    0    0 -0.00000000000E+00 -0.00000000000E+00 -0.74505805969E-08  0.93827000000E+00  0.93827000000E+00 0. -1.
     999902    2    1    2    0    0 -0.18497311159E-01  0.90480044986E-02  0.11003044388E-01  0.10205829683E+01  0.10203158879E+01 0.  0.
     999903    2    3    3    0    0 -0.84989395001E-01  0.92117877382E-01  0.42503252250E-01  0.13361393605E+00  0.18364554416E-01 0.  0.
         14    1    1    2    0    0  0.18497311159E-01 -0.90480044986E-02 -0.11003044388E-01  0.23347031745E-01  0.00000000000E+00 0. -1.
     999901    1    3    3    0    0  0.66492083843E-01 -0.83069872883E-01 -0.31500207863E-01  0.88696903220E+00  0.88000000000E+00 0. -1.
        -11    1    4    4    0    0 -0.13688829474E-01  0.21311542989E-01  0.14957053749E-01  0.29420069592E-01  0.51100000000E-03 0. -1.
         11    1    4    4    0    0 -0.71300565527E-01  0.70806334393E-01  0.27546198502E-01  0.10419386646E+00  0.51100000000E-03 0.  1.
</event>
<event>
 8    1  0.1060404E+005  0.1043930E+01  0.7957747E-01            NaN
         13   -1    0    0    0    0  0.00000000000E+00  0.00000000000E+00  0.74505805969E-08  0.10566000000E+00  0.10566000000E+00 0.  1.
     999900   -1    0    0    0    0 -0.00000000000E+00 -0.00000000000E+00 -0.74505805969E-08  0.93827000000E+00  0.93827000000E+00 0. -1.
     999902    2    1    2    0    0 -0.88708952860E-02 -0.21140854698E-01  0.37591649073E-02  0.10206972679E+01  0.10204328262E+01 0.  0.
     999903    2    3    3    0    0 -0.99870102319E-01 -0.48580317030E-01 -0.69642021203E-01  0.13254102381E+00  0.19571084171E-01 0.  0.
         14    1    1    2    0    0  0.88708952860E-02  0.21140854698E-01 -0.37591649073E-02  0.23232732111E-01  0.00000000000E+00 0. -1.
     999901    1    3    3    0    0  0.90999207033E-01  0.27439462332E-01  0.73401186110E-01  0.88815624408E+00  0.88000000000E+00 0.  1.
        -11    1    4    4    0    0 -0.17490957348E-01 -0.17188918915E-01 -0.13094349572E-01  0.27804957006E-01  0.51100000000E-03 0.  1.
         11    1    4    4    0    0 -0.82379144971E-01 -0.31391398115E-01 -0.56547671631E-01  0.10473606680E+00  0.51100000000E-03 0. -1.
</event>
<event>
 8    1  0.1060404E+005  0.1043930E+01  0.7957747E-01            NaN
         13   -1    0    0    0    0  0.00000000000E+00  0.00000000000E+00  0.74505805969E-08  0.10566000000E+00  0.10566000000E+00 0.  1.
     999900   -1    0    0    0    0 -0.00000000000E+00 -0.00000000000E+00 -0.74505805969E-08  0.93827000000E+00  0.93827000000E+00 0.  1.
     999902    2    1    2    0    0  0.17575868472E-01 -0.10364266890E-02 -0.12101203872E-01  0.10225659070E+01  0.10223427066E+01 0.  0.
     999903    2    3    3    0    0  0.79819657686E-01  0.33833782599E-01  0.98580216465E-01  0.13276784141E+00  0.19832751610E-01 0.  0.
         14    1    1    2    0    0 -0.17575868472E-01  0.10364266890E-02  0.12101203872E-01  0.21364092959E-01  0.00000000000E+00 0.  1.
     999901    1    3    3    0    0 -0.62243789214E-01 -0.34870209288E-01 -0.11068142034E+00  0.88979806563E+00  0.88000000000E+00 0.  1.
        -11    1    4    4    0    0  0.60284085942E-01  0.17908862209E-01  0.61759157799E-01  0.88143933748E-01  0.51100000000E-03 0.  1.
         11    1    4    4    0    0  0.19535571744E-01  0.15924920390E-01  0.36821058666E-01  0.44623907662E-01  0.51100000000E-03 0. -1.
</event>
<event>
 8    1  0.1060404E+005  0.1043930E+01  0.7957747E-01            NaN
         13   -1    0    0    0    0  0.00000000000E+00  0.00000000000E+00  0.74505805969E-08  0.10566000000E+00  0.10566000000E+00 0.  1.
     999900   -1    0    0    0    0 -0.00000000000E+00 -0.00000000000E+00 -0.74505805969E-08  0.93827000000E+00  0.93827000000E+00 0. -1.
     999902    2    1    2    0    0 -0.68190064447E-02 -0.11978273640E-01  0.20079695216E-01  0.10195748763E+01  0.10192839430E+01 0.  0.
     999903    2    3    3    0    0 -0.11283407439E+00  0.45282393166E-01  0.44543241524E-01  0.13102749793E+00  0.20051966828E-01 0.  0.
         14    1    1    2    0    0  0.68190064447E-02  0.11978273640E-01 -0.20079695216E-01  0.24355123656E-01  0.00000000000E+00 0.  1.
     999901    1    3    3    0    0  0.10601506794E+00 -0.57260666807E-01 -0.24463546308E-01  0.88854737842E+00  0.88000000000E+00 0. -1.
        -11    1    4    4    0    0 -0.78226177192E-01  0.21560659808E-01  0.32071164506E-01  0.87252607773E-01  0.51100000000E-03 0.  1.
         11    1    4    4    0    0 -0.34607897196E-01  0.23721733358E-01  0.12472077019E-01  0.43774890154E-01  0.51100000000E-03 0. -1.
</event>
<event>
 8    1  0.1060404E+005  0.1043930E+01  0.7957747E-01            NaN
         13   -1    0    0    0    0  0.00000000000E+00  0.00000000000E+00  0.74505805969E-08  0.10566000000E+00  0.10566000000E+00 0. -1.
     999900   -1    0    0    0    0 -0.00000000000E+00 -0.00000000000E+00 -0.74505805969E-08  0.93827000000E+00  0.93827000000E+00 0.  1.
     999902    2    1    2    0    0  0.19881578864E-01  0.12700981540E-01 -0.33954550489E-02  0.10200947063E+01  0.10198162034E+01 0.  0.
     999903    2    3    3    0    0 -0.11850356087E+00  0.39394709614E-01  0.24156458555E-01  0.12845458274E+00  0.17944588378E-01 0.  0.
         14    1    1    2    0    0 -0.19881578864E-01 -0.12700981540E-01  0.33954550489E-02  0.23835293688E-01  0.00000000000E+00 0. -1.
     999901    1    3    3    0    0  0.13838513974E+00 -0.26693728074E-01 -0.27551913604E-01  0.89164012357E+00  0.88000000000E+00 0. -1.
        -11    1    4    4    0    0 -0.15032402585E-01  0.11671212614E-01  0.39387865492E-02  0.19441334621E-01  0.51100000000E-03 0. -1.
         11    1    4    4    0    0 -0.10347115829E+00  0.27723497000E-01  0.20217672006E-01  0.10901324812E+00  0.51100000000E-03 0.  1.
</event>
<event>
 8    1  0.1060404E+005  0.1043930E+01  0.7957747E-01            NaN
         13   -1    0    0    0    0  0.00000000000E+00  0.00000000000E+00  0.74505805969E-08  0.10566000000E+00  0.10566000000E+00 0. -1.
     999900   -1    0    0    0    0 -0.00000000000E+00 -0.00000000000E+00 -0.74505805969E-08  0.93827000000E+00  0.93827000000E+00 0.  1.
     999902    2    1    2    0    0  0.22613768301E-01 -0.27642009620E-02 -0.42407726566E-02  0.10207565782E+01  0.10204935005E+01 0.  0.
     999903    2    3    3    0    0  0.67034100270E-02 -0.10955585785E+00 -0.70223679362E-01  0.13170576897E+00  0.19173490584E-01 0.  0.
         14    1    1    2    0    0 -0.22613768301E-01  0.27642009620E-02  0.42407726566E-02  0.23173421768E-01  0.00000000000E+00 0.  1.
     999901    1    3    3    0    0  0.15910358274E-01  0.10679165688E+00  0.65982906705E-01  0.88905080927E+00  0.88000000000E+00 0.  1.
        -11    1    4    4    0    0 -0.31235952616E-02 -0.47735025890E-01 -0.21846890421E-01  0.52592178945E-01  0.51100000000E-03 0. -1.
         11    1    4    4    0    0  0.98270052886E-02 -0.61820831956E-01 -0.48376788941E-01  0.79113590020E-01  0.51100000000E-03 0.  1.
</event>
<event>
 8    1  0.1060404E+005  0.1043930E+01  0.7957747E-01            NaN
         13   -1    0    0    0    0  0.00000000000E+00  0.00000000000E+00  0.74505805969E-08  0.10566000000E+00  0.10566000000E+00 0.  1.
     999900   -1    0    0    0    0 -0.00000000000E+00 -0.00000000000E+00 -0.74505805969E-08  0.93827000000E+00  0.93827000000E+00 0.  1.
     999902    2    1    2    0    0 -0.12189342382E-01 -0.19284658952E-01 -0.10507935203E-01  0.10188123799E+01  0.10185027101E+01 0.  0.
     999903    2    3    3    0    0  0.84818409507E-01 -0.42003934631E-01  0.84011034774E-01  0.12816064934E+00  0.20218925790E-01 0.  0.
         14    1    1    2    0    0  0.12189342382E-01  0.19284658952E-01  0.10507935203E-01  0.25117620126E-01  0.00000000000E+00 0.  1.
     999901    1    3    3    0    0 -0.97007751889E-01  0.22719275679E-01 -0.94518969977E-01  0.89065173053E+00  0.88000000000E+00 0.  1.
        -11    1    4    4    0    0  0.60134220843E-01 -0.26400530516E-01  0.45813757565E-01  0.80076675950E-01  0.51100000000E-03 0.  1.
         11    1    4    4    0    0  0.24684188664E-01 -0.15603404115E-01  0.38197277209E-01  0.48083973392E-01  0.51100000000E-03 0. -1.
</event>
<event>
 8    1  0.1060404E+005  0.1043930E+01  0.7957747E-01            NaN
         13   -1    0    0    0    0  0.00000000000E+00  0.00000000000E+00  0.74505805969E-08  0.10566000000E+00  0.10566000000E+00 0.  1.
     999900   -1    0    0    0    0 -0.00000000000E+00 -0.00000000000E+00 -0.74505805969E-08  0.93827000000E+00  0.93827000000E+00 0.  1.
     999902    2    1    2    0    0 -0.14192938500E-01  0.95702619914E-02 -0.17062809088E-01  0.10197604143E+01  0.10194739495E+01 0.  0.
     999903    2    3    3    0    0 -0.85702201877E-01  0.64658537838E-01 -0.76037042876E-01  0.13317919800E+00  0.20723729604E-01 0.  0.
         14    1    1    2    0    0  0.14192938500E-01 -0.95702619914E-02  0.17062809088E-01  0.24169585678E-01  0.00000000000E+00 0.  1.
     999901    1    3    3    0    0  0.71509263377E-01 -0.55088275846E-01  0.58974233787E-01  0.88658121632E+00  0.88000000000E+00 0. -1.
        -11    1    4    4    0    0 -0.66491056034E-01  0.58919368466E-01 -0.66484236786E-01  0.11096381111E+00  0.51100000000E-03 0. -1.
         11    1    4    4    0    0 -0.19211145844E-01  0.57391693716E-02 -0.95528060894E-02  0.22215386895E-01  0.51100000000E-03 0.  1.
</event>
<event>
 8    1  0.1060404E+005  0.1043930E+01  0.7957747E-01            NaN
         13   -1    0    0    0    0  0.00000000000E+00  0.00000000000E+00  0.74505805969E-08  0.10566000000E+00  0.10566000000E+00 0.  1.
     999900   -1    0    0    0    0 -0.00000000000E+00 -0.00000000000E+00 -0.74505805969E-08  0.93827000000E+00  0.93827000000E+00 0.  1.
     999902    2    1    2    0    0 -0.22701536988E-01  0.45986031779E-02 -0.22362160011E-02  0.10206596843E+01  0.10203943764E+01 0.  0.
     999903    2    3    3    0    0  0.12571753463E+00  0.13111907915E-01  0.11266586484E-01  0.12808866588E+00  0.17405450668E-01 0.  0.
         14    1    1    2    0    0  0.22701536988E-01 -0.45986031779E-02  0.22362160011E-02  0.23270315744E-01  0.00000000000E+00 0.  1.
     999901    1    3    3    0    0 -0.14841907162E+00 -0.85133047372E-02 -0.13502802485E-01  0.89257101838E+00  0.88000000000E+00 0.  1.
        -11    1    4    4    0    0  0.61326078726E-01 -0.16335817699E-02  0.20080542792E-02  0.61382814568E-01  0.51100000000E-03 0. -1.
         11    1    4    4    0    0  0.64391455902E-01  0.14745489685E-01  0.92585322045E-02  0.66705851309E-01  0.51100000000E-03 0.  1.
</event>
<event>
 8    1  0.1060404E+005  0.1043930E+01  0.7957747E-01            NaN
         13   -1    0    0    0    0  0.00000000000E+00  0.00000000000E+00  0.74505805969E-08  0.10566000000E+00  0.10566000000E+00 0. -1.
     999900   -1    0    0    0    0 -0.00000000000E+00 -0.00000000000E+00 -0.74505805969E-08  0.93827000000E+00  0.93827000000E+00 0. -1.
     999902    2    1    2    0    0  0.31197200649E-02  0.22417564508E-01 -0.64111287671E-02  0.10204059182E+01  0.10201347242E+01 0.  0.
     999903    2    3    3    0    0  0.68938813806E-01 -0.78831434480E-01  0.72067902461E-01  0.12869830288E+00  0.20062788665E-01 0.  0.
         14    1    1    2    0    0 -0.31197200649E-02 -0.22417564508E-01  0.64111287671E-02  0.23524081785E-01  0.00000000000E+00 0. -1.
     999901    1    3    3    0    0 -0.65819093741E-01  0.10124899899E+00 -0.78479031228E-01  0.89170761533E+00  0.88000000000E+00 0.  1.
        -11    1    4    4    0    0  0.32538780152E-01 -0.45389137467E-01  0.28005262075E-01  0.62478010841E-01  0.51100000000E-03 0.  1.
         11    1    4    4    0    0  0.36400033655E-01 -0.33442297013E-01  0.44062640386E-01  0.66220292044E-01  0.51100000000E-03 0. -1.
</event>
<event>
 8    1  0.1060404E+005  0.1043930E+01  0.7957747E-01            NaN
         13   -1    0    0    0    0  0.00000000000E+00  0.00000000000E+00  0.74505805969E-08  0.10566000000E+00  0.10566000000E+00 0.  1.
     999900   -1    0    0    0    0 -0.00000000000E+00 -0.00000000000E+00 -0.74505805969E-08  0.93827000000E+00  0.93827000000E+00 0. -1.
     999902    2    1    2    0    0  0.14444161509E-01 -0.14517237475E-01 -0.11038503035E-01  0.10206655951E+01  0.10204004236E+01 0.  0.
     999903    2    3    3    0    0 -0.12146869018E+00 -0.38464122944E-01 -0.14934942703E-01  0.12990135087E+00  0.20424911188E-01 0.  0.
         14    1    1    2    0    0 -0.14444161509E-01  0.14517237475E-01  0.11038503035E-01  0.23264404889E-01  0.00000000000E+00 0.  1.
     999901    1    3    3    0    0  0.13591285169E+00  0.23946885470E-01  0.38964396678E-02  0.89076424424E+00  0.88000000000E+00 0. -1.
        -11    1    4    4    0    0 -0.98992682749E-01 -0.30431596447E-01 -0.20042462148E-01  0.10548741494E+00  0.51100000000E-03 0. -1.
         11    1    4    4    0    0 -0.22476007428E-01 -0.80325264974E-02  0.51075194456E-02  0.24413935932E-01  0.51100000000E-03 0.  1.
</event>
<event>
 8    1  0.1060404E+005  0.1043930E+01  0.7957747E-01            NaN
         13   -1    0    0    0    0  0.00000000000E+00  0.00000000000E+00  0.74505805969E-08  0.10566000000E+00  0.10566000000E+00 0. -1.
     999900   -1    0    0    0    0 -0.00000000000E+00 -0.00000000000E+00 -0.74505805969E-08  0.93827000000E+00  0.93827000000E+00 0. -1.
     999902    2    1    2    0    0  0.15928951970E-01 -0.30955696520E-02 -0.15959728025E-01  0.10211697939E+01  0.10209161185E+01 0.  0.
     999903    2    3    3    0    0 -0.14994920728E-01 -0.79793183329E-01 -0.10344116630E+00  0.13297397548E+00  0.19753569701E-01 0.  0.
         14    1    1    2    0    0 -0.15928951970E-01  0.30955696520E-02  0.15959728025E-01  0.22760206084E-01  0.00000000000E+00 0. -1.
     999901    1    3    3    0    0  0.30923872698E-01  0.76697613677E-01  0.87481438274E-01  0.88819581844E+00  0.88000000000E+00 0.  1.
        -11    1    4    4    0    0 -0.11197406684E-01 -0.15391892317E-01 -0.23993734070E-01  0.30630910224E-01  0.51100000000E-03 0.  1.
         11    1    4    4    0    0 -0.37975140438E-02 -0.64401291013E-01 -0.79447432229E-01  0.10234306525E+00  0.51100000000E-03 0. -1.
</event>
<event>
 8    1  0.1060404E+005  0.1043930E+01  0.7957747E-01            NaN
         13   -1    0    0    0    0  0.00000000000E+00  0.00000000000E+00  0.74505805969E-08  0.10566000000E+00  0.10566000000E+00 0.  1.
     999900   -1    0    0    0    0 -0.00000000000E+00 -0.00000000000E+00 -0.74505805969E-08  0.93827000000E+00  0.93827000000E+00 0.  1.
     999902    2    1    2    0    0  0.17510594985E-01  0.81395768984E-02 -0.14375136125E-01  0.10198568160E+01  0.10195726590E+01 0.  0.
     999903    2    3    3    0    0 -0.12643109062E+00 -0.47456365323E-02 -0.58846166093E-02  0.12802873476E+00  0.18691882483E-01 0.  0.
         14    1    1    2    0    0 -0.17510594985E-01 -0.81395768984E-02  0.14375136125E-01  0.24073183990E-01  0.00000000000E+00 0.  1.
     999901    1    3    3    0    0  0.14394168561E+00  0.12885213431E-01 -0.84905195154E-02  0.89182808125E+00  0.88000000000E+00 0. -1.
        -11    1    4    4    0    0 -0.97730702162E-02 -0.47701079874E-02  0.21344108042E-02  0.11094307646E-01  0.51100000000E-03 0.  1.
         11    1    4    4    0    0 -0.11665802040E+00  0.24471455086E-04 -0.80190274135E-02  0.11693442712E+00  0.51100000000E-03 0. -1.
</event>
<event>
 8    1  0.1060404E+005  0.1043930E+01  0.7957747E-01            NaN
         13   -1    0    0    0    0  0.00000000000E+00  0.00000000000E+00  0.74505805969E-08  0.10566000000E+00  0.10566000000E+00 0. -1.
     999900   -1    0    0    0    0 -0.00000000000E+00 -0.00000000000E+00 -0.74505805969E-08  0.93827000000E+00  0.93827000000E+00 0.  1.
     999902    2    1    2    0    0 -0.23208633675E-01  0.94785075380E-02 -0.76517917302E-02  0.10177186914E+01  0.10173810997E+01 0.  0.
     999903    2    3    3    0    0  0.12090241450E+00  0.28745659637E-01 -0.89076872939E-02  0.12578775537E+00  0.17306233782E-01 0.  0.
         14    1    1    2    0    0  0.23208633675E-01 -0.94785075380E-02  0.76517917302E-02  0.26211308607E-01  0.00000000000E+00 0.  1.
     999901    1    3    3    0    0 -0.14411104818E+00 -0.19267152099E-01  0.12558955636E-02  0.89193093602E+00  0.88000000000E+00 0. -1.
        -11    1    4    4    0    0  0.89144029660E-01  0.22218445473E-01 -0.14100410875E-01  0.92948373042E-01  0.51100000000E-03 0.  1.
         11    1    4    4    0    0  0.31758384845E-01  0.65272141642E-02  0.51927235811E-02  0.32839382331E-01  0.51100000000E-03 0. -1.
</event>
<event>
 8    1  0.1060404E+005  0.1043930E+01  0.7957747E-01            NaN
         13   -1    0    0    0    0  0.00000000000E+00  0.00000000000E+00  0.74505805969E-08  0.10566000000E+00  0.10566000000E+00 0.  1.
     999900   -1    0    0    0    0 -0.00000000000E+00 -0.00000000000E+00 -0.74505805969E-08  0.93827000000E+00  0.93827000000E+00 0. -1.
     999902    2    1    2    0    0 -0.17138791285E-01 -0.83376326091E-02 -0.92646709852E-02  0.10227382938E+01  0.10225187182E+01 0.  0.
     999903    2    3    3    0    0 -0.10264269291E+00  0.39156869123E-01 -0.75612393580E-01  0.13483702382E+00  0.19874760967E-01 0.  0.
         14    1    1    2    0    0  0.17138791285E-01  0.83376326091E-02  0.92646709852E-02  0.21191706224E-01  0.00000000000E+00 0.  1.
     999901    1    3    3    0    0  0.85503901625E-01 -0.47494501732E-01  0.66347722595E-01  0.88790126995E+00  0.88000000000E+00 0. -1.
        -11    1    4    4    0    0 -0.10530318388E-01  0.70506827241E-02 -0.24915214240E-02  0.12925499303E-01  0.51100000000E-03 0.  1.
         11    1    4    4    0    0 -0.92112374522E-01  0.32106186399E-01 -0.73120872156E-01  0.12191152452E+00  0.51100000000E-03 0. -1.
</event>
<event>
 8    1  0.1060404E+005  0.1043930E+01  0.7957747E-01            NaN
         13   -1    0    0    0    0  0.00000000000E+00  0.00000000000E+00  0.74505805969E-08  0.10566000000E+00  0.10566000000E+00 0. -1.
     999900   -1    0    0    0    0 -0.00000000000E+00 -0.00000000000E+00 -0.74505805969E-08  0.93827000000E+00  0.93827000000E+00 0.  1.
     999902    2    1    2    0    0 -0.12416069674E-01  0.18144907955E-01 -0.89120243149E-02  0.10202061587E+01  0.10199302846E+01 0.  0.
     999903    2    3    3    0    0 -0.11806200565E+00  0.27447442051E-01  0.46805413431E-01  0.13208903023E+00  0.23764804410E-01 0.  0.
         14    1    1    2    0    0  0.12416069674E-01 -0.18144907955E-01  0.89120243149E-02  0.23723841346E-01  0.00000000000E+00 0.  1.
     999901    1    3    3    0    0  0.10564593597E+00 -0.93025340958E-02 -0.55717437746E-01  0.88811712842E+00  0.88000000000E+00 0.  1.
        -11    1    4    4    0    0 -0.11226943949E+00  0.22441609301E-01  0.48315985462E-01  0.12426885549E+00  0.51100000000E-03 0.  1.
         11    1    4    4    0    0 -0.57925661540E-02  0.50058327502E-02 -0.15105720307E-02  0.78201747443E-02  0.51100000000E-03 0. -1.
</event>
<event>
 7    1  0.1060404E+005  0.1043930E+01  0.7957747E-01            NaN
         13   -1    0    0    0    0  0.00000000000E+00  0.00000000000E+00  0.74505805969E-08  0.10566000000E+00  0.10566000000E+00 0.  1.
     999900   -1    0    0    0    0 -0.00000000000E+00 -0.00000000000E+00 -0.74505805969E-08  0.93827000000E+00  0.93827000000E+00 0.  1.
     999903    2    1    2    0    0  0.56443539356E-01 -0.50911856459E-01  0.75265684023E-03  0.78595510398E-01  0.19969914853E-01 0.  0.
         14    1    1    2    0    0 -0.60532612032E-01 -0.45185274444E-01  0.25439667977E-01  0.79706228444E-01  0.00000000000E+00 0.  1.
     999901    1    1    2    0    0  0.40890726756E-02  0.96097130903E-01 -0.26192324817E-01  0.88562826116E+00  0.88000000000E+00 0. -1.
        -11    1    3    3    0    0  0.11711880962E-01 -0.13830692598E-01  0.84135474570E-02  0.19987624051E-01  0.51100000000E-03 0. -1.
         11    1    3    3    0    0  0.44731658394E-01 -0.37081163861E-01 -0.76608906168E-02  0.58607886347E-01  0.51100000000E-03 0.  1.
</event>
<event>
 8    1  0.1060404E+005  0.1043930E+01  0.7957747E-01            NaN
         13   -1    0    0    0    0  0.00000000000E+00  0.00000000000E+00  0.74505805969E-08  0.10566000000E+00  0.10566000000E+00 0.  1.
     999900   -1    0    0    0    0 -0.00000000000E+00 -0.00000000000E+00 -0.74505805969E-08  0.93827000000E+00  0.93827000000E+00 0. -1.
     999902    2    1    2    0    0  0.18048282786E-01 -0.90769869414E-02  0.10987231622E-01  0.10209332293E+01  0.10206741925E+01 0.  0.
     999903    2    3    3    0    0  0.11575420608E+00 -0.61837152220E-01  0.18127933906E-01  0.13392642431E+00  0.19616205547E-01 0.  0.
         14    1    1    2    0    0 -0.18048282786E-01  0.90769869414E-02 -0.10987231622E-01  0.22996770690E-01  0.00000000000E+00 0.  1.
     999901    1    3    3    0    0 -0.97705923297E-01  0.52760165279E-01 -0.71407022840E-02  0.88700680500E+00  0.88000000000E+00 0. -1.
        -11    1    4    4    0    0  0.79746583608E-01 -0.52053011436E-01  0.15824631245E-01  0.96538664129E-01  0.51100000000E-03 0.  1.
         11    1    4    4    0    0  0.36007622475E-01 -0.97841407837E-02  0.23033026609E-02  0.37387760181E-01  0.51100000000E-03 0. -1.
</event>
<event>
 8    1  0.1060404E+005  0.1043930E+01  0.7957747E-01            NaN
         13   -1    0    0    0    0  0.00000000000E+00  0.00000000000E+00  0.74505805969E-08  0.10566000000E+00  0.10566000000E+00 0. -1.
     999900   -1    0    0    0    0 -0.00000000000E+00 -0.00000000000E+00 -0.74505805969E-08  0.93827000000E+00  0.93827000000E+00 0. -1.
     999902    2    1    2    0    0 -0.15473585501E-01 -0.17068302982E-01 -0.39381790584E-02  0.10205576217E+01  0.10202899544E+01 0.  0.
     999903    2    3    3    0    0  0.86236248644E-01 -0.94151096986E-01 -0.22416665099E-01  0.13116001545E+00  0.19983071183E-01 0.  0.
         14    1    1    2    0    0  0.15473585501E-01  0.17068302982E-01  0.39381790584E-02  0.23372378339E-01  0.00000000000E+00 0.  1.
     999901    1    3    3    0    0 -0.10170983414E+00  0.77082794004E-01  0.18478486041E-01  0.88939760621E+00  0.88000000000E+00 0. -1.
        -11    1    4    4    0    0  0.64084854745E-01 -0.76308772638E-01 -0.24557380178E-01  0.10263149337E+00  0.51100000000E-03 0.  1.
         11    1    4    4    0    0  0.22151393899E-01 -0.17842324348E-01  0.21407150787E-02  0.28528522076E-01  0.51100000000E-03 0. -1.
</event>
<event>
 8    1  0.1060404E+005  0.1043930E+01  0.7957747E-01            NaN
         13   -1    0    0    0    0  0.00000000000E+00  0.00000000000E+00  0.74505805969E-08  0.10566000000E+00  0.10566000000E+00 0. -1.
     999900   -1    0    0    0    0 -0.00000000000E+00 -0.00000000000E+00 -0.74505805969E-08  0.93827000000E+00  0.93827000000E+00 0. -1.
     999902    2    1    2    0    0  0.26639464983E-02 -0.66641159252E-02 -0.23080908754E-01  0.10197590381E+01  0.10194725402E+01 0.  0.
     999903    2    3    3    0    0 -0.27528754375E-01 -0.65507627607E-01 -0.11058747627E+00  0.13294927413E+00  0.19920792961E-01 0.  0.
         14    1    1    2    0    0 -0.26639464983E-02  0.66641159252E-02  0.23080908754E-01  0.24170961937E-01  0.00000000000E+00 0. -1.
     999901    1    3    3    0    0  0.30192700873E-01  0.58843511682E-01  0.87506567512E-01  0.88680976394E+00  0.88000000000E+00 0.  1.
        -11    1    4    4    0    0 -0.30358985829E-01 -0.54192397018E-01 -0.93501288793E-01  0.11225522724E+00  0.51100000000E-03 0. -1.
         11    1    4    4    0    0  0.28302314538E-02 -0.11315230590E-01 -0.17086187473E-01  0.20694046891E-01  0.51100000000E-03 0.  1.
</event>
<event>
 8    1  0.1060404E+005  0.1043930E+01  0.7957747E-01            NaN
         13   -1    0    0    0    0  0.00000000000E+00  0.00000000000E+00  0.74505805969E-08  0.10566000000E+00  0.10566000000E+00 0. -1.
     999900   -1    0    0    0    0 -0.00000000000E+00 -0.00000000000E+00 -0.74505805969E-08  0.93827000000E+00  0.93827000000E+00 0.  1.
     999902    2    1    2    0    0 -0.95423361212E-02 -0.90338953800E-02  0.19542984686E-01  0.10203801445E+01  0.10201083489E+01 0.  0.
     999903    2    3    3    0    0 -0.86479026990E-01  0.33623284442E-01 -0.87962720630E-01  0.12948376102E+00  0.20480644073E-01 0.  0.
         14    1    1    2    0    0  0.95423361212E-02  0.90338953800E-02 -0.19542984686E-01  0.23549855516E-01  0.00000000000E+00 0.  1.
     999901    1    3    3    0    0  0.76936690869E-01 -0.42657179822E-01  0.10750570532E+00  0.89089638346E+00  0.88000000000E+00 0. -1.
        -11    1    4    4    0    0 -0.68532639263E-01  0.24746096822E-01 -0.56574007201E-01  0.92249506037E-01  0.51100000000E-03 0.  1.
         11    1    4    4    0    0 -0.17946387728E-01  0.88771876193E-02 -0.31388713429E-01  0.37234254984E-01  0.51100000000E-03 0. -1.
</event>
<event>
 8    1  0.1060404E+005  0.1043930E+01  0.7957747E-01            NaN
         13   -1    0    0    0    0  0.00000000000E+00  0.00000000000E+00  0.74505805969E-08  0.10566000000E+00  0.10566000000E+00 0. -1.
     999900   -1    0    0    0    0 -0.00000000000E+00 -0.00000000000E+00 -0.74505805969E-08  0.93827000000E+00  0.93827000000E+00 0.  1.
     999902    2    1    2    0    0  0.14136917057E-02  0.35519361655E-02 -0.23331052382E-01  0.10202878178E+01  0.10200138618E+01 0.  0.
     999903    2    3    3    0    0 -0.10369258691E+00 -0.69914800444E-01 -0.33343573085E-01  0.13093696364E+00  0.19810670872E-01 0.  0.
         14    1    1    2    0    0 -0.14136917057E-02 -0.35519361655E-02  0.23331052382E-01  0.23642182218E-01  0.00000000000E+00 0. -1.
     999901    1    3    3    0    0  0.10510627861E+00  0.73466736609E-01  0.10012520703E-01  0.88935085414E+00  0.88000000000E+00 0. -1.
        -11    1    4    4    0    0 -0.74961436767E-01 -0.51706231362E-01 -0.15017798754E-01  0.92295973716E-01  0.51100000000E-03 0. -1.
         11    1    4    4    0    0 -0.28731150141E-01 -0.18208569082E-01 -0.18325774332E-01  0.38640989924E-01  0.51100000000E-03 0.  1.
</event>
<event>
 8    1  0.1060404E+005  0.1043930E+01  0.7957747E-01            NaN
         13   -1    0    0    0    0  0.00000000000E+00  0.00000000000E+00  0.74505805969E-08  0.10566000000E+00  0.10566000000E+00 0. -1.
     999900   -1    0    0    0    0 -0.00000000000E+00 -0.00000000000E+00 -0.74505805969E-08  0.93827000000E+00  0.93827000000E+00 0.  1.
     999902    2    1    2    0    0  0.87939502841E-02 -0.18589445405E-01 -0.22706158438E-01  0.10132955313E+01  0.10128323470E+01 0.  0.
     999903    2    3    3    0    0  0.10230841073E+00 -0.31431121945E-01  0.60091751875E-01  0.12438307389E+00  0.20129681905E-01 0.  0.
         14    1    1    2    0    0 -0.87939502841E-02  0.18589445405E-01  0.22706158438E-01  0.30634468709E-01  0.00000000000E+00 0. -1.
     999901    1    3    3    0    0 -0.93514460450E-01  0.12841676541E-01 -0.82797910312E-01  0.88891245740E+00  0.88000000000E+00 0.  1.
        -11    1    4    4    0    0  0.89399259772E-02 -0.56274621282E-02  0.36886686494E-03  0.10582428372E-01  0.51100000000E-03 0.  1.
         11    1    4    4    0    0  0.93368484757E-01 -0.25803659817E-01  0.59722885010E-01  0.11380064552E+00  0.51100000000E-03 0. -1.
</event>
<event>
 8    1  0.1060404E+005  0.1043930E+01  0.7957747E-01            NaN
         13   -1    0    0    0    0  0.00000000000E+00  0.00000000000E+00  0.74505805969E-08  0.10566000000E+00  0.10566000000E+00 0. -1.
     999900   -1    0    0    0    0 -0.00000000000E+00 -0.00000000000E+00 -0.74505805969E-08  0.93827000000E+00  0.93827000000E+00 0. -1.
     999902    2    1    2    0    0  0.14912357306E-01 -0.16335195064E-01  0.32832597968E-02  0.10215693919E+01  0.10213246427E+01 0.  0.
     999903    2    3    3    0    0 -0.12040016920E+00  0.34235473978E-01  0.26338048844E-01  0.12949406120E+00  0.20168060084E-01 0.  0.
         14    1    1    2    0    0 -0.14912357306E-01  0.16335195064E-01 -0.32832597968E-02  0.22360608066E-01  0.00000000000E+00 0.  1.
     999901    1    3    3    0    0  0.13531252651E+00 -0.50570669041E-01 -0.23054789048E-01  0.89207533073E+00  0.88000000000E+00 0. -1.
        -11    1    4    4    0    0 -0.10793108969E+00  0.28515374894E-01  0.29371683373E-01  0.11543484584E+00  0.51100000000E-03 0. -1.
         11    1    4    4    0    0 -0.12469079510E-01  0.57200990835E-02 -0.30336345284E-02  0.14059215369E-01  0.51100000000E-03 0.  1.
</event>
<event>
 8    1  0.1060404E+005  0.1043930E+01  0.7957747E-01            NaN
         13   -1    0    0    0    0  0.00000000000E+00  0.00000000000E+00  0.74505805969E-08  0.10566000000E+00  0.10566000000E+00 0. -1.
     999900   -1    0    0    0    0 -0.00000000000E+00 -0.00000000000E+00 -0.74505805969E-08  0.93827000000E+00  0.93827000000E+00 0. -1.
     999902    2    1    2    0    0  0.16423558103E-01  0.46150532526E-02  0.15654518158E-01  0.10207762548E+01  0.10205136288E+01 0.  0.
     999903    2    3    3    0    0 -0.24504609490E-01  0.12733843736E+00  0.15305370515E-02  0.13120577939E+00  0.19926376621E-01 0.  0.
         14    1    1    2    0    0 -0.16423558103E-01 -0.46150532526E-02 -0.15654518158E-01  0.23153745185E-01  0.00000000000E+00 0.  1.
     999901    1    3    3    0    0  0.40928167593E-01 -0.12272338411E+00  0.14123981107E-01  0.88957047543E+00  0.88000000000E+00 0. -1.
        -11    1    4    4    0    0 -0.26103455612E-01  0.88722232488E-01 -0.73313733070E-03  0.92486883091E-01  0.51100000000E-03 0.  1.
         11    1    4    4    0    0  0.15988461222E-02  0.38616204873E-01  0.22636743822E-02  0.38718896297E-01  0.51100000000E-03 0. -1.
</event>
<event>
 8    1  0.1060404E+005  0.1043930E+01  0.7957747E-01            NaN
         13   -1    0    0    0    0  0.00000000000E+00  0.00000000000E+00  0.74505805969E-08  0.10566000000E+00  0.10566000000E+00 0. -1.
     999900   -1    0    0    0    0 -0.00000000000E+00 -0.00000000000E+00 -0.74505805969E-08  0.93827000000E+00  0.93827000000E+00 0. -1.
     999902    2    1    2    0    0  0.25748796474E-02  0.33857037502E-02 -0.21805471253E-01  0.10217135293E+01  0.10214719596E+01 0.  0.
     999903    2    3    3    0    0 -0.98295457394E-01 -0.80091908608E-01 -0.30741731573E-01  0.13198143847E+00  0.19933270444E-01 0.  0.
         14    1    1    2    0    0 -0.25748796474E-02 -0.33857037502E-02  0.21805471253E-01  0.22216470729E-01  0.00000000000E+00 0. -1.
     999901    1    3    3    0    0  0.10087033704E+00  0.83477612359E-01  0.89362603202E-02  0.88973209081E+00  0.88000000000E+00 0. -1.
        -11    1    4    4    0    0 -0.69389998544E-01 -0.44784116016E-01 -0.16957067231E-01  0.84311281543E-01  0.51100000000E-03 0. -1.
         11    1    4    4    0    0 -0.28905458850E-01 -0.35307792592E-01 -0.13784664342E-01  0.47670156923E-01  0.51100000000E-03 0.  1.
</event>
<event>
 8    1  0.1060404E+005  0.1043930E+01  0.7957747E-01            NaN
         13   -1    0    0    0    0  0.00000000000E+00  0.00000000000E+00  0.74505805969E-08  0.10566000000E+00  0.10566000000E+00 0.  1.
     999900   -1    0    0    0    0 -0.00000000000E+00 -0.00000000000E+00 -0.74505805969E-08  0.93827000000E+00  0.93827000000E+00 0. -1.
     999902    2    1    2    0    0  0.65188527034E-02  0.12221870763E-01 -0.14313454233E-01  0.10240115528E+01  0.10238178138E+01 0.  0.
     999903    2    3    3    0    0  0.88298668905E-02  0.29852596229E-01 -0.13087199735E+00  0.13614778105E+00  0.20966510089E-01 0.  0.
         14    1    1    2    0    0 -0.65188527034E-02 -0.12221870763E-01  0.14313454233E-01  0.19918447168E-01  0.00000000000E+00 0.  1.
     999901    1    3    3    0    0 -0.23110141871E-02 -0.17630725466E-01  0.11655854311E+00  0.88786377178E+00  0.88000000000E+00 0.  1.
        -11    1    4    4    0    0  0.17245085332E-02 -0.22849073423E-02 -0.27689222587E-01  0.27841496003E-01  0.51100000000E-03 0. -1.
         11    1    4    4    0    0  0.71053583573E-02  0.32137503571E-01 -0.10318277476E+00  0.10830628505E+00  0.51100000000E-03 0.  1.
</event>
<event>
 8    1  0.1060404E+005  0.1043930E+01  0.7957747E-01            NaN
         13   -1    0    0    0    0  0.00000000000E+00  0.00000000000E+00  0.74505805969E-08  0.10566000000E+00  0.10566000000E+00 0. -1.
     999900   -1    0    0    0    0 -0.00000000000E+00 -0.00000000000E+00 -0.74505805969E-08  0.93827000000E+00  0.93827000000E+00 0.  1.
     999902    2    1    2    0    0 -0.68990921890E-02 -0.21939654118E-01  0.67376668594E-02  0.10199645655E+01  0.10196829766E+01 0.  0.
     999903    2    3    3    0    0  0.77182056159E-01  0.17377973688E-01 -0.99818802159E-01  0.12869031116E+00  0.18393997942E-01 0.  0.
         14    1    1    2    0    0  0.68990921890E-02  0.21939654118E-01 -0.67376668594E-02  0.23965434495E-01  0.00000000000E+00 0. -1.
     999901    1    3    3    0    0 -0.84081148348E-01 -0.39317627806E-01  0.10655646902E+00  0.89127425434E+00  0.88000000000E+00 0. -1.
        -11    1    4    4    0    0  0.38269524503E-01  0.16851428427E-01 -0.44653076937E-01  0.61177492157E-01  0.51100000000E-03 0. -1.
         11    1    4    4    0    0  0.38912531656E-01  0.52654526076E-03 -0.55165725222E-01  0.67512819005E-01  0.51100000000E-03 0.  1.
</event>
<event>
 8    1  0.1060404E+005  0.1043930E+01  0.7957747E-01            NaN
         13   -1    0    0    0    0  0.00000000000E+00  0.00000000000E+00  0.74505805969E-08  0.10566000000E+00  0.10566000000E+00 0. -1.
     999900   -1    0    0    0    0 -0.00000000000E+00 -0.00000000000E+00 -0.74505805969E-08  0.93827000000E+00  0.93827000000E+00 0.  1.
     999902    2    1    2    0    0 -0.97044415047E-02 -0.18844562180E-01 -0.10281874638E-01  0.10203713359E+01  0.10200993346E+01 0.  0.
     999903    2    3    3    0    0 -0.11727761327E+00  0.18717841731E-01 -0.54216429281E-01  0.13193835217E+00  0.19076461827E-01 0.  0.
         14    1    1    2    0    0  0.97044415047E-02  0.18844562180E-01  0.10281874638E-01  0.23558664112E-01  0.00000000000E+00 0. -1.
     999901    1    3    3    0    0  0.10757317176E+00 -0.37562403911E-01  0.43934554642E-01  0.88843298372E+00  0.88000000000E+00 0.  1.
        -11    1    4    4    0    0 -0.52593308337E-01  0.23683233176E-02 -0.15896790260E-01  0.54996673525E-01  0.51100000000E-03 0.  1.
         11    1    4    4    0    0 -0.64684304931E-01  0.16349518414E-01 -0.38319639020E-01  0.76941678643E-01  0.51100000000E-03 0. -1.
</event>
<event>
 8    1  0.1060404E+005  0.1043930E+01  0.7957747E-01            NaN
         13   -1    0    0    0    0  0.00000000000E+00  0.00000000000E+00  0.74505805969E-08  0.10566000000E+00  0.10566000000E+00 0. -1.
     999900   -1    0    0    0    0 -0.00000000000E+00 -0.00000000000E+00 -0.74505805969E-08  0.93827000000E+00  0.93827000000E+00 0.  1.
     999902    2    1    2    0    0  0.62426256808E-03 -0.19693948283E-01  0.12654530972E-01  0.10205125181E+01  0.10202438048E+01 0.  0.
     999903    2    3    3    0    0  0.58074160687E-01 -0.78313724305E-02 -0.11351432918E+00  0.12958053826E+00  0.21718066955E-01 0.  0.
         14    1    1    2    0    0 -0.62426256808E-03  0.19693948283E-01 -0.12654530972E-01  0.23417481864E-01  0.00000000000E+00 0.  1.
     999901    1    3    3    0    0 -0.57449898119E-01 -0.11862575853E-01  0.12616886015E+00  0.89093197988E+00  0.88000000000E+00 0. -1.
        -11    1    4    4    0    0  0.11778688270E-01 -0.65742942831E-02 -0.12256170029E-01  0.18232763572E-01  0.51100000000E-03 0.  1.
         11    1    4    4    0    0  0.46295472416E-01 -0.12570781473E-02 -0.10125815915E+00  0.11134777468E+00  0.51100000000E-03 0. -1.
</event>
<event>
 8    1  0.1060404E+005  0.1043930E+01  0.7957747E-01            NaN
         13   -1    0    0    0    0  0.00000000000E+00  0.00000000000E+00  0.74505805969E-08  0.10566000000E+00  0.10566000000E+00 0.  1.
     999900   -1    0    0    0    0 -0.00000000000E+00 -0.00000000000E+00 -0.74505805969E-08  0.93827000000E+00  0.93827000000E+00 0.  1.
     999902    2    1    2    0    0  0.22489891328E-01  0.19733192133E-01 -0.74612330767E-02  0.10130939159E+01  0.10126245199E+01 0.  0.
     999903    2    3    3    0    0  0.28039753461E-01 -0.10179943313E+00  0.57996935373E-01  0.12231574385E+00  0.21169419512E-01 0.  0.
         14    1    1    2    0    0 -0.22489891328E-01 -0.19733192133E-01  0.74612330767E-02  0.30836084102E-01  0.00000000000E+00 0. -1.
     999901    1    3    3    0    0 -0.55498621333E-02  0.12153262526E+00 -0.65458168449E-01  0.89077817204E+00  0.88000000000E+00 0.  1.
        -11    1    4    4    0    0  0.19321097454E-01 -0.56629933994E-01  0.21470614695E-01  0.63572813744E-01  0.51100000000E-03 0.  1.
         11    1    4    4    0    0  0.87186560073E-02 -0.45169499135E-01  0.36526320677E-01  0.58742930110E-01  0.51100000000E-03 0. -1.
</event>
<event>
 8    1  0.1060404E+005  0.1043930E+01  0.7957747E-01            NaN
         13   -1    0    0    0    0  0.00000000000E+00  0.00000000000E+00  0.74505805969E-08  0.10566000000E+00  0.10566000000E+00 0. -1.
     999900   -1    0    0    0    0 -0.00000000000E+00 -0.00000000000E+00 -0.74505805969E-08  0.93827000000E+00  0.93827000000E+00 0. -1.
     999902    2    1    2    0    0 -0.19823764263E-02  0.13401987339E-01  0.18438362630E-01  0.10210495215E+01  0.10207931274E+01 0.  0.
     999903    2    3    3    0    0 -0.19246497073E-02 -0.12045243197E+00 -0.40353438635E-01  0.12898815319E+00  0.22294640791E-01 0.  0.
         14    1    1    2    0    0  0.19823764263E-02 -0.13401987339E-01 -0.18438362630E-01  0.22880478522E-01  0.00000000000E+00 0. -1.
     999901    1    3    3    0    0 -0.57726718936E-04  0.13385441931E+00  0.58791801266E-01  0.89206136829E+00  0.88000000000E+00 0. -1.
        -11    1    4    4    0    0  0.84625461132E-02 -0.29993032712E-01 -0.64684753329E-02  0.31832357628E-01  0.51100000000E-03 0. -1.
         11    1    4    4    0    0 -0.10387195821E-01 -0.90459399261E-01 -0.33884963302E-01  0.97155795559E-01  0.51100000000E-03 0.  1.
</event>
<event>
 8    1  0.1060404E+005  0.1043930E+01  0.7957747E-01            NaN
         13   -1    0    0    0    0  0.00000000000E+00  0.00000000000E+00  0.74505805969E-08  0.10566000000E+00  0.10566000000E+00 0. -1.
     999900   -1    0    0    0    0 -0.00000000000E+00 -0.00000000000E+00 -0.74505805969E-08  0.93827000000E+00  0.93827000000E+00 0. -1.
     999902    2    1    2    0    0  0.48229120936E-03 -0.17536888112E-01  0.39055388491E-02  0.10259570124E+01  0.10257995725E+01 0.  0.
     999903    2    3    3    0    0 -0.51938456549E-02 -0.91085599995E-01 -0.99844266760E-01  0.13679692911E+00  0.20517301260E-01 0.  0.
         14    1    1    2    0    0 -0.48229120936E-03  0.17536888112E-01 -0.39055388491E-02  0.17972987597E-01  0.00000000000E+00 0.  1.
     999901    1    3    3    0    0  0.56761368642E-02  0.73548711883E-01  0.10374980561E+00  0.88916008329E+00  0.88000000000E+00 0.  1.
        -11    1    4    4    0    0 -0.62617661023E-02 -0.99754853272E-02 -0.18359205106E-01  0.21818376552E-01  0.51100000000E-03 0. -1.
         11    1    4    4    0    0  0.10679204474E-02 -0.81110114668E-01 -0.81485061654E-01  0.11497855256E+00  0.51100000000E-03 0.  1.
</event>
<event>
 8    1  0.1060404E+005  0.1043930E+01  0.7957747E-01            NaN
         13   -1    0    0    0    0  0.00000000000E+00  0.00000000000E+00  0.74505805969E-08  0.10566000000E+00  0.10566000000E+00 0. -1.
     999900   -1    0    0    0    0 -0.00000000000E+00 -0.00000000000E+00 -0.74505805969E-08  0.93827000000E+00  0.93827000000E+00 0. -1.
     999902    2    1    2    0    0  0.86014023533E-02 -0.58182279801E-02  0.18909345768E-01  0.10223568858E+01  0.10221292495E+01 0.  0.
     999903    2    3    3    0    0  0.86471713144E-01  0.94748528596E-01  0.30004656741E-01  0.13314343349E+00  0.19293874932E-01 0.  0.
         14    1    1    2    0    0 -0.86014023533E-02  0.58182279801E-02 -0.18909345768E-01  0.21573114208E-01  0.00000000000E+00 0.  1.
     999901    1    3    3    0    0 -0.77870310791E-01 -0.10056675658E+00 -0.11095310974E-01  0.88921345230E+00  0.88000000000E+00 0. -1.
        -11    1    4    4    0    0  0.58902850583E-01  0.57164977395E-01  0.11050701368E-01  0.82823665514E-01  0.51100000000E-03 0. -1.
         11    1    4    4    0    0  0.27568862561E-01  0.37583551201E-01  0.18953955374E-01  0.50319767975E-01  0.51100000000E-03 0.  1.
</event>
<event>
 8    1  0.1060404E+005  0.1043930E+01  0.7957747E-01            NaN
         13   -1    0    0    0    0  0.00000000000E+00  0.00000000000E+00  0.74505805969E-08  0.10566000000E+00  0.10566000000E+00 0.  1.
     999900   -1    0    0    0    0 -0.00000000000E+00 -0.00000000000E+00 -0.74505805969E-08  0.93827000000E+00  0.93827000000E+00 0.  1.
     999902    2    1    2    0    0 -0.37039136656E-02  0.60928719226E-02  0.24530573273E-01  0.10183841375E+01  0.10180636819E+01 0.  0.
     999903    2    3    3    0    0  0.12509083933E+00 -0.23557205803E-02 -0.17856769991E-01  0.12795943325E+00  0.20037086058E-01 0.  0.
         14    1    1    2    0    0  0.37039136656E-02 -0.60928719226E-02 -0.24530573273E-01  0.25545862479E-01  0.00000000000E+00 0. -1.
     999901    1    3    3    0    0 -0.12879475300E+00  0.84485925029E-02  0.42387343264E-01  0.89042470428E+00  0.88000000000E+00 0. -1.
        -11    1    4    4    0    0  0.40840531211E-01 -0.98787054184E-02 -0.83115848911E-02  0.42835515344E-01  0.51100000000E-03 0. -1.
         11    1    4    4    0    0  0.84250308121E-01  0.75229848381E-02 -0.95451851002E-02  0.85123917902E-01  0.51100000000E-03 0.  1.
</event>
<event>
 8    1  0.1060404E+005  0.1043930E+01  0.7957747E-01            NaN
         13   -1    0    0    0    0  0.00000000000E+00  0.00000000000E+00  0.74505805969E-08  0.10566000000E+00  0.10566000000E+00 0.  1.
     999900   -1    0    0    0    0 -0.00000000000E+00 -0.00000000000E+00 -0.74505805969E-08  0.93827000000E+00  0.93827000000E+00 0.  1.
     999902    2    1    2    0    0  0.81069464990E-02  0.21919553254E-02  0.22318831101E-01  0.10200834600E+01  0.10198046910E+01 0.  0.
     999903    2    3    3    0    0  0.75318850977E-01  0.33473085172E-01  0.10279478322E+00  0.13330709129E+00  0.20264165062E-01 0.  0.
         14    1    1    2    0    0 -0.81069464990E-02 -0.21919553254E-02 -0.22318831101E-01  0.23846540030E-01  0.00000000000E+00 0. -1.
     999901    1    3    3    0    0 -0.67211904478E-01 -0.31281129846E-01 -0.80475952123E-01  0.88677636868E+00  0.88000000000E+00 0.  1.
        -11    1    4    4    0    0  0.48295098562E-01  0.28999958705E-01  0.58428427718E-01  0.81163763076E-01  0.51100000000E-03 0.  1.
         11    1    4    4    0    0  0.27023752415E-01  0.44731264666E-02  0.44366355505E-01  0.52143328210E-01  0.51100000000E-03 0. -1.
</event>
<event>
 8    1  0.1060404E+005  0.1043930E+01  0.7957747E-01            NaN
         13   -1    0    0    0    0  0.00000000000E+00  0.00000000000E+00  0.74505805969E-08  0.10566000000E+00  0.10566000000E+00 0. -1.
     999900   -1    0    0    0    0 -0.00000000000E+00 -0.00000000000E+00 -0.74505805969E-08  0.93827000000E+00  0.93827000000E+00 0. -1.
     999902    2    1    2    0    0  0.16960975534E-02  0.22211449254E-01  0.95428691340E-02  0.10196959005E+01  0.10194078860E+01 0.  0.
     999903    2    3    3    0    0  0.10764775292E+00 -0.18600851138E-01 -0.65797624965E-01  0.12920862541E+00  0.20772844189E-01 0.  0.
         14    1    1    2    0    0 -0.16960975534E-02 -0.22211449254E-01 -0.95428691340E-02  0.24234099451E-01  0.00000000000E+00 0. -1.
     999901    1    3    3    0    0 -0.10595165537E+00  0.40812300392E-01  0.75340494099E-01  0.89048727514E+00  0.88000000000E+00 0.  1.
        -11    1    4    4    0    0  0.60402052332E-01 -0.11525686757E-01 -0.24990678980E-01  0.66378042589E-01  0.51100000000E-03 0.  1.
         11    1    4    4    0    0  0.47245700593E-01 -0.70751643808E-02 -0.40806945986E-01  0.62830582818E-01  0.51100000000E-03 0. -1.
</event>
<event>
 8    1  0.1060404E+005  0.1043930E+01  0.7957747E-01            NaN
         13   -1    0    0    0    0  0.00000000000E+00  0.00000000000E+00  0.74505805969E-08  0.10566000000E+00  0.10566000000E+00 0. -1.
     999900   -1    0    0    0    0 -0.00000000000E+00 -0.00000000000E+00 -0.74505805969E-08  0.93827000000E+00  0.93827000000E+00 0.  1.
     999902    2    1    2    0    0 -0.21354758112E-02 -0.20107946246E-01 -0.12565249239E-01  0.10201229580E+01  0.10198451227E+01 0.  0.
     999903    2    3    3    0    0 -0.86304116905E-02  0.11725417173E+00 -0.48547651715E-01  0.12871661469E+00  0.19699431904E-01 0.  0.
         14    1    1    2    0    0  0.21354758112E-02  0.20107946246E-01  0.12565249239E-01  0.23807041975E-01  0.00000000000E+00 0.  1.
     999901    1    3    3    0    0  0.64949358793E-02 -0.13736211797E+00  0.35982402476E-01  0.89140634333E+00  0.88000000000E+00 0. -1.
        -11    1    4    4    0    0 -0.26530504059E-02  0.49681518192E-01 -0.31083342639E-01  0.58666235919E-01  0.51100000000E-03 0. -1.
         11    1    4    4    0    0 -0.59773612846E-02  0.67572653536E-01 -0.17464309076E-01  0.70050378773E-01  0.51100000000E-03 0.  1.
</event>
<event>
 8    1  0.1060404E+005  0.1043930E+01  0.7957747E-01            NaN
         13   -1    0    0    0    0  0.00000000000E+00  0.00000000000E+00  0.74505805969E-08  0.10566000000E+00  0.10566000000E+00 0. -1.
     999900   -1    0    0    0    0 -0.00000000000E+00 -0.00000000000E+00 -0.74505805969E-08  0.93827000000E+00  0.93827000000E+00 0.  1.
     999902    2    1    2    0    0  0.18804910445E-01  0.32958281182E-02  0.14773995581E-01  0.10197896171E+01  0.10195038524E+01 0.  0.
     999903    2    3    3    0    0  0.58787972910E-01 -0.81623370095E-01 -0.80032662091E-01  0.12973444027E+00  0.17532760381E-01 0.  0.
         14    1    1    2    0    0 -0.18804910445E-01 -0.32958281182E-02 -0.14773995581E-01  0.24140382873E-01  0.00000000000E+00 0.  1.
     999901    1    3    3    0    0 -0.39983062465E-01  0.84919198213E-01  0.94806657672E-01  0.89005517686E+00  0.88000000000E+00 0. -1.
        -11    1    4    4    0    0  0.32289197783E-01 -0.30758278899E-01 -0.31496117743E-01  0.54597898936E-01  0.51100000000E-03 0.  1.
         11    1    4    4    0    0  0.26498775126E-01 -0.50865091196E-01 -0.48536544348E-01  0.75136541336E-01  0.51100000000E-03 0. -1.
</event>
<event>
 8    1  0.1060404E+005  0.1043930E+01  0.7957747E-01            NaN
         13   -1    0    0    0    0  0.00000000000E+00  0.00000000000E+00  0.74505805969E-08  0.10566000000E+00  0.10566000000E+00 0.  1.
     999900   -1    0    0    0    0 -0.00000000000E+00 -0.00000000000E+00 -0.74505805969E-08  0.93827000000E+00  0.93827000000E+00 0.  1.
     999902    2    1    2    0    0 -0.25084092531E-02 -0.22736050386E-01 -0.75126264686E-03  0.10210436613E+01  0.10207871344E+01 0.  0.
     999903    2    3    3    0    0 -0.96285154294E-01 -0.76264140264E-01  0.47271834327E-01  0.13314414436E+00  0.20141668972E-01 0.  0.
         14    1    1    2    0    0  0.25084092531E-02  0.22736050386E-01  0.75126264686E-03  0.22886338713E-01  0.00000000000E+00 0. -1.
     999901    1    3    3    0    0  0.93776745041E-01  0.53528089878E-01 -0.48023096974E-01  0.88789951693E+00  0.88000000000E+00 0.  1.
        -11    1    4    4    0    0 -0.33949193633E-01 -0.16455228689E-01  0.19013485663E-01  0.42250397129E-01  0.51100000000E-03 0. -1.
         11    1    4    4    0    0 -0.62335960661E-01 -0.59808911575E-01  0.28258348664E-01  0.90893747231E-01  0.51100000000E-03 0.  1.
</event>
<event>
 7    1  0.1409284E+005  0.1043930E+01  0.7957747E-01            NaN
         13   -1    0    0    0    0  0.00000000000E+00  0.00000000000E+00  0.74505805969E-08  0.10566000000E+00  0.10566000000E+00 0.  1.
     999900   -1    0    0    0    0 -0.00000000000E+00 -0.00000000000E+00 -0.74505805969E-08  0.93827000000E+00  0.93827000000E+00 0. -1.
     999903    2    1    2    0    0 -0.40377078377E-01 -0.41535168301E-01  0.51892063418E-01  0.80292466679E-01  0.19965352379E-01 0.  0.
         14    1    1    2    0    0  0.63930063935E-01  0.62319071002E-02  0.43333604163E-01  0.77483488503E-01  0.00000000000E+00 0.  1.
     999901    1    1    2    0    0 -0.23552985559E-01  0.35303261201E-01 -0.95225667581E-01  0.88615404482E+00  0.88000000000E+00 0. -1.
        -11    1    3    3    0    0 -0.21981752561E-01 -0.26319531603E-01  0.42553332029E-01  0.54653109493E-01  0.51100000000E-03 0.  1.
         11    1    3    3    0    0 -0.18395325816E-01 -0.15215636697E-01  0.93387313893E-02  0.25639357186E-01  0.51100000000E-03 0. -1.
</event>
<event>
 8    1  0.1060404E+005  0.1043930E+01  0.7957747E-01            NaN
         13   -1    0    0    0    0  0.00000000000E+00  0.00000000000E+00  0.74505805969E-08  0.10566000000E+00  0.10566000000E+00 0. -1.
     999900   -1    0    0    0    0 -0.00000000000E+00 -0.00000000000E+00 -0.74505805969E-08  0.93827000000E+00  0.93827000000E+00 0.  1.
     999902    2    1    2    0    0  0.16536231401E-01 -0.19180935871E-01  0.26257175685E-02  0.10184692529E+01  0.10181509561E+01 0.  0.
     999903    2    3    3    0    0  0.58317824956E-01 -0.89369687299E-02 -0.11402895450E+00  0.12972915989E+00  0.18606835898E-01 0.  0.
         14    1    1    2    0    0 -0.16536231401E-01  0.19180935871E-01 -0.26257175685E-02  0.25460747094E-01  0.00000000000E+00 0.  1.
     999901    1    3    3    0    0 -0.41781593555E-01 -0.10243967141E-01  0.11665467207E+00  0.88874009302E+00  0.88000000000E+00 0. -1.
        -11    1    4    4    0    0  0.18092945749E-01  0.54752550736E-02 -0.40195241508E-01  0.44421297425E-01  0.51100000000E-03 0. -1.
         11    1    4    4    0    0  0.40224879208E-01 -0.14412223803E-01 -0.73833712995E-01  0.85307862462E-01  0.51100000000E-03 0.  1.
</event>
<event>
 8    1  0.1060404E+005  0.1043930E+01  0.7957747E-01            NaN
         13   -1    0    0    0    0  0.00000000000E+00  0.00000000000E+00  0.74505805969E-08  0.10566000000E+00  0.10566000000E+00 0. -1.
     999900   -1    0    0    0    0 -0.00000000000E+00 -0.00000000000E+00 -0.74505805969E-08  0.93827000000E+00  0.93827000000E+00 0.  1.
     999902    2    1    2    0    0 -0.42589305098E-02 -0.15046374127E-01  0.17301331375E-01  0.10206090238E+01  0.10203425462E+01 0.  0.
     999903    2    3    3    0    0 -0.37204253912E-01  0.90881584752E-01  0.84561720902E-01  0.13109787334E+00  0.19807796316E-01 0.  0.
         14    1    1    2    0    0  0.42589305098E-02  0.15046374127E-01 -0.17301331375E-01  0.23320976197E-01  0.00000000000E+00 0. -1.
     999901    1    3    3    0    0  0.32945323402E-01 -0.10592795888E+00 -0.67260389527E-01  0.88951115047E+00  0.88000000000E+00 0. -1.
        -11    1    4    4    0    0 -0.25432177345E-01  0.78298238772E-01  0.75091383264E-01  0.11142884187E+00  0.51100000000E-03 0. -1.
         11    1    4    4    0    0 -0.11772076566E-01  0.12583345980E-01  0.94703376384E-02  0.19669031464E-01  0.51100000000E-03 0.  1.
</event>
<event>
 8    1  0.1060404E+005  0.1043930E+01  0.7957747E-01            NaN
         13   -1    0    0    0    0  0.00000000000E+00  0.00000000000E+00  0.74505805969E-08  0.10566000000E+00  0.10566000000E+00 0.  1.
     999900   -1    0    0    0    0 -0.00000000000E+00 -0.00000000000E+00 -0.74505805969E-08  0.93827000000E+00  0.93827000000E+00 0.  1.
     999902    2    1    2    0    0  0.11339606839E-01  0.19378355839E-01  0.72697682374E-02  0.10203300659E+01  0.10200570996E+01 0.  0.
     999903    2    3    3    0    0  0.43298542925E-01  0.43685240612E-01 -0.11361890385E+00  0.13115838999E+00  0.22585479503E-01 0.  0.
         14    1    1    2    0    0 -0.11339606839E-01 -0.19378355839E-01 -0.72697682374E-02  0.23599934079E-01  0.00000000000E+00 0. -1.
     999901    1    3    3    0    0 -0.31958936085E-01 -0.24306884772E-01  0.12088867209E+00  0.88917167593E+00  0.88000000000E+00 0. -1.
        -11    1    4    4    0    0  0.10372084962E-02  0.13143516605E-01 -0.27082553650E-01  0.30125631336E-01  0.51100000000E-03 0.  1.
         11    1    4    4    0    0  0.42261334428E-01  0.30541724007E-01 -0.86536350204E-01  0.10103275865E+00  0.51100000000E-03 0. -1.
</event>
<event>
 8    1  0.1060404E+005  0.1043930E+01  0.7957747E-01            NaN
         13   -1    0    0    0    0  0.00000000000E+00  0.00000000000E+00  0.74505805969E-08  0.10566000000E+00  0.10566000000E+00 0. -1.
     999900   -1    0    0    0    0 -0.00000000000E+00 -0.00000000000E+00 -0.74505805969E-08  0.93827000000E+00  0.93827000000E+00 0.  1.
     999902    2    1    2    0    0  0.15374746576E-02 -0.18646167728E-01  0.10161423899E-01  0.10226392054E+01  0.10224175500E+01 0.  0.
     999903    2    3    3    0    0 -0.89377003375E-01  0.92873884575E-01  0.11626673305E-01  0.13095298741E+00  0.19992453884E-01 0.  0.
         14    1    1    2    0    0 -0.15374746576E-02  0.18646167728E-01 -0.10161423899E-01  0.21290794605E-01  0.00000000000E+00 0. -1.
     999901    1    3    3    0    0  0.90914478032E-01 -0.11152005230E+00 -0.14652494065E-02  0.89168621798E+00  0.88000000000E+00 0. -1.
        -11    1    4    4    0    0 -0.64743075582E-01  0.55192011295E-01  0.12067036438E-01  0.85928449514E-01  0.51100000000E-03 0. -1.
         11    1    4    4    0    0 -0.24633927793E-01  0.37681873280E-01 -0.44036313240E-03  0.45024537900E-01  0.51100000000E-03 0.  1.
</event>
<event>
 8    1  0.1060404E+005  0.1043930E+01  0.7957747E-01            NaN
         13   -1    0    0    0    0  0.00000000000E+00  0.00000000000E+00  0.74505805969E-08  0.10566000000E+00  0.10566000000E+00 0.  1.
     999900   -1    0    0    0    0 -0.00000000000E+00 -0.00000000000E+00 -0.74505805969E-08  0.93827000000E+00  0.93827000000E+00 0. -1.
     999902    2    1    2    0    0  0.19999859031E-01  0.12834769777E-01  0.14028627258E-01  0.10163342021E+01  0.10159594886E+01 0.  0.
     999903    2    3    3    0    0  0.83181480249E-01 -0.22391847236E-01  0.95382915874E-01  0.12962604718E+00  0.16865882360E-01 0.  0.
         14    1    1    2    0    0 -0.19999859031E-01 -0.12834769777E-01 -0.14028627258E-01  0.27595797855E-01  0.00000000000E+00 0.  1.
     999901    1    3    3    0    0 -0.63181621217E-01  0.35226617013E-01 -0.81354288616E-01  0.88670815497E+00  0.88000000000E+00 0. -1.
        -11    1    4    4    0    0  0.54278767777E-01 -0.18374164163E-01  0.73219286981E-01  0.92979135547E-01  0.51100000000E-03 0.  1.
         11    1    4    4    0    0  0.28902712472E-01 -0.40176830731E-02  0.22163628893E-01  0.36646911632E-01  0.51100000000E-03 0. -1.
</event>
<event>
 8    1  0.1060404E+005  0.1043930E+01  0.7957747E-01            NaN
         13   -1    0    0    0    0  0.00000000000E+00  0.00000000000E+00  0.74505805969E-08  0.10566000000E+00  0.10566000000E+00 0. -1.
     999900   -1    0    0    0    0 -0.00000000000E+00 -0.00000000000E+00 -0.74505805969E-08  0.93827000000E+00  0.93827000000E+00 0.  1.
     999902    2    1    2    0    0  0.11170338379E-01 -0.56078899056E-02 -0.20807066761E-01  0.10196574040E+01  0.10193684627E+01 0.  0.
     999903    2    3    3    0    0 -0.92571858536E-01  0.60152108543E-01  0.61572395050E-01  0.12731599147E+00  0.15178165114E-01 0.  0.
         14    1    1    2    0    0 -0.11170338379E-01  0.56078899056E-02  0.20807066761E-01  0.24272595986E-01  0.00000000000E+00 0.  1.
     999901    1    3    3    0    0  0.10374219692E+00 -0.65759998449E-01 -0.82379461811E-01  0.89234141255E+00  0.88000000000E+00 0.  1.
        -11    1    4    4    0    0 -0.24861196742E-01  0.89800753175E-02  0.17225738714E-01  0.31554841964E-01  0.51100000000E-03 0. -1.
         11    1    4    4    0    0 -0.67710661795E-01  0.51172033226E-01  0.44346656336E-01  0.95761149504E-01  0.51100000000E-03 0.  1.
</event>
<event>
 8    1  0.1060404E+005  0.1043930E+01  0.7957747E-01            NaN
         13   -1    0    0    0    0  0.00000000000E+00  0.00000000000E+00  0.74505805969E-08  0.10566000000E+00  0.10566000000E+00 0.  1.
     999900   -1    0    0    0    0 -0.00000000000E+00 -0.00000000000E+00 -0.74505805969E-08  0.93827000000E+00  0.93827000000E+00 0. -1.
     999902    2    1    2    0    0  0.18483135367E-01 -0.15361750831E-01  0.25607733362E-02  0.10197604480E+01  0.10194739841E+01 0.  0.
     999903    2    3    3    0    0  0.79515883479E-01 -0.18898798121E-01  0.10191128884E+00  0.13206228314E+00  0.19354470800E-01 0.  0.
         14    1    1    2    0    0 -0.18483135367E-01  0.15361750831E-01 -0.25607733362E-02  0.24169551954E-01  0.00000000000E+00 0. -1.
     999901    1    3    3    0    0 -0.61032748112E-01  0.35370472900E-02 -0.99350515501E-01  0.88769816491E+00  0.88000000000E+00 0. -1.
        -11    1    4    4    0    0  0.28783151993E-01  0.25666209241E-02  0.35147643025E-01  0.45504673528E-01  0.51100000000E-03 0. -1.
         11    1    4    4    0    0  0.50732731486E-01 -0.21465419045E-01  0.66763645812E-01  0.86557609613E-01  0.51100000000E-03 0.  1.
</event>
<event>
 8    1  0.1060404E+005  0.1043930E+01  0.7957747E-01            NaN
         13   -1    0    0    0    0  0.00000000000E+00  0.00000000000E+00  0.74505805969E-08  0.10566000000E+00  0.10566000000E+00 0. -1.
     999900   -1    0    0    0    0 -0.00000000000E+00 -0.00000000000E+00 -0.74505805969E-08  0.93827000000E+00  0.93827000000E+00 0.  1.
     999902    2    1    2    0    0  0.16791391903E-01  0.56088688639E-02 -0.15951297110E-01  0.10201003099E+01  0.10198219394E+01 0.  0.
     999903    2    3    3    0    0 -0.98620878364E-01 -0.71664363587E-01  0.33021209227E-01  0.12786186027E+00  0.19909706039E-01 0.  0.
         14    1    1    2    0    0 -0.16791391903E-01 -0.56088688639E-02  0.15951297110E-01  0.23829690125E-01  0.00000000000E+00 0. -1.
     999901    1    3    3    0    0  0.11541227027E+00  0.77273232451E-01 -0.48972506337E-01  0.89223844961E+00  0.88000000000E+00 0. -1.
        -11    1    4    4    0    0 -0.16152130284E-01 -0.74790974179E-02  0.11403048379E-01  0.21145184895E-01  0.51100000000E-03 0. -1.
         11    1    4    4    0    0 -0.82468748079E-01 -0.64185266169E-01  0.21618160847E-01  0.10671667537E+00  0.51100000000E-03 0.  1.
</event>
<event>
 8    1  0.1060404E+005  0.1043930E+01  0.7957747E-01            NaN
         13   -1    0    0    0    0  0.00000000000E+00  0.00000000000E+00  0.74505805969E-08  0.10566000000E+00  0.10566000000E+00 0.  1.
     999900   -1    0    0    0    0 -0.00000000000E+00 -0.00000000000E+00 -0.74505805969E-08  0.93827000000E+00  0.93827000000E+00 0.  1.
     999902    2    1    2    0    0 -0.44667763759E-02  0.22356436968E-01 -0.12291243407E-01  0.10180294782E+01  0.10176999467E+01 0.  0.
     999903    2    3    3    0    0  0.11336480961E+00  0.56012239680E-01  0.15671583720E-01  0.12909814485E+00  0.20779350667E-01 0.  0.
         14    1    1    2    0    0  0.44667763759E-02 -0.22356436968E-01  0.12291243407E-01  0.25900521802E-01  0.00000000000E+00 0.  1.
     999901    1    3    3    0    0 -0.11783158599E+00 -0.33655802712E-01 -0.27962827127E-01  0.88893133335E+00  0.88000000000E+00 0. -1.
        -11    1    4    4    0    0  0.65467497921E-01  0.42946909913E-01  0.13052166547E-01  0.79379156758E-01  0.51100000000E-03 0. -1.
         11    1    4    4    0    0  0.47897311692E-01  0.13065329767E-01  0.26194171728E-02  0.49718988089E-01  0.51100000000E-03 0.  1.
</event>
<event>
 8    1  0.1060404E+005  0.1043930E+01  0.7957747E-01            NaN
         13   -1    0    0    0    0  0.00000000000E+00  0.00000000000E+00  0.74505805969E-08  0.10566000000E+00  0.10566000000E+00 0.  1.
     999900   -1    0    0    0    0 -0.00000000000E+00 -0.00000000000E+00 -0.74505805969E-08  0.93827000000E+00  0.93827000000E+00 0. -1.
     999902    2    1    2    0    0  0.17744767932E-01  0.87909394686E-03  0.17046440632E-01  0.10193082467E+01  0.10190108298E+01 0.  0.
     999903    2    3    3    0    0  0.12624617082E+00 -0.27423152750E-01  0.19759686199E-01  0.13218878844E+00  0.19831934791E-01 0.  0.
         14    1    1    2    0    0 -0.17744767932E-01 -0.87909394686E-03 -0.17046440632E-01  0.24621753255E-01  0.00000000000E+00 0.  1.
     999901    1    3    3    0    0 -0.10850140289E+00  0.28302246697E-01 -0.27132455666E-02  0.88711945830E+00  0.88000000000E+00 0.  1.
        -11    1    4    4    0    0  0.54576995551E-01 -0.89047250137E-02 -0.99342912698E-03  0.55309950220E-01  0.51100000000E-03 0.  1.
         11    1    4    4    0    0  0.71669175271E-01 -0.18518427736E-01  0.20753115326E-01  0.76878838223E-01  0.51100000000E-03 0. -1.
</event>
<event>
 8    1  0.1060404E+005  0.1043930E+01  0.7957747E-01            NaN
         13   -1    0    0    0    0  0.00000000000E+00  0.00000000000E+00  0.74505805969E-08  0.10566000000E+00  0.10566000000E+00 0. -1.
     999900   -1    0    0    0    0 -0.00000000000E+00 -0.00000000000E+00 -0.74505805969E-08  0.93827000000E+00  0.93827000000E+00 0. -1.
     999902    2    1    2    0    0 -0.21478677548E-01  0.95131967428E-02  0.12494099646E-02  0.10204056397E+01  0.10201344392E+01 0.  0.
     999903    2    3    3    0    0 -0.40492806171E-01  0.12148476279E+00  0.28848278466E-01  0.13267771618E+00  0.19311609412E-01 0.  0.
         14    1    1    2    0    0  0.21478677548E-01 -0.95131967428E-02 -0.12494099646E-02  0.23524360283E-01  0.00000000000E+00 0. -1.
     999901    1    3    3    0    0  0.19014128622E-01 -0.11197156605E+00 -0.27598868502E-01  0.88772792354E+00  0.88000000000E+00 0. -1.
        -11    1    4    4    0    0 -0.17528140890E-01  0.77063307941E-01  0.23096996364E-01  0.82339064337E-01  0.51100000000E-03 0.  1.
         11    1    4    4    0    0 -0.22964665281E-01  0.44421454848E-01  0.57512821024E-02  0.50338651840E-01  0.51100000000E-03 0. -1.
</event>
<event>
 8    1  0.1060404E+005  0.1043930E+01  0.7957747E-01            NaN
         13   -1    0    0    0    0  0.00000000000E+00  0.00000000000E+00  0.74505805969E-08  0.10566000000E+00  0.10566000000E+00 0. -1.
     999900   -1    0    0    0    0 -0.00000000000E+00 -0.00000000000E+00 -0.74505805969E-08  0.93827000000E+00  0.93827000000E+00 0.  1.
     999902    2    1    2    0    0  0.16637136049E-01  0.80985524165E-02  0.14596458184E-01  0.10203622797E+01  0.10200900668E+01 0.  0.
     999903    2    3    3    0    0  0.11868608372E+00 -0.16120024187E-01 -0.46248595235E-01  0.13204778154E+00  0.30845459967E-01 0.  0.
         14    1    1    2    0    0 -0.16637136049E-01 -0.80985524165E-02 -0.14596458184E-01  0.23567720269E-01  0.00000000000E+00 0.  1.
     999901    1    3    3    0    0 -0.10204894767E+00  0.24218576603E-01  0.60845053420E-01  0.88831449819E+00  0.88000000000E+00 0. -1.
        -11    1    4    4    0    0  0.41218441804E-01 -0.46712242808E-02 -0.32134279090E-01  0.52475263646E-01  0.51100000000E-03 0. -1.
         11    1    4    4    0    0  0.77467641911E-01 -0.11448799906E-01 -0.14114316145E-01  0.79572517893E-01  0.51100000000E-03 0.  1.
</event>
<event>
 8    1  0.1060404E+005  0.1043930E+01  0.7957747E-01            NaN
         13   -1    0    0    0    0  0.00000000000E+00  0.00000000000E+00  0.74505805969E-08  0.10566000000E+00  0.10566000000E+00 0. -1.
     999900   -1    0    0    0    0 -0.00000000000E+00 -0.00000000000E+00 -0.74505805969E-08  0.93827000000E+00  0.93827000000E+00 0.  1.
     999902    2    1    2    0    0  0.15145319154E-01 -0.17272496381E-01 -0.59182382125E-02  0.10202077453E+01  0.10199319086E+01 0.  0.
     999903    2    3    3    0    0  0.29165540910E-01  0.92788048059E-01  0.82231643596E-01  0.12887150589E+00  0.19635966553E-01 0.  0.
         14    1    1    2    0    0 -0.15145319154E-01  0.17272496381E-01  0.59182382125E-02  0.23722254679E-01  0.00000000000E+00 0.  1.
     999901    1    3    3    0    0 -0.14020221756E-01 -0.11006054444E+00 -0.88149881808E-01  0.89133623943E+00  0.88000000000E+00 0.  1.
        -11    1    4    4    0    0  0.89469298185E-02  0.17405257370E-01  0.79653250207E-02  0.21135232693E-01  0.51100000000E-03 0. -1.
         11    1    4    4    0    0  0.20218611092E-01  0.75382790689E-01  0.74266318575E-01  0.10773627320E+00  0.51100000000E-03 0.  1.
</event>
<event>
 8    1  0.1060404E+005  0.1043930E+01  0.7957747E-01            NaN
         13   -1    0    0    0    0  0.00000000000E+00  0.00000000000E+00  0.74505805969E-08  0.10566000000E+00  0.10566000000E+00 0. -1.
     999900   -1    0    0    0    0 -0.00000000000E+00 -0.00000000000E+00 -0.74505805969E-08  0.93827000000E+00  0.93827000000E+00 0.  1.
     999902    2    1    2    0    0 -0.23678498936E-01 -0.22845940897E-03  0.11687525539E-02  0.10202215735E+01  0.10199460621E+01 0.  0.
     999903    2    3    3    0    0  0.11354884639E+00  0.24541766725E-01 -0.49357432856E-01  0.12781034326E+00  0.20092009232E-01 0.  0.
         14    1    1    2    0    0  0.23678498936E-01  0.22845940897E-03 -0.11687525539E-02  0.23708426521E-01  0.00000000000E+00 0. -1.
     999901    1    3    3    0    0 -0.13722734533E+00 -0.24770226134E-01  0.50526185410E-01  0.89241123022E+00  0.88000000000E+00 0. -1.
        -11    1    4    4    0    0  0.11286420365E-01 -0.16341939909E-02 -0.99194082324E-02  0.15123149650E-01  0.51100000000E-03 0.  1.
         11    1    4    4    0    0  0.10226242603E+00  0.26175960716E-01 -0.39438024624E-01  0.11268719361E+00  0.51100000000E-03 0. -1.
</event>
<event>
 8    1  0.1060404E+005  0.1043930E+01  0.7957747E-01            NaN
         13   -1    0    0    0    0  0.00000000000E+00  0.00000000000E+00  0.74505805969E-08  0.10566000000E+00  0.10566000000E+00 0. -1.
     999900   -1    0    0    0    0 -0.00000000000E+00 -0.00000000000E+00 -0.74505805969E-08  0.93827000000E+00  0.93827000000E+00 0.  1.
     999902    2    1    2    0    0  0.23457085956E-01 -0.28853132902E-02  0.42829133635E-02  0.10199111894E+01  0.10196283299E+01 0.  0.
     999903    2    3    3    0    0  0.88013671710E-01  0.33974317939E-01  0.90858297786E-01  0.13254346274E+00  0.20294791252E-01 0.  0.
         14    1    1    2    0    0 -0.23457085956E-01  0.28853132902E-02 -0.42829133635E-02  0.24018810570E-01  0.00000000000E+00 0.  1.
     999901    1    3    3    0    0 -0.64556585754E-01 -0.36859631229E-01 -0.86575384422E-01  0.88736772669E+00  0.88000000000E+00 0. -1.
        -11    1    4    4    0    0  0.23726434678E-01  0.16202871655E-01  0.18725178492E-01  0.34298253351E-01  0.51100000000E-03 0. -1.
         11    1    4    4    0    0  0.64287237033E-01  0.17771446284E-01  0.72133119294E-01  0.98245209391E-01  0.51100000000E-03 0.  1.
</event>
<event>
 8    1  0.1060404E+005  0.1043930E+01  0.7957747E-01            NaN
         13   -1    0    0    0    0  0.00000000000E+00  0.00000000000E+00  0.74505805969E-08  0.10566000000E+00  0.10566000000E+00 0. -1.
     999900   -1    0    0    0    0 -0.00000000000E+00 -0.00000000000E+00 -0.74505805969E-08  0.93827000000E+00  0.93827000000E+00 0. -1.
     999902    2    1    2    0    0  0.22504174853E-01  0.16530058506E-02  0.75055864967E-02  0.10201496690E+01  0.10198724641E+01 0.  0.
     999903    2    3    3    0    0  0.18250944794E-01  0.10853814256E+00 -0.67235316378E-01  0.13052686972E+00  0.20076119513E-01 0.  0.
         14    1    1    2    0    0 -0.22504174853E-01 -0.16530058506E-02 -0.75055864967E-02  0.23780331007E-01  0.00000000000E+00 0.  1.
     999901    1    3    3    0    0  0.42532300588E-02 -0.10688513671E+00  0.74740902875E-01  0.88962279927E+00  0.88000000000E+00 0. -1.
        -11    1    4    4    0    0  0.58997077500E-02  0.52599192026E-01 -0.21142564100E-01  0.56997813038E-01  0.51100000000E-03 0. -1.
         11    1    4    4    0    0  0.12351237044E-01  0.55938950537E-01 -0.46092752278E-01  0.73529056687E-01  0.51100000000E-03 0.  1.
</event>
<event>
 8    1  0.1060404E+005  0.1043930E+01  0.7957747E-01            NaN
         13   -1    0    0    0    0  0.00000000000E+00  0.00000000000E+00  0.74505805969E-08  0.10566000000E+00  0.10566000000E+00 0. -1.
     999900   -1    0    0    0    0 -0.00000000000E+00 -0.00000000000E+00 -0.74505805969E-08  0.93827000000E+00  0.93827000000E+00 0.  1.
     999902    2    1    2    0    0 -0.15610311217E-01  0.56704493736E-02 -0.17393440908E-01  0.10198807256E+01  0.10195971395E+01 0.  0.
     999903    2    3    3    0    0  0.21663155752E-02 -0.12771624151E+00 -0.73008860762E-02  0.12959432369E+00  0.20621700423E-01 0.  0.
         14    1    1    2    0    0  0.15610311217E-01 -0.56704493736E-02  0.17393440908E-01  0.24049274397E-01  0.00000000000E+00 0. -1.
     999901    1    3    3    0    0 -0.17776626792E-01  0.13338669088E+00 -0.10092554832E-01  0.89028640191E+00  0.88000000000E+00 0. -1.
        -11    1    4    4    0    0  0.65029165384E-02 -0.58098069795E-01 -0.11997379883E-01  0.59681419910E-01  0.51100000000E-03 0.  1.
         11    1    4    4    0    0 -0.43366009632E-02 -0.69618171710E-01  0.46964938064E-02  0.69912903782E-01  0.51100000000E-03 0. -1.
</event>
<event>
 8    1  0.1060404E+005  0.1043930E+01  0.7957747E-01            NaN
         13   -1    0    0    0    0  0.00000000000E+00  0.00000000000E+00  0.74505805969E-08  0.10566000000E+00  0.10566000000E+00 0. -1.
     999900   -1    0    0    0    0 -0.00000000000E+00 -0.00000000000E+00 -0.74505805969E-08  0.93827000000E+00  0.93827000000E+00 0. -1.
     999902    2    1    2    0    0  0.85284216110E-02  0.12623496114E-01 -0.19293059556E-01  0.10193473074E+01  0.10190508448E+01 0.  0.
     999903    2    3    3    0    0 -0.85954149318E-01  0.92385093736E-01  0.22115814746E-01  0.12973864986E+00  0.20491136533E-01 0.  0.
         14    1    1    2    0    0 -0.85284216110E-02 -0.12623496114E-01  0.19293059556E-01  0.24582692618E-01  0.00000000000E+00 0. -1.
     999901    1    3    3    0    0  0.94482570929E-01 -0.79761597622E-01 -0.41408874303E-01  0.88960865752E+00  0.88000000000E+00 0.  1.
        -11    1    4    4    0    0 -0.14678076295E-01  0.28511955596E-01  0.38638314056E-02  0.32304300793E-01  0.51100000000E-03 0. -1.
         11    1    4    4    0    0 -0.71276073023E-01  0.63873138140E-01  0.18251983341E-01  0.97434349068E-01  0.51100000000E-03 0.  1.
</event>
<event>
 8    1  0.1060404E+005  0.1043930E+01  0.7957747E-01            NaN
         13   -1    0    0    0    0  0.00000000000E+00  0.00000000000E+00  0.74505805969E-08  0.10566000000E+00  0.10566000000E+00 0.  1.
     999900   -1    0    0    0    0 -0.00000000000E+00 -0.00000000000E+00 -0.74505805969E-08  0.93827000000E+00  0.93827000000E+00 0. -1.
     999902    2    1    2    0    0 -0.88525557885E-02  0.18619477644E-01  0.11539888477E-01  0.10203032838E+01  0.10200296904E+01 0.  0.
     999903    2    3    3    0    0 -0.29676882826E-01  0.24204870253E-01  0.12546115310E+00  0.13269813301E+00  0.20042466114E-01 0.  0.
         14    1    1    2    0    0  0.88525557885E-02 -0.18619477644E-01 -0.11539888477E-01  0.23626716187E-01  0.00000000000E+00 0. -1.
     999901    1    3    3    0    0  0.20824327037E-01 -0.55853926092E-02 -0.11392126462E+00  0.88760515081E+00  0.88000000000E+00 0. -1.
        -11    1    4    4    0    0 -0.19509394611E-01  0.38501223850E-02  0.69368847230E-01  0.72164658992E-01  0.51100000000E-03 0.  1.
         11    1    4    4    0    0 -0.10167488215E-01  0.20354747868E-01  0.56092305869E-01  0.60533474013E-01  0.51100000000E-03 0. -1.
</event>
<event>
 8    1  0.1060404E+005  0.1043930E+01  0.7957747E-01            NaN
         13   -1    0    0    0    0  0.00000000000E+00  0.00000000000E+00  0.74505805969E-08  0.10566000000E+00  0.10566000000E+00 0.  1.
     999900   -1    0    0    0    0 -0.00000000000E+00 -0.00000000000E+00 -0.74505805969E-08  0.93827000000E+00  0.93827000000E+00 0. -1.
     999902    2    1    2    0    0 -0.34578228813E-02 -0.20412149376E-01  0.10895133516E-01  0.10205352075E+01  0.10202670207E+01 0.  0.
     999903    2    3    3    0    0  0.40159668550E-01 -0.32479500610E-01 -0.11799254126E+00  0.12999596681E+00  0.17578243833E-01 0.  0.
         14    1    1    2    0    0  0.34578228813E-02  0.20412149376E-01 -0.10895133516E-01  0.23394792488E-01  0.00000000000E+00 0. -1.
     999901    1    3    3    0    0 -0.43617491431E-01  0.12067351234E-01  0.12888767477E+00  0.89053924070E+00  0.88000000000E+00 0.  1.
        -11    1    4    4    0    0 -0.85296461778E-04 -0.59935877895E-02 -0.89597824835E-02  0.10792089382E-01  0.51100000000E-03 0.  1.
         11    1    4    4    0    0  0.40244965012E-01 -0.26485912820E-01 -0.10903275877E+00  0.11920387743E+00  0.51100000000E-03 0. -1.
</event>
<event>
 8    1  0.1060404E+005  0.1043930E+01  0.7957747E-01            NaN
         13   -1    0    0    0    0  0.00000000000E+00  0.00000000000E+00  0.74505805969E-08  0.10566000000E+00  0.10566000000E+00 0.  1.
     999900   -1    0    0    0    0 -0.00000000000E+00 -0.00000000000E+00 -0.74505805969E-08  0.93827000000E+00  0.93827000000E+00 0. -1.
     999902    2    1    2    0    0  0.17086891328E-02  0.21405034709E-01 -0.90225438730E-02  0.10206383400E+01  0.10203725396E+01 0.  0.
     999903    2    3    3    0    0 -0.17527902534E-01 -0.20879432877E-01 -0.12718046526E+00  0.13152680756E+00  0.19525682588E-01 0.  0.
         14    1    1    2    0    0 -0.17086891328E-02 -0.21405034709E-01  0.90225438730E-02  0.23291660039E-01  0.00000000000E+00 0. -1.
     999901    1    3    3    0    0  0.19236591667E-01  0.42284467585E-01  0.11815792138E+00  0.88911153240E+00  0.88000000000E+00 0.  1.
        -11    1    4    4    0    0 -0.11110907317E-01 -0.19591099627E-01 -0.11861205269E+00  0.12073252922E+00  0.51100000000E-03 0.  1.
         11    1    4    4    0    0 -0.64169952167E-02 -0.12883332493E-02 -0.85684125638E-02  0.10794278347E-01  0.51100000000E-03 0. -1.
</event>
<event>
 8    1  0.1060404E+005  0.1043930E+01  0.7957747E-01            NaN
         13   -1    0    0    0    0  0.00000000000E+00  0.00000000000E+00  0.74505805969E-08  0.10566000000E+00  0.10566000000E+00 0. -1.
     999900   -1    0    0    0    0 -0.00000000000E+00 -0.00000000000E+00 -0.74505805969E-08  0.93827000000E+00  0.93827000000E+00 0.  1.
     999902    2    1    2    0    0  0.20408685877E-01  0.10063070609E-01  0.54351040264E-02  0.10205351244E+01  0.10202669356E+01 0.  0.
     999903    2    3    3    0    0  0.98381621541E-01  0.32696161302E-01 -0.80165368433E-01  0.13266155434E+00  0.20606292343E-01 0.  0.
         14    1    1    2    0    0 -0.20408685877E-01 -0.10063070609E-01 -0.54351040264E-02  0.23394875616E-01  0.00000000000E+00 0.  1.
     999901    1    3    3    0    0 -0.77972935664E-01 -0.22633090693E-01  0.85600472460E-01  0.88787357004E+00  0.88000000000E+00 0. -1.
        -11    1    4    4    0    0  0.29939920522E-01  0.28724498207E-02 -0.31418146133E-01  0.43497250904E-01  0.51100000000E-03 0.  1.
         11    1    4    4    0    0  0.68441701019E-01  0.29823711481E-01 -0.48747222301E-01  0.89164303440E-01  0.51100000000E-03 0. -1.
</event>
<event>
 8    1  0.1060404E+005  0.1043930E+01  0.7957747E-01            NaN
         13   -1    0    0    0    0  0.00000000000E+00  0.00000000000E+00  0.74505805969E-08  0.10566000000E+00  0.10566000000E+00 0. -1.
     999900   -1    0    0    0    0 -0.00000000000E+00 -0.00000000000E+00 -0.74505805969E-08  0.93827000000E+00  0.93827000000E+00 0.  1.
     999902    2    1    2    0    0  0.20805452724E-01 -0.23539492556E-02 -0.10652381934E-01  0.10204378485E+01  0.10201673988E+01 0.  0.
     999903    2    3    3    0    0  0.12010459644E+00  0.24883657648E-01 -0.48745435229E-01  0.13361583262E+00  0.20802950940E-01 0.  0.
         14    1    1    2    0    0 -0.20805452724E-01  0.23539492556E-02  0.10652381934E-01  0.23492151477E-01  0.00000000000E+00 0.  1.
     999901    1    3    3    0    0 -0.99299143718E-01 -0.27237606903E-01  0.38093053295E-01  0.88682201590E+00  0.88000000000E+00 0. -1.
        -11    1    4    4    0    0  0.48607351606E-01  0.36958143489E-03 -0.22891211422E-01  0.53731554062E-01  0.51100000000E-03 0.  1.
         11    1    4    4    0    0  0.71497244836E-01  0.24514076213E-01 -0.25854223807E-01  0.79884278562E-01  0.51100000000E-03 0. -1.
</event>
<event>
 8    1  0.1060404E+005  0.1043930E+01  0.7957747E-01            NaN
         13   -1    0    0    0    0  0.00000000000E+00  0.00000000000E+00  0.74505805969E-08  0.10566000000E+00  0.10566000000E+00 0.  1.
     999900   -1    0    0    0    0 -0.00000000000E+00 -0.00000000000E+00 -0.74505805969E-08  0.93827000000E+00  0.93827000000E+00 0.  1.
     999902    2    1    2    0    0  0.95280958168E-02  0.90258054877E-02 -0.19350146644E-01  0.10205488548E+01  0.10202809844E+01 0.  0.
     999903    2    3    3    0    0  0.48536400319E-01  0.76545394006E-01 -0.97089637798E-01  0.13368698782E+00  0.15193203956E-01 0.  0.
         14    1    1    2    0    0 -0.95280958168E-02 -0.90258054877E-02  0.19350146644E-01  0.23381145176E-01  0.00000000000E+00 0.  1.
     999901    1    3    3    0    0 -0.39008304503E-01 -0.67519588518E-01  0.77739491154E-01  0.88686186700E+00  0.88000000000E+00 0. -1.
        -11    1    4    4    0    0  0.22390808269E-01  0.21960945666E-01 -0.34017081721E-01  0.46271529036E-01  0.51100000000E-03 0.  1.
         11    1    4    4    0    0  0.26145592050E-01  0.54584448339E-01 -0.63072556077E-01  0.87415458789E-01  0.51100000000E-03 0. -1.
</event>
<event>
 8    1  0.1060404E+005  0.1043930E+01  0.7957747E-01            NaN
         13   -1    0    0    0    0  0.00000000000E+00  0.00000000000E+00  0.74505805969E-08  0.10566000000E+00  0.10566000000E+00 0.  1.
     999900   -1    0    0    0    0 -0.00000000000E+00 -0.00000000000E+00 -0.74505805969E-08  0.93827000000E+00  0.93827000000E+00 0.  1.
     999902    2    1    2    0    0  0.11902920625E-01 -0.12178357042E-01 -0.17864388503E-01  0.10192494758E+01  0.10189506198E+01 0.  0.
     999903    2    3    3    0    0  0.93599115068E-01  0.75410385824E-02 -0.90950589234E-01  0.13222934326E+00  0.19872793745E-01 0.  0.
         14    1    1    2    0    0 -0.11902920625E-01  0.12178357042E-01  0.17864388503E-01  0.24680524230E-01  0.00000000000E+00 0.  1.
     999901    1    3    3    0    0 -0.81696194444E-01 -0.19719395625E-01  0.73086200730E-01  0.88702013252E+00  0.88000000000E+00 0. -1.
        -11    1    4    4    0    0  0.34401006968E-01 -0.20672865275E-02 -0.22210640568E-01  0.41003373391E-01  0.51100000000E-03 0. -1.
         11    1    4    4    0    0  0.59198108100E-01  0.96083251098E-02 -0.68739948666E-01  0.91225969864E-01  0.51100000000E-03 0.  1.
</event>
<event>
 8    1  0.1060404E+005  0.1043930E+01  0.7957747E-01            NaN
         13   -1    0    0    0    0  0.00000000000E+00  0.00000000000E+00  0.74505805969E-08  0.10566000000E+00  0.10566000000E+00 0. -1.
     999900   -1    0    0    0    0 -0.00000000000E+00 -0.00000000000E+00 -0.74505805969E-08  0.93827000000E+00  0.93827000000E+00 0. -1.
     999902    2    1    2    0    0 -0.17026224731E-01  0.88881013807E-02 -0.18420445142E-01  0.10173179074E+01  0.10169697740E+01 0.  0.
     999903    2    3    3    0    0 -0.10527455327E+00  0.28729267076E-02  0.70570384472E-01  0.12841784687E+00  0.20493388083E-01 0.  0.
         14    1    1    2    0    0  0.17026224731E-01 -0.88881013807E-02  0.18420445142E-01  0.26612092627E-01  0.00000000000E+00 0. -1.
     999901    1    3    3    0    0  0.88248328538E-01  0.60151746731E-02 -0.88990829614E-01  0.88890006051E+00  0.88000000000E+00 0. -1.
        -11    1    4    4    0    0 -0.46094372345E-01 -0.38153507574E-03  0.19033312128E-01  0.49873488172E-01  0.51100000000E-03 0.  1.
         11    1    4    4    0    0 -0.59180180923E-01  0.32544617834E-02  0.51537072344E-01  0.78544358693E-01  0.51100000000E-03 0. -1.
</event>
<event>
 8    1  0.1060404E+005  0.1043930E+01  0.7957747E-01            NaN
         13   -1    0    0    0    0  0.00000000000E+00  0.00000000000E+00  0.74505805969E-08  0.10566000000E+00  0.10566000000E+00 0.  1.
     999900   -1    0    0    0    0 -0.00000000000E+00 -0.00000000000E+00 -0.74505805969E-08  0.93827000000E+00  0.93827000000E+00 0.  1.
     999902    2    1    2    0    0 -0.10628295382E-02 -0.24497905849E-01  0.60956433125E-02  0.10186627511E+01  0.10183493343E+01 0.  0.
     999903    2    3    3    0    0  0.22520340128E-01  0.70235874637E-01  0.10283224938E+00  0.12799523404E+00  0.19185010298E-01 0.  0.
         14    1    1    2    0    0  0.10628295382E-02  0.24497905849E-01 -0.60956433125E-02  0.25267248861E-01  0.00000000000E+00 0.  1.
     999901    1    3    3    0    0 -0.23583169667E-01 -0.94733780486E-01 -0.96736606066E-01  0.89066751710E+00  0.88000000000E+00 0.  1.
        -11    1    4    4    0    0  0.25450948722E-01  0.60057466976E-01  0.92527209870E-01  0.11320863844E+00  0.51100000000E-03 0. -1.
         11    1    4    4    0    0 -0.29306085931E-02  0.10178407660E-01  0.10305039508E-01  0.14786595602E-01  0.51100000000E-03 0.  1.
</event>
<event>
 8    1  0.1060404E+005  0.1043930E+01  0.7957747E-01            NaN
         13   -1    0    0    0    0  0.00000000000E+00  0.00000000000E+00  0.74505805969E-08  0.10566000000E+00  0.10566000000E+00 0. -1.
     999900   -1    0    0    0    0 -0.00000000000E+00 -0.00000000000E+00 -0.74505805969E-08  0.93827000000E+00  0.93827000000E+00 0. -1.
     999902    2    1    2    0    0  0.23127892841E-01  0.22779110113E-02  0.66193962365E-02  0.10197658796E+01  0.10194795459E+01 0.  0.
     999903    2    3    3    0    0 -0.10456059521E+00 -0.78138788524E-02  0.70890443473E-01  0.12817350546E+00  0.20224187290E-01 0.  0.
         14    1    1    2    0    0 -0.23127892841E-01 -0.22779110113E-02 -0.66193962365E-02  0.24164120352E-01  0.00000000000E+00 0.  1.
     999901    1    3    3    0    0  0.12768848805E+00  0.10091789864E-01 -0.64271047236E-01  0.89159237419E+00  0.88000000000E+00 0. -1.
        -11    1    4    4    0    0 -0.59769364915E-01 -0.86107953308E-02  0.29625010631E-01  0.67263847307E-01  0.51100000000E-03 0. -1.
         11    1    4    4    0    0 -0.44791230296E-01  0.79691647839E-03  0.41265432842E-01  0.60909658150E-01  0.51100000000E-03 0.  1.
</event>
<event>
 8    1  0.1060404E+005  0.1043930E+01  0.7957747E-01            NaN
         13   -1    0    0    0    0  0.00000000000E+00  0.00000000000E+00  0.74505805969E-08  0.10566000000E+00  0.10566000000E+00 0.  1.
     999900   -1    0    0    0    0 -0.00000000000E+00 -0.00000000000E+00 -0.74505805969E-08  0.93827000000E+00  0.93827000000E+00 0. -1.
     999902    2    1    2    0    0 -0.23468246101E-01  0.29060461905E-02  0.22564239245E-02  0.10201751031E+01  0.10198984978E+01 0.  0.
     999903    2    3    3    0    0 -0.48088515905E-01 -0.91020942182E-01  0.79582820854E-01  0.13146378408E+00  0.18761233213E-01 0.  0.
         14    1    1    2    0    0  0.23468246101E-01 -0.29060461905E-02 -0.22564239245E-02  0.23754896936E-01  0.00000000000E+00 0.  1.
     999901    1    3    3    0    0  0.24620269804E-01  0.93926988372E-01 -0.77326396929E-01  0.88871131898E+00  0.88000000000E+00 0. -1.
        -11    1    4    4    0    0 -0.45512704586E-01 -0.73478859937E-01  0.70479855840E-01  0.11152676960E+00  0.51100000000E-03 0.  1.
         11    1    4    4    0    0 -0.25758113189E-02 -0.17542082244E-01  0.91029650137E-02  0.19937014482E-01  0.51100000000E-03 0. -1.
</event>
<event>
 8    1  0.1060404E+005  0.1043930E+01  0.7957747E-01            NaN
         13   -1    0    0    0    0  0.00000000000E+00  0.00000000000E+00  0.74505805969E-08  0.10566000000E+00  0.10566000000E+00 0.  1.
     999900   -1    0    0    0    0 -0.00000000000E+00 -0.00000000000E+00 -0.74505805969E-08  0.93827000000E+00  0.93827000000E+00 0.  1.
     999902    2    1    2    0    0  0.17443343425E-02  0.16622244058E-01  0.16256984553E-01  0.10206140988E+01  0.10203477385E+01 0.  0.
     999903    2    3    3    0    0 -0.10970388743E+00 -0.54496491177E-01  0.40562807057E-01  0.13040662098E+00  0.18860938767E-01 0.  0.
         14    1    1    2    0    0 -0.17443343425E-02 -0.16622244058E-01 -0.16256984553E-01  0.23315901153E-01  0.00000000000E+00 0. -1.
     999901    1    3    3    0    0  0.11144822178E+00  0.71118735236E-01 -0.24305822504E-01  0.89020747786E+00  0.88000000000E+00 0.  1.
        -11    1    4    4    0    0 -0.24318952061E-01 -0.15003662916E-01  0.17359395638E-02  0.28632078817E-01  0.51100000000E-03 0.  1.
         11    1    4    4    0    0 -0.85384935372E-01 -0.39492828261E-01  0.38826867493E-01  0.10177454217E+00  0.51100000000E-03 0. -1.
</event>
<event>
 8    1  0.1060404E+005  0.1043930E+01  0.7957747E-01            NaN
         13   -1    0    0    0    0  0.00000000000E+00  0.00000000000E+00  0.74505805969E-08  0.10566000000E+00  0.10566000000E+00 0.  1.
     999900   -1    0    0    0    0 -0.00000000000E+00 -0.00000000000E+00 -0.74505805969E-08  0.93827000000E+00  0.93827000000E+00 0.  1.
     999902    2    1    2    0    0 -0.30944290174E-02 -0.22070078664E-01  0.61003660331E-02  0.10208241927E+01  0.10205626655E+01 0.  0.
     999903    2    3    3    0    0 -0.97784973214E-01  0.58960312799E-01 -0.57951725793E-01  0.12973783668E+00  0.20863467393E-01 0.  0.
         14    1    1    2    0    0  0.30944290174E-02  0.22070078664E-01 -0.61003660331E-02  0.23105807255E-01  0.00000000000E+00 0. -1.
     999901    1    3    3    0    0  0.94690544197E-01 -0.81030391463E-01  0.64052091827E-01  0.89108635607E+00  0.88000000000E+00 0.  1.
        -11    1    4    4    0    0 -0.48408512274E-01  0.26092504739E-01 -0.16659327008E-01  0.57463006895E-01  0.51100000000E-03 0. -1.
         11    1    4    4    0    0 -0.49376460940E-01  0.32867808060E-01 -0.41292398785E-01  0.72274829783E-01  0.51100000000E-03 0.  1.
</event>
<event>
 8    1  0.1060404E+005  0.1043930E+01  0.7957747E-01            NaN
         13   -1    0    0    0    0  0.00000000000E+00  0.00000000000E+00  0.74505805969E-08  0.10566000000E+00  0.10566000000E+00 0. -1.
     999900   -1    0    0    0    0 -0.00000000000E+00 -0.00000000000E+00 -0.74505805969E-08  0.93827000000E+00  0.93827000000E+00 0.  1.
     999902    2    1    2    0    0 -0.23963398590E-01 -0.18958941861E-02 -0.77707081612E-03  0.10198791637E+01  0.10195955403E+01 0.  0.
     999903    2    3    3    0    0  0.88193170542E-01 -0.57029219752E-02 -0.90770113438E-01  0.12819966010E+00  0.19631115761E-01 0.  0.
         14    1    1    2    0    0  0.23963398590E-01  0.18958941861E-02  0.77707081612E-03  0.24050836281E-01  0.00000000000E+00 0.  1.
     999901    1    3    3    0    0 -0.11215656913E+00  0.38070277891E-02  0.89993042622E-01  0.89167950362E+00  0.88000000000E+00 0.  1.
        -11    1    4    4    0    0  0.30370193473E-01 -0.16916863536E-02 -0.18689464697E-01  0.35703888667E-01  0.51100000000E-03 0.  1.
         11    1    4    4    0    0  0.57822977068E-01 -0.40112356216E-02 -0.72080648742E-01  0.92495771429E-01  0.51100000000E-03 0. -1.
</event>
<event>
 8    1  0.1060404E+005  0.1043930E+01  0.7957747E-01            NaN
         13   -1    0    0    0    0  0.00000000000E+00  0.00000000000E+00  0.74505805969E-08  0.10566000000E+00  0.10566000000E+00 0.  1.
     999900   -1    0    0    0    0 -0.00000000000E+00 -0.00000000000E+00 -0.74505805969E-08  0.93827000000E+00  0.93827000000E+00 0.  1.
     999902    2    1    2    0    0  0.11482064780E-01 -0.19751136086E-01 -0.51541058557E-02  0.10205097097E+01  0.10202409312E+01 0.  0.
     999903    2    3    3    0    0  0.73821055014E-01 -0.99287492424E-01  0.45315403099E-01  0.13328969587E+00  0.20127169528E-01 0.  0.
         14    1    1    2    0    0 -0.11482064780E-01  0.19751136086E-01  0.51541058557E-02  0.23420290252E-01  0.00000000000E+00 0. -1.
     999901    1    3    3    0    0 -0.62338990234E-01  0.79536356337E-01 -0.50469508955E-01  0.88722001387E+00  0.88000000000E+00 0. -1.
        -11    1    4    4    0    0  0.14819165132E-01 -0.17240879432E-01  0.16833429410E-01  0.28292773733E-01  0.51100000000E-03 0. -1.
         11    1    4    4    0    0  0.59001889882E-01 -0.82046612992E-01  0.28481973689E-01  0.10499692214E+00  0.51100000000E-03 0.  1.
</event>
<event>
 8    1  0.1060404E+005  0.1043930E+01  0.7957747E-01            NaN
         13   -1    0    0    0    0  0.00000000000E+00  0.00000000000E+00  0.74505805969E-08  0.10566000000E+00  0.10566000000E+00 0.  1.
     999900   -1    0    0    0    0 -0.00000000000E+00 -0.00000000000E+00 -0.74505805969E-08  0.93827000000E+00  0.93827000000E+00 0.  1.
     999902    2    1    2    0    0 -0.22265038729E-01 -0.86645587109E-02 -0.17501574495E-01  0.10143139294E+01  0.10138814703E+01 0.  0.
     999903    2    3    3    0    0  0.82949694754E-01 -0.42987459149E-01 -0.79887966413E-01  0.12519061764E+00  0.23707173262E-01 0.  0.
         14    1    1    2    0    0  0.22265038729E-01  0.86645587109E-02  0.17501574495E-01  0.29616070588E-01  0.00000000000E+00 0.  1.
     999901    1    3    3    0    0 -0.10521473348E+00  0.34322900438E-01  0.62386391918E-01  0.88912331177E+00  0.88000000000E+00 0.  1.
        -11    1    4    4    0    0  0.31566198803E-01 -0.11446107282E-01 -0.42804815261E-01  0.54405437314E-01  0.51100000000E-03 0. -1.
         11    1    4    4    0    0  0.51383495951E-01 -0.31541351867E-01 -0.37083151152E-01  0.70785180328E-01  0.51100000000E-03 0.  1.
</event>
<event>
 8    1  0.1060404E+005  0.1043930E+01  0.7957747E-01            NaN
         13   -1    0    0    0    0  0.00000000000E+00  0.00000000000E+00  0.74505805969E-08  0.10566000000E+00  0.10566000000E+00 0. -1.
     999900   -1    0    0    0    0 -0.00000000000E+00 -0.00000000000E+00 -0.74505805969E-08  0.93827000000E+00  0.93827000000E+00 0.  1.
     999902    2    1    2    0    0  0.21341803180E-01 -0.20281201809E-02 -0.10278262056E-01  0.10201554652E+01  0.10198783970E+01 0.  0.
     999903    2    3    3    0    0  0.75082230424E-01  0.67910432470E-01 -0.83553695577E-01  0.13271604539E+00  0.19574485810E-01 0.  0.
         14    1    1    2    0    0 -0.21341803180E-01  0.20281201809E-02  0.10278262056E-01  0.23774534808E-01  0.00000000000E+00 0.  1.
     999901    1    3    3    0    0 -0.53740427244E-01 -0.69938552651E-01  0.73275433522E-01  0.88743941981E+00  0.88000000000E+00 0. -1.
        -11    1    4    4    0    0  0.66290750233E-01  0.49945143929E-01 -0.64912676452E-01  0.10537028829E+00  0.51100000000E-03 0.  1.
         11    1    4    4    0    0  0.87914801911E-02  0.17965288541E-01 -0.18641019126E-01  0.27345757100E-01  0.51100000000E-03 0. -1.
</event>
<event>
 8    1  0.1060404E+005  0.1043930E+01  0.7957747E-01            NaN
         13   -1    0    0    0    0  0.00000000000E+00  0.00000000000E+00  0.74505805969E-08  0.10566000000E+00  0.10566000000E+00 0. -1.
     999900   -1    0    0    0    0 -0.00000000000E+00 -0.00000000000E+00 -0.74505805969E-08  0.93827000000E+00  0.93827000000E+00 0.  1.
     999902    2    1    2    0    0 -0.14570193819E-01  0.11828962636E-01 -0.14237327323E-01  0.10203733365E+01  0.10201013820E+01 0.  0.
     999903    2    3    3    0    0 -0.57628258719E-01  0.11103229655E+00  0.37931674702E-01  0.13221968811E+00  0.19850614569E-01 0.  0.
         14    1    1    2    0    0  0.14570193819E-01 -0.11828962636E-01  0.14237327323E-01  0.23556663479E-01  0.00000000000E+00 0. -1.
     999901    1    3    3    0    0  0.43058064900E-01 -0.99203333911E-01 -0.52169002025E-01  0.88815364841E+00  0.88000000000E+00 0.  1.
        -11    1    4    4    0    0 -0.25762954443E-01  0.65699950186E-01  0.27994026952E-01  0.75921933208E-01  0.51100000000E-03 0. -1.
         11    1    4    4    0    0 -0.31865304276E-01  0.45332346362E-01  0.99376477495E-02  0.56297754903E-01  0.51100000000E-03 0.  1.
</event>
<event>
 8    1  0.1060404E+005  0.1043930E+01  0.7957747E-01            NaN
         13   -1    0    0    0    0  0.00000000000E+00  0.00000000000E+00  0.74505805969E-08  0.10566000000E+00  0.10566000000E+00 0. -1.
     999900   -1    0    0    0    0 -0.00000000000E+00 -0.00000000000E+00 -0.74505805969E-08  0.93827000000E+00  0.93827000000E+00 0.  1.
     999902    2    1    2    0    0 -0.17377761494E-01 -0.37691737833E-02  0.15521484003E-01  0.10203268279E+01  0.10200537859E+01 0.  0.
     999903    2    3    3    0    0 -0.12584287251E+00  0.35437578828E-01 -0.75644490953E-02  0.13250093844E+00  0.20174916162E-01 0.  0.
         14    1    1    2    0    0  0.17377761494E-01  0.37691737833E-02 -0.15521484003E-01  0.23603172058E-01  0.00000000000E+00 0.  1.
     999901    1    3    3    0    0  0.10846511102E+00 -0.39206752611E-01  0.23085933098E-01  0.88782588950E+00  0.88000000000E+00 0.  1.
        -11    1    4    4    0    0 -0.78898341392E-01  0.31934954797E-01 -0.71986395227E-02  0.85421725247E-01  0.51100000000E-03 0. -1.
         11    1    4    4    0    0 -0.46944531122E-01  0.35026240311E-02 -0.36580957256E-03  0.47079213195E-01  0.51100000000E-03 0.  1.
</event>
<event>
 8    1  0.1060404E+005  0.1043930E+01  0.7957747E-01            NaN
         13   -1    0    0    0    0  0.00000000000E+00  0.00000000000E+00  0.74505805969E-08  0.10566000000E+00  0.10566000000E+00 0. -1.
     999900   -1    0    0    0    0 -0.00000000000E+00 -0.00000000000E+00 -0.74505805969E-08  0.93827000000E+00  0.93827000000E+00 0.  1.
     999902    2    1    2    0    0  0.43687160007E-02 -0.19314686050E-01 -0.14704736812E-01  0.10192648006E+01  0.10189663202E+01 0.  0.
     999903    2    3    3    0    0 -0.52588800338E-02 -0.12023618913E+00 -0.51833860104E-01  0.13266657582E+00  0.20718935548E-01 0.  0.
         14    1    1    2    0    0 -0.43687160007E-02  0.19314686050E-01  0.14704736812E-01  0.24665199399E-01  0.00000000000E+00 0. -1.
     999901    1    3    3    0    0  0.96275960344E-02  0.10092150308E+00  0.37129123292E-01  0.88659822478E+00  0.88000000000E+00 0. -1.
        -11    1    4    4    0    0 -0.31235173992E-02 -0.75800643305E-01 -0.43339560096E-01  0.87373179390E-01  0.51100000000E-03 0. -1.
         11    1    4    4    0    0 -0.21353626345E-02 -0.44435545826E-01 -0.84943000079E-02  0.45293396429E-01  0.51100000000E-03 0.  1.
</event>
<event>
 8    1  0.1060404E+005  0.1043930E+01  0.7957747E-01            NaN
         13   -1    0    0    0    0  0.00000000000E+00  0.00000000000E+00  0.74505805969E-08  0.10566000000E+00  0.10566000000E+00 0. -1.
     999900   -1    0    0    0    0 -0.00000000000E+00 -0.00000000000E+00 -0.74505805969E-08  0.93827000000E+00  0.93827000000E+00 0. -1.
     999902    2    1    2    0    0 -0.10944237205E-01  0.11545370289E-01 -0.17651965334E-01  0.10201673448E+01  0.10198905567E+01 0.  0.
     999903    2    3    3    0    0  0.90819386996E-01  0.91378243458E-01 -0.85204894662E-02  0.13066607626E+00  0.20071878624E-01 0.  0.
         14    1    1    2    0    0  0.10944237205E-01 -0.11545370289E-01  0.17651965334E-01  0.23762655223E-01  0.00000000000E+00 0. -1.
     999901    1    3    3    0    0 -0.10176362420E+00 -0.79832873169E-01 -0.91314758681E-02  0.88950126852E+00  0.88000000000E+00 0. -1.
        -11    1    4    4    0    0  0.37520160488E-01  0.26145437775E-01  0.19629738536E-02  0.45776202844E-01  0.51100000000E-03 0.  1.
         11    1    4    4    0    0  0.53299226508E-01  0.65232805683E-01 -0.10483463320E-01  0.84889873412E-01  0.51100000000E-03 0. -1.
</event>
<event>
 8    1  0.1060404E+005  0.1043930E+01  0.7957747E-01            NaN
         13   -1    0    0    0    0  0.00000000000E+00  0.00000000000E+00  0.74505805969E-08  0.10566000000E+00  0.10566000000E+00 0. -1.
     999900   -1    0    0    0    0 -0.00000000000E+00 -0.00000000000E+00 -0.74505805969E-08  0.93827000000E+00  0.93827000000E+00 0. -1.
     999902    2    1    2    0    0 -0.20978180479E-01  0.72915181048E-02 -0.35997351102E-02  0.10214309248E+01  0.10211831010E+01 0.  0.
     999903    2    3    3    0    0  0.96928725533E-01 -0.80654060546E-01 -0.19587943467E-01  0.12907892804E+00  0.19427475895E-01 0.  0.
         14    1    1    2    0    0  0.20978180479E-01 -0.72915181048E-02  0.35997351102E-02  0.22499075211E-01  0.00000000000E+00 0.  1.
     999901    1    3    3    0    0 -0.11790690601E+00  0.87945578651E-01  0.15988208357E-01  0.89235199675E+00  0.88000000000E+00 0. -1.
        -11    1    4    4    0    0  0.79154533715E-01 -0.59398716842E-01 -0.21598911587E-01  0.10129374054E+00  0.51100000000E-03 0.  1.
         11    1    4    4    0    0  0.17774191818E-01 -0.21255343705E-01  0.20109681201E-02  0.27785187503E-01  0.51100000000E-03 0. -1.
</event>
<event>
 8    1  0.1060404E+005  0.1043930E+01  0.7957747E-01            NaN
         13   -1    0    0    0    0  0.00000000000E+00  0.00000000000E+00  0.74505805969E-08  0.10566000000E+00  0.10566000000E+00 0. -1.
     999900   -1    0    0    0    0 -0.00000000000E+00 -0.00000000000E+00 -0.74505805969E-08  0.93827000000E+00  0.93827000000E+00 0.  1.
     999902    2    1    2    0    0  0.78263538987E-02  0.21815786427E-01  0.35739686224E-02  0.10204789104E+01  0.10202094162E+01 0.  0.
     999903    2    3    3    0    0 -0.28430033022E-02 -0.10747259624E+00 -0.66933834805E-01  0.12817813630E+00  0.19775104864E-01 0.  0.
         14    1    1    2    0    0 -0.78263538987E-02 -0.21815786427E-01 -0.35739686224E-02  0.23451089623E-01  0.00000000000E+00 0.  1.
     999901    1    3    3    0    0  0.10669357201E-01  0.12928838267E+00  0.70507803428E-01  0.89230077408E+00  0.88000000000E+00 0. -1.
        -11    1    4    4    0    0  0.76820133727E-02 -0.61368312669E-01 -0.34362517238E-01  0.70753988164E-01  0.51100000000E-03 0.  1.
         11    1    4    4    0    0 -0.10525016675E-01 -0.46104283574E-01 -0.32571317567E-01  0.57424148134E-01  0.51100000000E-03 0. -1.
</event>
<event>
 8    1  0.1060404E+005  0.1043930E+01  0.7957747E-01            NaN
         13   -1    0    0    0    0  0.00000000000E+00  0.00000000000E+00  0.74505805969E-08  0.10566000000E+00  0.10566000000E+00 0. -1.
     999900   -1    0    0    0    0 -0.00000000000E+00 -0.00000000000E+00 -0.74505805969E-08  0.93827000000E+00  0.93827000000E+00 0.  1.
     999902    2    1    2    0    0 -0.23472441829E-01 -0.73133506589E-02 -0.63535359320E-02  0.10185369292E+01  0.10182203436E+01 0.  0.
     999903    2    3    3    0    0  0.10457605492E+00  0.58971355772E-01  0.32266082392E-01  0.12596673327E+00  0.20316145189E-01 0.  0.
         14    1    1    2    0    0  0.23472441829E-01  0.73133506589E-02  0.63535359320E-02  0.25393070750E-01  0.00000000000E+00 0.  1.
     999901    1    3    3    0    0 -0.12804849675E+00 -0.66284706431E-01 -0.38619618324E-01  0.89257019598E+00  0.88000000000E+00 0.  1.
        -11    1    4    4    0    0  0.55175983779E-01  0.38711240887E-01  0.25836089010E-01  0.72185275323E-01  0.51100000000E-03 0. -1.
         11    1    4    4    0    0  0.49400071137E-01  0.20260114885E-01  0.64299933816E-02  0.53781457951E-01  0.51100000000E-03 0.  1.
</event>
<event>
 8    1  0.1060404E+005  0.1043930E+01  0.7957747E-01            NaN
         13   -1    0    0    0    0  0.00000000000E+00  0.00000000000E+00  0.74505805969E-08  0.10566000000E+00  0.10566000000E+00 0.  1.
     999900   -1    0    0    0    0 -0.00000000000E+00 -0.00000000000E+00 -0.74505805969E-08  0.93827000000E+00  0.93827000000E+00 0. -1.
     999902    2    1    2    0    0  0.13104331542E-01  0.62551353374E-02  0.11374686481E-01  0.10254845747E+01  0.10253186720E+01 0.  0.
     999903    2    3    3    0    0 -0.12482875540E-01 -0.10377080566E+00 -0.80389882949E-01  0.13353101698E+00  0.21066488249E-01 0.  0.
         14    1    1    2    0    0 -0.13104331542E-01 -0.62551353374E-02 -0.11374686481E-01  0.18445425335E-01  0.00000000000E+00 0. -1.
     999901    1    3    3    0    0  0.25587207083E-01  0.11002594100E+00  0.91764569429E-01  0.89195355768E+00  0.88000000000E+00 0.  1.
        -11    1    4    4    0    0  0.30186493041E-03 -0.36988319451E-01 -0.39814796531E-01  0.54348008630E-01  0.51100000000E-03 0. -1.
         11    1    4    4    0    0 -0.12784740471E-01 -0.66782486209E-01 -0.40575086418E-01  0.79183008354E-01  0.51100000000E-03 0.  1.
</event>
<event>
 8    1  0.1060404E+005  0.1043930E+01  0.7957747E-01            NaN
         13   -1    0    0    0    0  0.00000000000E+00  0.00000000000E+00  0.74505805969E-08  0.10566000000E+00  0.10566000000E+00 0.  1.
     999900   -1    0    0    0    0 -0.00000000000E+00 -0.00000000000E+00 -0.74505805969E-08  0.93827000000E+00  0.93827000000E+00 0. -1.
     999902    2    1    2    0    0  0.22678838360E-01 -0.41060973164E-02 -0.63840834594E-02  0.10200146019E+01  0.10197342016E+01 0.  0.
     999903    2    3    3    0    0  0.74319493220E-01  0.96912114224E-01  0.43603695095E-01  0.13132443413E+00  0.20723894834E-01 0.  0.
         14    1    1    2    0    0 -0.22678838360E-01  0.41060973164E-02  0.63840834594E-02  0.23915398097E-01  0.00000000000E+00 0. -1.
     999901    1    3    3    0    0 -0.51640654860E-01 -0.10101821154E+00 -0.49987778554E-01  0.88869016778E+00  0.88000000000E+00 0. -1.
        -11    1    4    4    0    0  0.70069418474E-01  0.79634996765E-01  0.37480740917E-01  0.11250121411E+00  0.51100000000E-03 0.  1.
         11    1    4    4    0    0  0.42500747456E-02  0.17277117459E-01  0.61229541776E-02  0.18823220019E-01  0.51100000000E-03 0. -1.
</event>
<event>
 8    1  0.1060404E+005  0.1043930E+01  0.7957747E-01            NaN
         13   -1    0    0    0    0  0.00000000000E+00  0.00000000000E+00  0.74505805969E-08  0.10566000000E+00  0.10566000000E+00 0.  1.
     999900   -1    0    0    0    0 -0.00000000000E+00 -0.00000000000E+00 -0.74505805969E-08  0.93827000000E+00  0.93827000000E+00 0. -1.
     999902    2    1    2    0    0 -0.83771074178E-03  0.17854201130E-01  0.12521656962E-01  0.10221064771E+01  0.10218734679E+01 0.  0.
     999903    2    3    3    0    0  0.85839258612E-01 -0.92902706272E-01 -0.22464618575E-01  0.13025221268E+00  0.21486941790E-01 0.  0.
         14    1    1    2    0    0  0.83771074178E-03 -0.17854201130E-01 -0.12521656962E-01  0.21823522868E-01  0.00000000000E+00 0. -1.
     999901    1    3    3    0    0 -0.86676969354E-01  0.11075690740E+00  0.34986275537E-01  0.89185426446E+00  0.88000000000E+00 0. -1.
        -11    1    4    4    0    0  0.31487814162E-01 -0.20273812651E-01 -0.38944219234E-02  0.37655511724E-01  0.51100000000E-03 0. -1.
         11    1    4    4    0    0  0.54351444450E-01 -0.72628893621E-01 -0.18570196652E-01  0.92596700952E-01  0.51100000000E-03 0.  1.
</event>
<event>
 8    1  0.1060404E+005  0.1043930E+01  0.7957747E-01            NaN
         13   -1    0    0    0    0  0.00000000000E+00  0.00000000000E+00  0.74505805969E-08  0.10566000000E+00  0.10566000000E+00 0.  1.
     999900   -1    0    0    0    0 -0.00000000000E+00 -0.00000000000E+00 -0.74505805969E-08  0.93827000000E+00  0.93827000000E+00 0. -1.
     999902    2    1    2    0    0  0.20081747848E-01 -0.54869431441E-02 -0.12450769119E-01  0.10196729434E+01  0.10193843764E+01 0.  0.
     999903    2    3    3    0    0  0.89049446552E-01 -0.36695495874E-03 -0.96869562862E-01  0.13293211857E+00  0.18902310724E-01 0.  0.
         14    1    1    2    0    0 -0.20081747848E-01  0.54869431441E-02  0.12450769119E-01  0.24257056568E-01  0.00000000000E+00 0.  1.
     999901    1    3    3    0    0 -0.68967698704E-01 -0.51199881854E-02  0.84418793743E-01  0.88674082486E+00  0.88000000000E+00 0.  1.
        -11    1    4    4    0    0  0.56898214715E-01  0.57355144009E-02 -0.71283711482E-01  0.91388903084E-01  0.51100000000E-03 0. -1.
         11    1    4    4    0    0  0.32151231837E-01 -0.61024693596E-02 -0.25585851380E-01  0.41543215484E-01  0.51100000000E-03 0.  1.
</event>
<event>
 8    1  0.1060404E+005  0.1043930E+01  0.7957747E-01            NaN
         13   -1    0    0    0    0  0.00000000000E+00  0.00000000000E+00  0.74505805969E-08  0.10566000000E+00  0.10566000000E+00 0.  1.
     999900   -1    0    0    0    0 -0.00000000000E+00 -0.00000000000E+00 -0.74505805969E-08  0.93827000000E+00  0.93827000000E+00 0.  1.
     999902    2    1    2    0    0  0.17844171161E-02  0.40590777628E-02  0.23840339705E-01  0.10196808340E+01  0.10193924568E+01 0.  0.
     999903    2    3    3    0    0 -0.78516490762E-01 -0.84326459684E-01  0.59839196711E-01  0.13088605632E+00  0.16572240420E-01 0.  0.
         14    1    1    2    0    0 -0.17844171161E-02 -0.40590777628E-02 -0.23840339705E-01  0.24249166047E-01  0.00000000000E+00 0. -1.
     999901    1    3    3    0    0  0.80300907878E-01  0.88385537447E-01 -0.35998857005E-01  0.88879477763E+00  0.88000000000E+00 0. -1.
        -11    1    4    4    0    0 -0.25096165808E-01 -0.35872904225E-01  0.28545336803E-01  0.52266434449E-01  0.51100000000E-03 0.  1.
         11    1    4    4    0    0 -0.53420324954E-01 -0.48453555459E-01  0.31293859907E-01  0.78619621874E-01  0.51100000000E-03 0. -1.
</event>
<event>
 8    1  0.1060404E+005  0.1043930E+01  0.7957747E-01            NaN
         13   -1    0    0    0    0  0.00000000000E+00  0.00000000000E+00  0.74505805969E-08  0.10566000000E+00  0.10566000000E+00 0.  1.
     999900   -1    0    0    0    0 -0.00000000000E+00 -0.00000000000E+00 -0.74505805969E-08  0.93827000000E+00  0.93827000000E+00 0. -1.
     999902    2    1    2    0    0 -0.13099015735E-01 -0.14640846931E-01  0.12505823197E-01  0.10206419295E+01  0.10203762120E+01 0.  0.
     999903    2    3    3    0    0 -0.52531612267E-01  0.69321623796E-01  0.97078304041E-01  0.13173409929E+00  0.19094972817E-01 0.  0.
         14    1    1    2    0    0  0.13099015735E-01  0.14640846931E-01 -0.12505823197E-01  0.23288070463E-01  0.00000000000E+00 0. -1.
     999901    1    3    3    0    0  0.39432596533E-01 -0.83962470727E-01 -0.84572480843E-01  0.88890783025E+00  0.88000000000E+00 0. -1.
        -11    1    4    4    0    0 -0.43993298211E-01  0.43600309392E-01  0.67153025299E-01  0.91357469287E-01  0.51100000000E-03 0. -1.
         11    1    4    4    0    0 -0.85383140560E-02  0.25721314404E-01  0.29925278742E-01  0.40376630002E-01  0.51100000000E-03 0.  1.
</event>
<event>
 8    1  0.1060404E+005  0.1043930E+01  0.7957747E-01            NaN
         13   -1    0    0    0    0  0.00000000000E+00  0.00000000000E+00  0.74505805969E-08  0.10566000000E+00  0.10566000000E+00 0.  1.
     999900   -1    0    0    0    0 -0.00000000000E+00 -0.00000000000E+00 -0.74505805969E-08  0.93827000000E+00  0.93827000000E+00 0. -1.
     999902    2    1    2    0    0 -0.75413493785E-03  0.36851713921E-03  0.23343186139E-01  0.10205717282E+01  0.10203043876E+01 0.  0.
     999903    2    3    3    0    0  0.60351508961E-01 -0.11130330620E+00 -0.21307634448E-01  0.13029188922E+00  0.22163720478E-01 0.  0.
         14    1    1    2    0    0  0.75413493785E-03 -0.36851713921E-03 -0.23343186139E-01  0.23358271844E-01  0.00000000000E+00 0. -1.
     999901    1    3    3    0    0 -0.61105643899E-01  0.11167182334E+00  0.44650820587E-01  0.89027983894E+00  0.88000000000E+00 0.  1.
        -11    1    4    4    0    0  0.44808469327E-01 -0.66143141240E-01 -0.20673051701E-01  0.82524846223E-01  0.51100000000E-03 0. -1.
         11    1    4    4    0    0  0.15543039634E-01 -0.45160164958E-01 -0.63458274760E-03  0.47767042994E-01  0.51100000000E-03 0.  1.
</event>
<event>
 8    1  0.1060404E+005  0.1043930E+01  0.7957747E-01            NaN
         13   -1    0    0    0    0  0.00000000000E+00  0.00000000000E+00  0.74505805969E-08  0.10566000000E+00  0.10566000000E+00 0.  1.
     999900   -1    0    0    0    0 -0.00000000000E+00 -0.00000000000E+00 -0.74505805969E-08  0.93827000000E+00  0.93827000000E+00 0.  1.
     999902    2    1    2    0    0 -0.70554896941E-02  0.13666832820E-01 -0.18481154931E-01  0.10198859708E+01  0.10196025098E+01 0.  0.
     999903    2    3    3    0    0  0.11215967399E+00  0.19097321317E-01  0.56628634952E-01  0.12866028330E+00  0.20054078169E-01 0.  0.
         14    1    1    2    0    0  0.70554896941E-02 -0.13666832820E-01  0.18481154931E-01  0.24044029233E-01  0.00000000000E+00 0.  1.
     999901    1    3    3    0    0 -0.11921516369E+00 -0.54304884969E-02 -0.75109789883E-01  0.89122568746E+00  0.88000000000E+00 0.  1.
        -11    1    4    4    0    0  0.34168344284E-01 -0.23909989230E-02  0.12193971904E-01  0.36361335217E-01  0.51100000000E-03 0. -1.
         11    1    4    4    0    0  0.77991329710E-01  0.21488320240E-01  0.44434663048E-01  0.92298948087E-01  0.51100000000E-03 0.  1.
</event>
<event>
 8    1  0.1060404E+005  0.1043930E+01  0.7957747E-01            NaN
         13   -1    0    0    0    0  0.00000000000E+00  0.00000000000E+00  0.74505805969E-08  0.10566000000E+00  0.10566000000E+00 0.  1.
     999900   -1    0    0    0    0 -0.00000000000E+00 -0.00000000000E+00 -0.74505805969E-08  0.93827000000E+00  0.93827000000E+00 0. -1.
     999902    2    1    2    0    0 -0.23355365359E-01  0.53812660672E-02 -0.13543648762E-02  0.10199244711E+01  0.10196419280E+01 0.  0.
     999903    2    3    3    0    0 -0.10530194493E+00 -0.53893900049E-01  0.55468672952E-01  0.13231101642E+00  0.20889694099E-01 0.  0.
         14    1    1    2    0    0  0.23355365359E-01 -0.53812660672E-02  0.13543648762E-02  0.24005528942E-01  0.00000000000E+00 0. -1.
     999901    1    3    3    0    0  0.81946579570E-01  0.59275166116E-01 -0.56823037828E-01  0.88761345464E+00  0.88000000000E+00 0. -1.
        -11    1    4    4    0    0 -0.86561441453E-01 -0.39275662021E-01  0.36223448930E-01  0.10172443240E+00  0.51100000000E-03 0. -1.
         11    1    4    4    0    0 -0.18740503476E-01 -0.14618238028E-01  0.19245224022E-01  0.30586584024E-01  0.51100000000E-03 0.  1.
</event>
<event>
 8    1  0.1060404E+005  0.1043930E+01  0.7957747E-01            NaN
         13   -1    0    0    0    0  0.00000000000E+00  0.00000000000E+00  0.74505805969E-08  0.10566000000E+00  0.10566000000E+00 0. -1.
     999900   -1    0    0    0    0 -0.00000000000E+00 -0.00000000000E+00 -0.74505805969E-08  0.93827000000E+00  0.93827000000E+00 0.  1.
     999902    2    1    2    0    0  0.15485318351E-01  0.16216494146E-01 -0.51414069483E-02  0.10209255693E+01  0.10206663579E+01 0.  0.
     999903    2    3    3    0    0  0.10150767796E+00  0.15179317265E-01 -0.81943039919E-01  0.13340125249E+00  0.23388288056E-01 0.  0.
         14    1    1    2    0    0 -0.15485318351E-01 -0.16216494146E-01  0.51414069483E-02  0.23004430708E-01  0.00000000000E+00 0.  1.
     999901    1    3    3    0    0 -0.86022359604E-01  0.10371768807E-02  0.76801632971E-01  0.88752431680E+00  0.88000000000E+00 0.  1.
        -11    1    4    4    0    0  0.13027674254E-01  0.99135547583E-02 -0.95682654873E-02  0.18968702904E-01  0.51100000000E-03 0.  1.
         11    1    4    4    0    0  0.88480003701E-01  0.52657625065E-02 -0.72374774432E-01  0.11443254959E+00  0.51100000000E-03 0. -1.
</event>
<event>
 8    1  0.1060404E+005  0.1043930E+01  0.7957747E-01            NaN
         13   -1    0    0    0    0  0.00000000000E+00  0.00000000000E+00  0.74505805969E-08  0.10566000000E+00  0.10566000000E+00 0.  1.
     999900   -1    0    0    0    0 -0.00000000000E+00 -0.00000000000E+00 -0.74505805969E-08  0.93827000000E+00  0.93827000000E+00 0. -1.
     999902    2    1    2    0    0 -0.15242184964E-01  0.23385771495E-01 -0.87950854705E-02  0.10146627480E+01  0.10142405633E+01 0.  0.
     999903    2    3    3    0    0 -0.10099457996E+00 -0.28551622367E-01 -0.68739682060E-01  0.12694414350E+00  0.19353846055E-01 0.  0.
         14    1    1    2    0    0  0.15242184964E-01 -0.23385771495E-01  0.87950854705E-02  0.29267251995E-01  0.00000000000E+00 0. -1.
     999901    1    3    3    0    0  0.85752394997E-01  0.51937393862E-01  0.59944596590E-01  0.88771860451E+00  0.88000000000E+00 0.  1.
        -11    1    4    4    0    0 -0.32420017440E-01 -0.84814794133E-02 -0.33065461030E-01  0.47080557112E-01  0.51100000000E-03 0.  1.
         11    1    4    4    0    0 -0.68574562521E-01 -0.20070142954E-01 -0.35674221030E-01  0.79863586385E-01  0.51100000000E-03 0. -1.
</event>
<event>
 8    1  0.1060404E+005  0.1043930E+01  0.7957747E-01            NaN
         13   -1    0    0    0    0  0.00000000000E+00  0.00000000000E+00  0.74505805969E-08  0.10566000000E+00  0.10566000000E+00 0. -1.
     999900   -1    0    0    0    0 -0.00000000000E+00 -0.00000000000E+00 -0.74505805969E-08  0.93827000000E+00  0.93827000000E+00 0. -1.
     999902    2    1    2    0    0 -0.16861917646E-01 -0.15015633632E-01  0.77609841662E-02  0.10200547744E+01  0.10197753265E+01 0.  0.
     999903    2    3    3    0    0 -0.90707221399E-01 -0.95260097749E-01 -0.61310565431E-02  0.13321471462E+00  0.20156490296E-01 0.  0.
         14    1    1    2    0    0  0.16861917646E-01  0.15015633632E-01 -0.77609841662E-02  0.23875225555E-01  0.00000000000E+00 0. -1.
     999901    1    3    3    0    0  0.73845303754E-01  0.80244464117E-01  0.13892040709E-01  0.88684005982E+00  0.88000000000E+00 0. -1.
        -11    1    4    4    0    0 -0.45188994611E-01 -0.39754850593E-01  0.57126477067E-02  0.60459811813E-01  0.51100000000E-03 0.  1.
         11    1    4    4    0    0 -0.45518226788E-01 -0.55505247156E-01 -0.11843704250E-01  0.72754902812E-01  0.51100000000E-03 0. -1.
</event>
<event>
 8    1  0.1060404E+005  0.1043930E+01  0.7957747E-01            NaN
         13   -1    0    0    0    0  0.00000000000E+00  0.00000000000E+00  0.74505805969E-08  0.10566000000E+00  0.10566000000E+00 0.  1.
     999900   -1    0    0    0    0 -0.00000000000E+00 -0.00000000000E+00 -0.74505805969E-08  0.93827000000E+00  0.93827000000E+00 0.  1.
     999902    2    1    2    0    0  0.18803538989E-01 -0.73049428894E-02 -0.13009018491E-01  0.10199264621E+01  0.10196439664E+01 0.  0.
     999903    2    3    3    0    0 -0.21226578475E-01  0.10440825624E+00  0.68452967184E-01  0.12823239783E+00  0.20151613604E-01 0.  0.
         14    1    1    2    0    0 -0.18803538989E-01  0.73049428894E-02  0.13009018491E-01  0.24003537890E-01  0.00000000000E+00 0.  1.
     999901    1    3    3    0    0  0.40030117464E-01 -0.11171319913E+00 -0.81461985676E-01  0.89169406428E+00  0.88000000000E+00 0.  1.
        -11    1    4    4    0    0  0.30686736097E-02  0.90308567464E-02  0.96614104890E-02  0.13585915683E-01  0.51100000000E-03 0. -1.
         11    1    4    4    0    0 -0.24295252085E-01  0.95377399497E-01  0.58791556695E-01  0.11464648215E+00  0.51100000000E-03 0.  1.
</event>
<event>
 8    1  0.1060404E+005  0.1043930E+01  0.7957747E-01            NaN
         13   -1    0    0    0    0  0.00000000000E+00  0.00000000000E+00  0.74505805969E-08  0.10566000000E+00  0.10566000000E+00 0.  1.
     999900   -1    0    0    0    0 -0.00000000000E+00 -0.00000000000E+00 -0.74505805969E-08  0.93827000000E+00  0.93827000000E+00 0. -1.
     999902    2    1    2    0    0 -0.15616771498E-01 -0.22446896761E-02  0.17583037684E-01  0.10203061689E+01  0.10200326430E+01 0.  0.
     999903    2    3    3    0    0  0.85961346147E-01 -0.72921843051E-02  0.95966816692E-01  0.13098754879E+00  0.22485085016E-01 0.  0.
         14    1    1    2    0    0  0.15616771498E-01  0.22446896761E-02 -0.17583037684E-01  0.23623831145E-01  0.00000000000E+00 0. -1.
     999901    1    3    3    0    0 -0.10157811764E+00  0.50474946290E-02 -0.78383779008E-01  0.88931862007E+00  0.88000000000E+00 0. -1.
        -11    1    4    4    0    0  0.40939079621E-01 -0.65977496271E-02  0.30283807018E-01  0.51350838638E-01  0.51100000000E-03 0. -1.
         11    1    4    4    0    0  0.45022266526E-01 -0.69443467805E-03  0.65683009674E-01  0.79636710150E-01  0.51100000000E-03 0.  1.
</event>
<event>
 7    1  0.1060404E+005  0.1043930E+01  0.7957747E-01            NaN
         13   -1    0    0    0    0  0.00000000000E+00  0.00000000000E+00  0.74505805969E-08  0.10566000000E+00  0.10566000000E+00 0.  1.
     999900   -1    0    0    0    0 -0.00000000000E+00 -0.00000000000E+00 -0.74505805969E-08  0.93827000000E+00  0.93827000000E+00 0. -1.
     999903    2    1    2    0    0 -0.79618107903E-01  0.58615813034E-01 -0.19691019435E-01  0.10279086137E+00  0.20084030734E-01 0.  0.
         14    1    1    2    0    0 -0.28257112267E-01 -0.45675615129E-01  0.85602444924E-02  0.54387535308E-01  0.00000000000E+00 0.  1.
     999901    1    1    2    0    0  0.10787522017E+00 -0.12940197904E-01  0.11130774943E-01  0.88675160332E+00  0.88000000000E+00 0. -1.
        -11    1    3    3    0    0 -0.19174313668E-01  0.20131799168E-01  0.21217541969E-02  0.27887391492E-01  0.51100000000E-03 0. -1.
         11    1    3    3    0    0 -0.60443794236E-01  0.38484013866E-01 -0.21812773632E-01  0.74903469875E-01  0.51100000000E-03 0.  1.
</event>
<event>
 8    1  0.1060404E+005  0.1043930E+01  0.7957747E-01            NaN
         13   -1    0    0    0    0  0.00000000000E+00  0.00000000000E+00  0.74505805969E-08  0.10566000000E+00  0.10566000000E+00 0.  1.
     999900   -1    0    0    0    0 -0.00000000000E+00 -0.00000000000E+00 -0.74505805969E-08  0.93827000000E+00  0.93827000000E+00 0.  1.
     999902    2    1    2    0    0  0.13521983839E-01 -0.18472311138E-01 -0.14329522029E-01  0.10169224913E+01  0.10165637942E+01 0.  0.
     999903    2    3    3    0    0 -0.10177907537E+00 -0.59668109783E-01 -0.46071557295E-01  0.12787863135E+00  0.17637813231E-01 0.  0.
         14    1    1    2    0    0 -0.13521983839E-01  0.18472311138E-01  0.14329522029E-01  0.27007508721E-01  0.00000000000E+00 0.  1.
     999901    1    3    3    0    0  0.11530105921E+00  0.41195798646E-01  0.31742035266E-01  0.88904385993E+00  0.88000000000E+00 0. -1.
        -11    1    4    4    0    0 -0.70330625591E-01 -0.32995320726E-01 -0.25300447720E-01  0.81703499691E-01  0.51100000000E-03 0.  1.
         11    1    4    4    0    0 -0.31448449777E-01 -0.26672789057E-01 -0.20771109575E-01  0.46175131656E-01  0.51100000000E-03 0. -1.
</event>
<event>
 8    1  0.1060404E+005  0.1043930E+01  0.7957747E-01            NaN
         13   -1    0    0    0    0  0.00000000000E+00  0.00000000000E+00  0.74505805969E-08  0.10566000000E+00  0.10566000000E+00 0.  1.
     999900   -1    0    0    0    0 -0.00000000000E+00 -0.00000000000E+00 -0.74505805969E-08  0.93827000000E+00  0.93827000000E+00 0.  1.
     999902    2    1    2    0    0  0.17780090030E-01  0.12292770603E-01  0.93834900197E-02  0.10203653295E+01  0.10200931879E+01 0.  0.
     999903    2    3    3    0    0 -0.18718199576E-01  0.12842556842E+00 -0.10674065785E-01  0.13175897266E+00  0.20074699976E-01 0.  0.
         14    1    1    2    0    0 -0.17780090030E-01 -0.12292770603E-01 -0.93834900197E-02  0.23564670495E-01  0.00000000000E+00 0. -1.
     999901    1    3    3    0    0  0.36498289606E-01 -0.11613279781E+00  0.20057555805E-01  0.88860635684E+00  0.88000000000E+00 0. -1.
        -11    1    4    4    0    0 -0.18085114607E-01  0.10086790122E+00 -0.15884027643E-01  0.10370134195E+00  0.51100000000E-03 0.  1.
         11    1    4    4    0    0 -0.63308496882E-03  0.27557667193E-01  0.52099618576E-02  0.28057630713E-01  0.51100000000E-03 0. -1.
</event>
<event>
 8    1  0.1060404E+005  0.1043930E+01  0.7957747E-01            NaN
         13   -1    0    0    0    0  0.00000000000E+00  0.00000000000E+00  0.74505805969E-08  0.10566000000E+00  0.10566000000E+00 0. -1.
     999900   -1    0    0    0    0 -0.00000000000E+00 -0.00000000000E+00 -0.74505805969E-08  0.93827000000E+00  0.93827000000E+00 0.  1.
     999902    2    1    2    0    0 -0.68234051724E-02  0.18618936789E-01 -0.16693790745E-01  0.10180088443E+01  0.10176787807E+01 0.  0.
     999903    2    3    3    0    0  0.54356691416E-01  0.11558332988E+00 -0.18003572228E-01  0.13057050090E+00  0.20257616969E-01 0.  0.
         14    1    1    2    0    0  0.68234051724E-02 -0.18618936789E-01  0.16693790745E-01  0.25921155737E-01  0.00000000000E+00 0.  1.
     999901    1    3    3    0    0 -0.61180096588E-01 -0.96964393087E-01  0.13097814831E-02  0.88743834336E+00  0.88000000000E+00 0. -1.
        -11    1    4    4    0    0  0.45596668316E-01  0.78680657488E-01 -0.17655204426E-01  0.92637300201E-01  0.51100000000E-03 0. -1.
         11    1    4    4    0    0  0.87600231003E-02  0.36902672388E-01 -0.34836780157E-03  0.37933200698E-01  0.51100000000E-03 0.  1.
</event>
<event>
 8    1  0.1060404E+005  0.1043930E+01  0.7957747E-01            NaN
         13   -1    0    0    0    0  0.00000000000E+00  0.00000000000E+00  0.74505805969E-08  0.10566000000E+00  0.10566000000E+00 0.  1.
     999900   -1    0    0    0    0 -0.00000000000E+00 -0.00000000000E+00 -0.74505805969E-08  0.93827000000E+00  0.93827000000E+00 0.  1.
     999902    2    1    2    0    0 -0.12203971751E-01 -0.25206079004E-02 -0.20268665930E-01  0.10201369504E+01  0.10198594454E+01 0.  0.
     999903    2    3    3    0    0 -0.49132028866E-02 -0.10487707663E+00  0.72765965749E-01  0.12930282179E+00  0.20024814254E-01 0.  0.
         14    1    1    2    0    0  0.12203971751E-01  0.25206079004E-02  0.20268665930E-01  0.23793049600E-01  0.00000000000E+00 0.  1.
     999901    1    3    3    0    0 -0.72907688646E-02  0.10235646873E+00 -0.93034631679E-01  0.89083412861E+00  0.88000000000E+00 0.  1.
        -11    1    4    4    0    0  0.68364870191E-02 -0.56331544679E-01  0.42514534805E-01  0.70906468474E-01  0.51100000000E-03 0. -1.
         11    1    4    4    0    0 -0.11749689906E-01 -0.48545531955E-01  0.30251430944E-01  0.58396353318E-01  0.51100000000E-03 0.  1.
</event>
<event>
 8    1  0.1060404E+005  0.1043930E+01  0.7957747E-01            NaN
         13   -1    0    0    0    0  0.00000000000E+00  0.00000000000E+00  0.74505805969E-08  0.10566000000E+00  0.10566000000E+00 0.  1.
     999900   -1    0    0    0    0 -0.00000000000E+00 -0.00000000000E+00 -0.74505805969E-08  0.93827000000E+00  0.93827000000E+00 0.  1.
     999902    2    1    2    0    0 -0.65033729635E-02  0.21917054496E-01  0.82350519343E-02  0.10196304688E+01  0.10193408780E+01 0.  0.
     999903    2    3    3    0    0  0.44913554713E-01 -0.30301632634E-01  0.11649031373E+00  0.12997340369E+00  0.19689493041E-01 0.  0.
         14    1    1    2    0    0  0.65033729635E-02 -0.21917054496E-01 -0.82350519343E-02  0.24299531231E-01  0.00000000000E+00 0. -1.
     999901    1    3    3    0    0 -0.51416927676E-01  0.52218687130E-01 -0.10825526180E+00  0.88965706508E+00  0.88000000000E+00 0.  1.
        -11    1    4    4    0    0  0.20697161465E-01 -0.30727698217E-02  0.48727463874E-01  0.53032454814E-01  0.51100000000E-03 0. -1.
         11    1    4    4    0    0  0.24216393248E-01 -0.27228862813E-01  0.67762849859E-01  0.76940948876E-01  0.51100000000E-03 0.  1.
</event>
<event>
 8    1  0.1060404E+005  0.1043930E+01  0.7957747E-01            NaN
         13   -1    0    0    0    0  0.00000000000E+00  0.00000000000E+00  0.74505805969E-08  0.10566000000E+00  0.10566000000E+00 0.  1.
     999900   -1    0    0    0    0 -0.00000000000E+00 -0.00000000000E+00 -0.74505805969E-08  0.93827000000E+00  0.93827000000E+00 0.  1.
     999902    2    1    2    0    0 -0.23596451472E-01 -0.56529146911E-03  0.27858357947E-02  0.10201629439E+01  0.10198860520E+01 0.  0.
     999903    2    3    3    0    0  0.68440737855E-01 -0.10730410050E+00  0.65448455687E-02  0.12894010544E+00  0.19606407219E-01 0.  0.
         14    1    1    2    0    0  0.23596451472E-01  0.56529146911E-03 -0.27858357947E-02  0.23767056140E-01  0.00000000000E+00 0. -1.
     999901    1    3    3    0    0 -0.92037189327E-01  0.10673880903E+00 -0.37590097740E-02  0.89122283842E+00  0.88000000000E+00 0. -1.
        -11    1    4    4    0    0  0.30861868820E-01 -0.64480773863E-01 -0.80325412820E-03  0.71492177776E-01  0.51100000000E-03 0.  1.
         11    1    4    4    0    0  0.37578869035E-01 -0.42823326638E-01  0.73480996969E-02  0.57447927660E-01  0.51100000000E-03 0. -1.
</event>
<event>
 8    1  0.1060404E+005  0.1043930E+01  0.7957747E-01            NaN
         13   -1    0    0    0    0  0.00000000000E+00  0.00000000000E+00  0.74505805969E-08  0.10566000000E+00  0.10566000000E+00 0. -1.
     999900   -1    0    0    0    0 -0.00000000000E+00 -0.00000000000E+00 -0.74505805969E-08  0.93827000000E+00  0.93827000000E+00 0.  1.
     999902    2    1    2    0    0 -0.21442548678E-02  0.80570963473E-02  0.21035644030E-01  0.10213022968E+01  0.10210515994E+01 0.  0.
     999903    2    3    3    0    0 -0.76044293844E-01  0.10104239737E+00  0.36699184447E-01  0.13318472103E+00  0.19975962650E-01 0.  0.
         14    1    1    2    0    0  0.21442548678E-02 -0.80570963473E-02 -0.21035644030E-01  0.22627703158E-01  0.00000000000E+00 0.  1.
     999901    1    3    3    0    0  0.73900038976E-01 -0.92985301025E-01 -0.15663540417E-01  0.88811757581E+00  0.88000000000E+00 0.  1.
        -11    1    4    4    0    0 -0.38738869740E-01  0.57625242780E-01  0.10493180392E-01  0.70226324052E-01  0.51100000000E-03 0.  1.
         11    1    4    4    0    0 -0.37305424104E-01  0.43417154592E-01  0.26206004054E-01  0.62958396977E-01  0.51100000000E-03 0. -1.
</event>
<event>
 8    1  0.1060404E+005  0.1043930E+01  0.7957747E-01            NaN
         13   -1    0    0    0    0  0.00000000000E+00  0.00000000000E+00  0.74505805969E-08  0.10566000000E+00  0.10566000000E+00 0. -1.
     999900   -1    0    0    0    0 -0.00000000000E+00 -0.00000000000E+00 -0.74505805969E-08  0.93827000000E+00  0.93827000000E+00 0. -1.
     999902    2    1    2    0    0  0.13080903189E-01  0.17853364752E-02 -0.19494304726E-01  0.10203858846E+01  0.10201142230E+01 0.  0.
     999903    2    3    3    0    0  0.12189478560E+00 -0.30017967424E-01 -0.38445547437E-01  0.13291134367E+00  0.20686904905E-01 0.  0.
         14    1    1    2    0    0 -0.13080903189E-01 -0.17853364752E-02  0.19494304726E-01  0.23544115428E-01  0.00000000000E+00 0. -1.
     999901    1    3    3    0    0 -0.10881388241E+00  0.31803303899E-01  0.18951242711E-01  0.88747454090E+00  0.88000000000E+00 0.  1.
        -11    1    4    4    0    0  0.26639674529E-01 -0.19013661543E-02 -0.15826844798E-01  0.31048954725E-01  0.51100000000E-03 0. -1.
         11    1    4    4    0    0  0.95255111071E-01 -0.28116601270E-01 -0.22618702639E-01  0.10186238895E+00  0.51100000000E-03 0.  1.
</event>
<event>
 8    1  0.1060404E+005  0.1043930E+01  0.7957747E-01            NaN
         13   -1    0    0    0    0  0.00000000000E+00  0.00000000000E+00  0.74505805969E-08  0.10566000000E+00  0.10566000000E+00 0. -1.
     999900   -1    0    0    0    0 -0.00000000000E+00 -0.00000000000E+00 -0.74505805969E-08  0.93827000000E+00  0.93827000000E+00 0. -1.
     999902    2    1    2    0    0 -0.10145805281E-01  0.15584178175E-01 -0.15070892103E-01  0.10199939234E+01  0.10197130322E+01 0.  0.
     999903    2    3    3    0    0 -0.43831057337E-01 -0.62821718984E-02  0.11955149394E+00  0.12885082586E+00  0.18690862716E-01 0.  0.
         14    1    1    2    0    0  0.10145805281E-01 -0.15584178175E-01  0.15070892103E-01  0.23936076600E-01  0.00000000000E+00 0. -1.
     999901    1    3    3    0    0  0.33685252056E-01  0.21866350074E-01 -0.13462238605E+00  0.89114309754E+00  0.88000000000E+00 0. -1.
        -11    1    4    4    0    0 -0.20338422772E-01 -0.11678596393E-01  0.68184589544E-01  0.72107145463E-01  0.51100000000E-03 0.  1.
         11    1    4    4    0    0 -0.23492634564E-01  0.53964244950E-02  0.51366904401E-01  0.56743680395E-01  0.51100000000E-03 0. -1.
</event>
<event>
 8    1  0.1060404E+005  0.1043930E+01  0.7957747E-01            NaN
         13   -1    0    0    0    0  0.00000000000E+00  0.00000000000E+00  0.74505805969E-08  0.10566000000E+00  0.10566000000E+00 0.  1.
     999900   -1    0    0    0    0 -0.00000000000E+00 -0.00000000000E+00 -0.74505805969E-08  0.93827000000E+00  0.93827000000E+00 0.  1.
     999902    2    1    2    0    0 -0.44623268273E-02  0.12099620279E-01  0.22146460160E-01  0.10183023027E+01  0.10179797644E+01 0.  0.
     999903    2    3    3    0    0  0.11304434100E+00  0.45957080013E-01  0.39677029414E-01  0.12967332195E+00  0.18703676843E-01 0.  0.
         14    1    1    2    0    0  0.44623268273E-02 -0.12099620279E-01 -0.22146460160E-01  0.25627697306E-01  0.00000000000E+00 0. -1.
     999901    1    3    3    0    0 -0.11750666782E+00 -0.33857459733E-01 -0.17530569255E-01  0.88862898075E+00  0.88000000000E+00 0.  1.
        -11    1    4    4    0    0  0.54150680240E-01  0.12090298248E-01  0.19233769507E-01  0.58725382013E-01  0.51100000000E-03 0.  1.
         11    1    4    4    0    0  0.58893660756E-01  0.33866781765E-01  0.20443259908E-01  0.70947939935E-01  0.51100000000E-03 0. -1.
</event>
<event>
 8    1  0.1060404E+005  0.1043930E+01  0.7957747E-01            NaN
         13   -1    0    0    0    0  0.00000000000E+00  0.00000000000E+00  0.74505805969E-08  0.10566000000E+00  0.10566000000E+00 0. -1.
     999900   -1    0    0    0    0 -0.00000000000E+00 -0.00000000000E+00 -0.74505805969E-08  0.93827000000E+00  0.93827000000E+00 0. -1.
     999902    2    1    2    0    0  0.64723403306E-02 -0.18476488384E-01 -0.13373898525E-01  0.10202206564E+01  0.10199451234E+01 0.  0.
     999903    2    3    3    0    0  0.11797609137E+00  0.36233193141E-01  0.36163967188E-01  0.13011940604E+00  0.19799618323E-01 0.  0.
         14    1    1    2    0    0 -0.64723403306E-02  0.18476488384E-01  0.13373898525E-01  0.23709343604E-01  0.00000000000E+00 0. -1.
     999901    1    3    3    0    0 -0.11150375104E+00 -0.54709681525E-01 -0.49537865713E-01  0.89010125036E+00  0.88000000000E+00 0. -1.
        -11    1    4    4    0    0  0.76810218669E-01  0.19943552799E-01  0.13917385767E-01  0.80569905907E-01  0.51100000000E-03 0.  1.
         11    1    4    4    0    0  0.41165872698E-01  0.16289640342E-01  0.22246581420E-01  0.49549500132E-01  0.51100000000E-03 0. -1.
</event>
<event>
 8    1  0.1060404E+005  0.1043930E+01  0.7957747E-01            NaN
         13   -1    0    0    0    0  0.00000000000E+00  0.00000000000E+00  0.74505805969E-08  0.10566000000E+00  0.10566000000E+00 0.  1.
     999900   -1    0    0    0    0 -0.00000000000E+00 -0.00000000000E+00 -0.74505805969E-08  0.93827000000E+00  0.93827000000E+00 0.  1.
     999902    2    1    2    0    0 -0.13991998938E-01 -0.54881290589E-02  0.57192075264E-02  0.10278488020E+01  0.10277229952E+01 0.  0.
     999903    2    3    3    0    0  0.11294415573E+00  0.62464223311E-03 -0.71924177575E-01  0.13533625385E+00  0.19647946310E-01 0.  0.
         14    1    1    2    0    0  0.13991998938E-01  0.54881290589E-02 -0.57192075264E-02  0.16081198014E-01  0.00000000000E+00 0.  1.
     999901    1    3    3    0    0 -0.12693615467E+00 -0.61127712921E-02  0.77643385101E-01  0.89251254814E+00  0.88000000000E+00 0.  1.
        -11    1    4    4    0    0  0.36341165944E-01  0.65740482457E-02 -0.31351170086E-01  0.48446418229E-01  0.51100000000E-03 0.  1.
         11    1    4    4    0    0  0.76602989786E-01 -0.59494060126E-02 -0.40573007489E-01  0.86889835618E-01  0.51100000000E-03 0. -1.
</event>
<event>
 8    1  0.1060404E+005  0.1043930E+01  0.7957747E-01            NaN
         13   -1    0    0    0    0  0.00000000000E+00  0.00000000000E+00  0.74505805969E-08  0.10566000000E+00  0.10566000000E+00 0.  1.
     999900   -1    0    0    0    0 -0.00000000000E+00 -0.00000000000E+00 -0.74505805969E-08  0.93827000000E+00  0.93827000000E+00 0. -1.
     999902    2    1    2    0    0 -0.19652384592E-01 -0.12693843105E-01 -0.73074643562E-04  0.10205343762E+01  0.10202661701E+01 0.  0.
     999903    2    3    3    0    0 -0.99799720867E-01 -0.84198629635E-01  0.21176767630E-01  0.13374912271E+00  0.19773184422E-01 0.  0.
         14    1    1    2    0    0  0.19652384592E-01  0.12693843105E-01  0.73074643562E-04  0.23395623797E-01  0.00000000000E+00 0.  1.
     999901    1    3    3    0    0  0.80147336275E-01  0.71504786530E-01 -0.21249842273E-01  0.88678525349E+00  0.88000000000E+00 0. -1.
        -11    1    4    4    0    0 -0.93076327903E-02 -0.81649380966E-02 -0.37636311377E-02  0.12950841001E-01  0.51100000000E-03 0. -1.
         11    1    4    4    0    0 -0.90492088076E-01 -0.76033691539E-01  0.24940398767E-01  0.12079828171E+00  0.51100000000E-03 0.  1.
</event>
<event>
 8    1  0.1060404E+005  0.1043930E+01  0.7957747E-01            NaN
         13   -1    0    0    0    0  0.00000000000E+00  0.00000000000E+00  0.74505805969E-08  0.10566000000E+00  0.10566000000E+00 0.  1.
     999900   -1    0    0    0    0 -0.00000000000E+00 -0.00000000000E+00 -0.74505805969E-08  0.93827000000E+00  0.93827000000E+00 0.  1.
     999902    2    1    2    0    0  0.14520309191E-01  0.15997310500E-01  0.10040597383E-01  0.10201063370E+01  0.10198281090E+01 0.  0.
     999903    2    3    3    0    0  0.64988626472E-01  0.35199529462E-01 -0.10667061373E+00  0.13075978866E+00  0.16030410265E-01 0.  0.
         14    1    1    2    0    0 -0.14520309191E-01 -0.15997310500E-01 -0.10040597383E-01  0.23823662986E-01  0.00000000000E+00 0. -1.
     999901    1    3    3    0    0 -0.50468317281E-01 -0.19202218962E-01  0.11671121111E+00  0.88934654835E+00  0.88000000000E+00 0. -1.
        -11    1    4    4    0    0  0.47269266123E-01  0.17739151566E-01 -0.76380731401E-01  0.91560571582E-01  0.51100000000E-03 0.  1.
         11    1    4    4    0    0  0.17719360349E-01  0.17460377896E-01 -0.30289882328E-01  0.39199217083E-01  0.51100000000E-03 0. -1.
</event>
<event>
 8    1  0.1060404E+005  0.1043930E+01  0.7957747E-01            NaN
         13   -1    0    0    0    0  0.00000000000E+00  0.00000000000E+00  0.74505805969E-08  0.10566000000E+00  0.10566000000E+00 0.  1.
     999900   -1    0    0    0    0 -0.00000000000E+00 -0.00000000000E+00 -0.74505805969E-08  0.93827000000E+00  0.93827000000E+00 0. -1.
     999902    2    1    2    0    0 -0.37814257264E-02 -0.10391935079E-01 -0.16859241423E-01  0.10237675221E+01  0.10235689589E+01 0.  0.
     999903    2    3    3    0    0 -0.96171149005E-02  0.23468928226E-01 -0.13144903496E+00  0.13567325110E+00  0.22025048953E-01 0.  0.
         14    1    1    2    0    0  0.37814257264E-02  0.10391935079E-01  0.16859241423E-01  0.20162477937E-01  0.00000000000E+00 0.  1.
     999901    1    3    3    0    0  0.58356891741E-02 -0.33860863305E-01  0.11458979354E+00  0.88809427096E+00  0.88000000000E+00 0.  1.
        -11    1    4    4    0    0  0.37151564112E-02  0.17204190776E-01 -0.52908984844E-01  0.55762069237E-01  0.51100000000E-03 0.  1.
         11    1    4    4    0    0 -0.13332271312E-01  0.62647374499E-02 -0.78540050116E-01  0.79911181864E-01  0.51100000000E-03 0. -1.
</event>
<event>
 8    1  0.1060404E+005  0.1043930E+01  0.7957747E-01            NaN
         13   -1    0    0    0    0  0.00000000000E+00  0.00000000000E+00  0.74505805969E-08  0.10566000000E+00  0.10566000000E+00 0. -1.
     999900   -1    0    0    0    0 -0.00000000000E+00 -0.00000000000E+00 -0.74505805969E-08  0.93827000000E+00  0.93827000000E+00 0.  1.
     999902    2    1    2    0    0 -0.51272534537E-02 -0.17800005347E-01 -0.14697548881E-01  0.10202837136E+01  0.10200096614E+01 0.  0.
     999903    2    3    3    0    0 -0.12974979139E-01  0.88519155479E-01 -0.92671451392E-01  0.13042682608E+00  0.20473594897E-01 0.  0.
         14    1    1    2    0    0  0.51272534537E-02  0.17800005347E-01  0.14697548881E-01  0.23646286420E-01  0.00000000000E+00 0. -1.
     999901    1    3    3    0    0  0.78477256857E-02 -0.10631916083E+00  0.77973902511E-01  0.88985688750E+00  0.88000000000E+00 0. -1.
        -11    1    4    4    0    0 -0.13998789306E-01  0.74896425589E-01 -0.67551292856E-01  0.10182769248E+00  0.51100000000E-03 0. -1.
         11    1    4    4    0    0  0.10238101663E-02  0.13622729890E-01 -0.25120158536E-01  0.28599133602E-01  0.51100000000E-03 0.  1.
</event>
<event>
 8    1  0.1060404E+005  0.1043930E+01  0.7957747E-01            NaN
         13   -1    0    0    0    0  0.00000000000E+00  0.00000000000E+00  0.74505805969E-08  0.10566000000E+00  0.10566000000E+00 0.  1.
     999900   -1    0    0    0    0 -0.00000000000E+00 -0.00000000000E+00 -0.74505805969E-08  0.93827000000E+00  0.93827000000E+00 0. -1.
     999902    2    1    2    0    0 -0.90848562958E-02  0.24532668403E-02 -0.21416795042E-01  0.10205370044E+01  0.10202688593E+01 0.  0.
     999903    2    3    3    0    0 -0.27489144437E-01 -0.56049257473E-01 -0.11617894621E+00  0.13332726120E+00  0.19530456005E-01 0.  0.
         14    1    1    2    0    0  0.90848562958E-02 -0.24532668403E-02  0.21416795042E-01  0.23392995575E-01  0.00000000000E+00 0.  1.
     999901    1    3    3    0    0  0.18404288141E-01  0.58502524313E-01  0.94762151171E-01  0.88720974322E+00  0.88000000000E+00 0.  1.
        -11    1    4    4    0    0 -0.18248304770E-01 -0.17043115760E-01 -0.38061871311E-01  0.45524011142E-01  0.51100000000E-03 0.  1.
         11    1    4    4    0    0 -0.92408396670E-02 -0.39006141713E-01 -0.78117074902E-01  0.87803250061E-01  0.51100000000E-03 0. -1.
</event>
<event>
 8    1  0.1060404E+005  0.1043930E+01  0.7957747E-01            NaN
         13   -1    0    0    0    0  0.00000000000E+00  0.00000000000E+00  0.74505805969E-08  0.10566000000E+00  0.10566000000E+00 0. -1.
     999900   -1    0    0    0    0 -0.00000000000E+00 -0.00000000000E+00 -0.74505805969E-08  0.93827000000E+00  0.93827000000E+00 0.  1.
     999902    2    1    2    0    0 -0.13634574554E-01 -0.19414318137E-01 -0.11455451526E-02  0.10201785864E+01  0.10199020632E+01 0.  0.
     999903    2    3    3    0    0 -0.88307465053E-01  0.80270116004E-01 -0.46323001457E-01  0.13026059610E+00  0.24093620011E-01 0.  0.
         14    1    1    2    0    0  0.13634574554E-01  0.19414318137E-01  0.11455451526E-02  0.23751413552E-01  0.00000000000E+00 0. -1.
     999901    1    3    3    0    0  0.74672890498E-01 -0.99684434141E-01  0.45177456305E-01  0.88991799035E+00  0.88000000000E+00 0. -1.
        -11    1    4    4    0    0 -0.81284508506E-01  0.64390586645E-01 -0.44324833366E-01  0.11277531177E+00  0.51100000000E-03 0. -1.
         11    1    4    4    0    0 -0.70229565472E-02  0.15879529359E-01 -0.19981680917E-02  0.17485284329E-01  0.51100000000E-03 0.  1.
</event>
<event>
 8    1  0.1060404E+005  0.1043930E+01  0.7957747E-01            NaN
         13   -1    0    0    0    0  0.00000000000E+00  0.00000000000E+00  0.74505805969E-08  0.10566000000E+00  0.10566000000E+00 0. -1.
     999900   -1    0    0    0    0 -0.00000000000E+00 -0.00000000000E+00 -0.74505805969E-08  0.93827000000E+00  0.93827000000E+00 0. -1.
     999902    2    1    2    0    0 -0.21064046365E-01  0.29649636392E-02 -0.14508348406E-01  0.10181816557E+01  0.10178560344E+01 0.  0.
     999903    2    3    3    0    0  0.89231061148E-01  0.48086062895E-02 -0.89510336001E-01  0.12812901241E+00  0.20485082415E-01 0.  0.
         14    1    1    2    0    0  0.21064046365E-01 -0.29649636392E-02  0.14508348406E-01  0.25748344260E-01  0.00000000000E+00 0. -1.
     999901    1    3    3    0    0 -0.11029510751E+00 -0.18436426503E-02  0.75001987596E-01  0.89005264333E+00  0.88000000000E+00 0.  1.
        -11    1    4    4    0    0  0.29221841792E-01 -0.94158713690E-03 -0.16975104318E-01  0.33811505610E-01  0.51100000000E-03 0. -1.
         11    1    4    4    0    0  0.60009219356E-01  0.57501934264E-02 -0.72535231683E-01  0.94317506798E-01  0.51100000000E-03 0.  1.
</event>
<event>
 8    1  0.1060404E+005  0.1043930E+01  0.7957747E-01            NaN
         13   -1    0    0    0    0  0.00000000000E+00  0.00000000000E+00  0.74505805969E-08  0.10566000000E+00  0.10566000000E+00 0.  1.
     999900   -1    0    0    0    0 -0.00000000000E+00 -0.00000000000E+00 -0.74505805969E-08  0.93827000000E+00  0.93827000000E+00 0.  1.
     999902    2    1    2    0    0  0.40012839059E-02 -0.43075730373E-02 -0.23427866836E-01  0.10197756960E+01  0.10194895976E+01 0.  0.
     999903    2    3    3    0    0  0.28202563060E-01  0.78582291322E-01  0.94496057197E-01  0.12772049399E+00  0.20309078943E-01 0.  0.
         14    1    1    2    0    0 -0.40012839059E-02  0.43075730373E-02  0.23427866836E-01  0.24154304024E-01  0.00000000000E+00 0.  1.
     999901    1    3    3    0    0 -0.24201279154E-01 -0.82889864359E-01 -0.11792392403E+00  0.89205520198E+00  0.88000000000E+00 0.  1.
        -11    1    4    4    0    0  0.16364481938E-01  0.66263220064E-01  0.69263134000E-01  0.97243269458E-01  0.51100000000E-03 0. -1.
         11    1    4    4    0    0  0.11838081122E-01  0.12319071258E-01  0.25232923197E-01  0.30477224535E-01  0.51100000000E-03 0.  1.
</event>
<event>
 7    1  0.1166309E+005  0.1043930E+01  0.7957747E-01            NaN
         13   -1    0    0    0    0  0.00000000000E+00  0.00000000000E+00  0.74505805969E-08  0.10566000000E+00  0.10566000000E+00 0. -1.
     999900   -1    0    0    0    0 -0.00000000000E+00 -0.00000000000E+00 -0.74505805969E-08  0.93827000000E+00  0.93827000000E+00 0.  1.
     999903    2    1    2    0    0 -0.45204617873E-01  0.16457679593E-01  0.10512692077E+00  0.11734778748E+00  0.20112708952E-01 0.  0.
         14    1    1    2    0    0  0.40070441900E-01 -0.24659776873E-02  0.43105502167E-03  0.40148563716E-01  0.00000000000E+00 0. -1.
     999901    1    1    2    0    0  0.51341759726E-02 -0.13991701906E-01 -0.10555797579E+00  0.88643364881E+00  0.88000000000E+00 0.  1.
        -11    1    3    3    0    0 -0.14038502629E-01  0.72968400700E-03  0.51266408873E-01  0.53161243351E-01  0.51100000000E-03 0. -1.
         11    1    3    3    0    0 -0.31166115244E-01  0.15727995586E-01  0.53860511893E-01  0.64186544126E-01  0.51100000000E-03 0.  1.
</event>
<event>
 8    1  0.1060404E+005  0.1043930E+01  0.7957747E-01            NaN
         13   -1    0    0    0    0  0.00000000000E+00  0.00000000000E+00  0.74505805969E-08  0.10566000000E+00  0.10566000000E+00 0.  1.
     999900   -1    0    0    0    0 -0.00000000000E+00 -0.00000000000E+00 -0.74505805969E-08  0.93827000000E+00  0.93827000000E+00 0.  1.
     999902    2    1    2    0    0  0.10872176775E-01 -0.11464941601E-01 -0.15512758409E-01  0.10217873988E+01  0.10215474505E+01 0.  0.
     999903    2    3    3    0    0  0.11249818367E-01 -0.29998472018E-01  0.12432837212E+00  0.13055276296E+00  0.23664595180E-01 0.  0.
         14    1    1    2    0    0 -0.10872176775E-01  0.11464941601E-01  0.15512758409E-01  0.22142601184E-01  0.00000000000E+00 0.  1.
     999901    1    3    3    0    0 -0.37764159271E-03  0.18533530416E-01 -0.13984113053E+00  0.89123463586E+00  0.88000000000E+00 0.  1.
        -11    1    4    4    0    0 -0.73446988895E-02 -0.11043958142E-01  0.41215825142E-01  0.43300334599E-01  0.51100000000E-03 0.  1.
         11    1    4    4    0    0  0.18594517257E-01 -0.18954513875E-01  0.83112546980E-01  0.87252428360E-01  0.51100000000E-03 0. -1.
</event>
<event>
 8    1  0.1060404E+005  0.1043930E+01  0.7957747E-01            NaN
         13   -1    0    0    0    0  0.00000000000E+00  0.00000000000E+00  0.74505805969E-08  0.10566000000E+00  0.10566000000E+00 0.  1.
     999900   -1    0    0    0    0 -0.00000000000E+00 -0.00000000000E+00 -0.74505805969E-08  0.93827000000E+00  0.93827000000E+00 0. -1.
     999902    2    1    2    0    0  0.22807671654E-01  0.38571723248E-02  0.38859971868E-02  0.10204743261E+01  0.10202047253E+01 0.  0.
     999903    2    3    3    0    0 -0.70795391165E-01  0.95694290602E-01 -0.46035289316E-01  0.12935832662E+00  0.21093699034E-01 0.  0.
         14    1    1    2    0    0 -0.22807671654E-01 -0.38571723248E-02 -0.38859971868E-02  0.23455673914E-01  0.00000000000E+00 0.  1.
     999901    1    3    3    0    0  0.93603062819E-01 -0.91837118277E-01  0.49921286503E-01  0.89111599947E+00  0.88000000000E+00 0. -1.
        -11    1    4    4    0    0 -0.21500977521E-01  0.43162452925E-01 -0.24948984208E-01  0.54295509122E-01  0.51100000000E-03 0.  1.
         11    1    4    4    0    0 -0.49294413644E-01  0.52531837677E-01 -0.21086305108E-01  0.75062817496E-01  0.51100000000E-03 0. -1.
</event>
<event>
 8    1  0.1060404E+005  0.1043930E+01  0.7957747E-01            NaN
         13   -1    0    0    0    0  0.00000000000E+00  0.00000000000E+00  0.74505805969E-08  0.10566000000E+00  0.10566000000E+00 0.  1.
     999900   -1    0    0    0    0 -0.00000000000E+00 -0.00000000000E+00 -0.74505805969E-08  0.93827000000E+00  0.93827000000E+00 0. -1.
     999902    2    1    2    0    0  0.20545235803E-01 -0.13286659991E-01  0.43222981527E-02  0.10190839881E+01  0.10187810611E+01 0.  0.
     999903    2    3    3    0    0  0.57394825521E-01 -0.68734298538E-01  0.95642324341E-01  0.13185702721E+00  0.14840876883E-01 0.  0.
         14    1    1    2    0    0 -0.20545235803E-01  0.13286659991E-01 -0.43222981527E-02  0.24846011938E-01  0.00000000000E+00 0. -1.
     999901    1    3    3    0    0 -0.36849589719E-01  0.55447638547E-01 -0.91320026189E-01  0.88722696085E+00  0.88000000000E+00 0. -1.
        -11    1    4    4    0    0  0.40808795911E-01 -0.51172868601E-01  0.78626087408E-01  0.10230514673E+00  0.51100000000E-03 0. -1.
         11    1    4    4    0    0  0.16586029610E-01 -0.17561429937E-01  0.17016236933E-01  0.29551880482E-01  0.51100000000E-03 0.  1.
</event>
<event>
 8    1  0.1060404E+005  0.1043930E+01  0.7957747E-01            NaN
         13   -1    0    0    0    0  0.00000000000E+00  0.00000000000E+00  0.74505805969E-08  0.10566000000E+00  0.10566000000E+00 0. -1.
     999900   -1    0    0    0    0 -0.00000000000E+00 -0.00000000000E+00 -0.74505805969E-08  0.93827000000E+00  0.93827000000E+00 0.  1.
     999902    2    1    2    0    0 -0.80766471642E-02 -0.22264142051E-01 -0.49157005999E-02  0.10197414001E+01  0.10194544790E+01 0.  0.
     999903    2    3    3    0    0  0.36516572561E-02  0.10537451243E+00  0.68824186256E-01  0.12740359967E+00  0.19436721013E-01 0.  0.
         14    1    1    2    0    0  0.80766471642E-02  0.22264142051E-01  0.49157005999E-02  0.24188599858E-01  0.00000000000E+00 0. -1.
     999901    1    3    3    0    0 -0.11728304420E-01 -0.12763865448E+00 -0.73739886856E-01  0.89233780047E+00  0.88000000000E+00 0.  1.
        -11    1    4    4    0    0 -0.58477331860E-02  0.26926295102E-01  0.11929281964E-01  0.30029822519E-01  0.51100000000E-03 0.  1.
         11    1    4    4    0    0  0.94993904421E-02  0.78448217328E-01  0.56894904292E-01  0.97373777148E-01  0.51100000000E-03 0. -1.
</event>
<event>
 8    1  0.1060404E+005  0.1043930E+01  0.7957747E-01            NaN
         13   -1    0    0    0    0  0.00000000000E+00  0.00000000000E+00  0.74505805969E-08  0.10566000000E+00  0.10566000000E+00 0. -1.
     999900   -1    0    0    0    0 -0.00000000000E+00 -0.00000000000E+00 -0.74505805969E-08  0.93827000000E+00  0.93827000000E+00 0. -1.
     999902    2    1    2    0    0 -0.14983505143E-01 -0.15711379692E-01 -0.91421548954E-02  0.10203730080E+01  0.10201010457E+01 0.  0.
     999903    2    3    3    0    0 -0.11074956881E+00  0.67773850308E-01  0.38059501071E-03  0.13119833144E+00  0.18817426593E-01 0.  0.
         14    1    1    2    0    0  0.14983505143E-01  0.15711379692E-01  0.91421548954E-02  0.23556992048E-01  0.00000000000E+00 0.  1.
     999901    1    3    3    0    0  0.95766063668E-01 -0.83485230000E-01 -0.95227499061E-02  0.88917467651E+00  0.88000000000E+00 0.  1.
        -11    1    4    4    0    0 -0.80410869293E-02  0.71495356474E-02  0.49258265139E-02  0.11844822786E-01  0.51100000000E-03 0. -1.
         11    1    4    4    0    0 -0.10270848188E+00  0.60624314660E-01 -0.45452315032E-02  0.11935350866E+00  0.51100000000E-03 0.  1.
</event>
<event>
 8    1  0.1376925E+005  0.1043930E+01  0.7957747E-01            NaN
         13   -1    0    0    0    0  0.00000000000E+00  0.00000000000E+00  0.74505805969E-08  0.10566000000E+00  0.10566000000E+00 0. -1.
     999900   -1    0    0    0    0 -0.00000000000E+00 -0.00000000000E+00 -0.74505805969E-08  0.93827000000E+00  0.93827000000E+00 0.  1.
     999902    2    1    2    0    0 -0.70204041429E-02  0.85554391134E-02 -0.22499509330E-01  0.10188559191E+01  0.10185473354E+01 0.  0.
     999903    2    3    3    0    0 -0.11420446242E-01  0.55635912623E-01 -0.11789274412E+00  0.13243852273E+00  0.20383371184E-01 0.  0.
         14    1    1    2    0    0  0.70204041429E-02 -0.85554391134E-02  0.22499509330E-01  0.25074080897E-01  0.00000000000E+00 0. -1.
     999901    1    3    3    0    0  0.44000420989E-02 -0.47080473509E-01  0.95393234786E-01  0.88641739638E+00  0.88000000000E+00 0. -1.
        -11    1    4    4    0    0  0.41495756300E-02  0.24819942141E-01 -0.59427792679E-01  0.64538145074E-01  0.51100000000E-03 0. -1.
         11    1    4    4    0    0 -0.15570021872E-01  0.30815970481E-01 -0.58464951437E-01  0.67900377652E-01  0.51100000000E-03 0.  1.
</event>
<event>
 8    1  0.1060404E+005  0.1043930E+01  0.7957747E-01            NaN
         13   -1    0    0    0    0  0.00000000000E+00  0.00000000000E+00  0.74505805969E-08  0.10566000000E+00  0.10566000000E+00 0. -1.
     999900   -1    0    0    0    0 -0.00000000000E+00 -0.00000000000E+00 -0.74505805969E-08  0.93827000000E+00  0.93827000000E+00 0. -1.
     999902    2    1    2    0    0  0.17295262468E-01 -0.47810930563E-02  0.18439613062E-01  0.10182005561E+01  0.10178754188E+01 0.  0.
     999903    2    3    3    0    0  0.96123276880E-01 -0.38957910849E-01  0.78979575080E-01  0.13194607923E+00  0.20361516857E-01 0.  0.
         14    1    1    2    0    0 -0.17295262468E-01  0.47810930563E-02 -0.18439613062E-01  0.25729443922E-01  0.00000000000E+00 0.  1.
     999901    1    3    3    0    0 -0.78828014412E-01  0.34176817793E-01 -0.60539962018E-01  0.88625447685E+00  0.88000000000E+00 0.  1.
        -11    1    4    4    0    0  0.39570182278E-01 -0.26808556462E-01  0.33661778531E-01  0.58462590431E-01  0.51100000000E-03 0.  1.
         11    1    4    4    0    0  0.56553094602E-01 -0.12149354387E-01  0.45317796549E-01  0.73483488800E-01  0.51100000000E-03 0. -1.
</event>
<event>
 8    1  0.1060404E+005  0.1043930E+01  0.7957747E-01            NaN
         13   -1    0    0    0    0  0.00000000000E+00  0.00000000000E+00  0.74505805969E-08  0.10566000000E+00  0.10566000000E+00 0. -1.
     999900   -1    0    0    0    0 -0.00000000000E+00 -0.00000000000E+00 -0.74505805969E-08  0.93827000000E+00  0.93827000000E+00 0.  1.
     999902    2    1    2    0    0  0.71772425816E-02  0.99875241561E-02  0.20182716058E-01  0.10202951639E+01  0.10200213802E+01 0.  0.
     999903    2    3    3    0    0  0.10954019218E+00  0.68851056765E-01 -0.15850686807E-01  0.13167741985E+00  0.18659499047E-01 0.  0.
         14    1    1    2    0    0 -0.71772425816E-02 -0.99875241561E-02 -0.20182716058E-01  0.23634836097E-01  0.00000000000E+00 0.  1.
     999901    1    3    3    0    0 -0.10236294960E+00 -0.58863532609E-01  0.36033402865E-01  0.88861774405E+00  0.88000000000E+00 0.  1.
        -11    1    4    4    0    0  0.41548477063E-01  0.19016614557E-01  0.10076910005E-02  0.45707593873E-01  0.51100000000E-03 0.  1.
         11    1    4    4    0    0  0.67991715122E-01  0.49834442208E-01 -0.16858377807E-01  0.85969825978E-01  0.51100000000E-03 0. -1.
</event>
<event>
 8    1  0.1060404E+005  0.1043930E+01  0.7957747E-01            NaN
         13   -1    0    0    0    0  0.00000000000E+00  0.00000000000E+00  0.74505805969E-08  0.10566000000E+00  0.10566000000E+00 0. -1.
     999900   -1    0    0    0    0 -0.00000000000E+00 -0.00000000000E+00 -0.74505805969E-08  0.93827000000E+00  0.93827000000E+00 0. -1.
     999902    2    1    2    0    0  0.85429599705E-02 -0.24661835485E-01 -0.13668424145E-01  0.10144679208E+01  0.10140400131E+01 0.  0.
     999903    2    3    3    0    0 -0.68482062111E-01 -0.40130342812E-01 -0.97004903277E-01  0.12704632000E+00  0.20750395657E-01 0.  0.
         14    1    1    2    0    0 -0.85429599705E-02  0.24661835485E-01  0.13668424145E-01  0.29462079240E-01  0.00000000000E+00 0. -1.
     999901    1    3    3    0    0  0.77025022081E-01  0.15468507326E-01  0.83336479132E-01  0.88742160076E+00  0.88000000000E+00 0.  1.
        -11    1    4    4    0    0 -0.20918314294E-01 -0.54514847326E-02 -0.15941952172E-01  0.26864502950E-01  0.51100000000E-03 0.  1.
         11    1    4    4    0    0 -0.47563747816E-01 -0.34678858079E-01 -0.81062951105E-01  0.10018181705E+00  0.51100000000E-03 0. -1.
</event>
<event>
 8    1  0.1060404E+005  0.1043930E+01  0.7957747E-01            NaN
         13   -1    0    0    0    0  0.00000000000E+00  0.00000000000E+00  0.74505805969E-08  0.10566000000E+00  0.10566000000E+00 0. -1.
     999900   -1    0    0    0    0 -0.00000000000E+00 -0.00000000000E+00 -0.74505805969E-08  0.93827000000E+00  0.93827000000E+00 0. -1.
     999902    2    1    2    0    0 -0.83137565460E-02  0.18764173282E-01  0.13087634600E-01  0.10195886992E+01  0.10192980999E+01 0.  0.
     999903    2    3    3    0    0 -0.77848253700E-01  0.10202916189E+00 -0.24126336638E-01  0.13214687895E+00  0.20258751596E-01 0.  0.
         14    1    1    2    0    0  0.83137565460E-02 -0.18764173282E-01 -0.13087634600E-01  0.24341300834E-01  0.00000000000E+00 0. -1.
     999901    1    3    3    0    0  0.69534497154E-01 -0.83264988604E-01  0.37213971238E-01  0.88744182022E+00  0.88000000000E+00 0. -1.
        -11    1    4    4    0    0 -0.41328130093E-01  0.51720420845E-01 -0.22606784910E-01  0.69959589152E-01  0.51100000000E-03 0. -1.
         11    1    4    4    0    0 -0.36520123606E-01  0.50308741041E-01 -0.15195517275E-02  0.62187289793E-01  0.51100000000E-03 0.  1.
</event>
<event>
 8    1  0.1060404E+005  0.1043930E+01  0.7957747E-01            NaN
         13   -1    0    0    0    0  0.00000000000E+00  0.00000000000E+00  0.74505805969E-08  0.10566000000E+00  0.10566000000E+00 0. -1.
     999900   -1    0    0    0    0 -0.00000000000E+00 -0.00000000000E+00 -0.74505805969E-08  0.93827000000E+00  0.93827000000E+00 0.  1.
     999902    2    1    2    0    0  0.24273133153E-01  0.79815474300E-02  0.24183588173E-01  0.10087485272E+01  0.10081348397E+01 0.  0.
     999903    2    3    3    0    0 -0.40415322620E-01 -0.10597786396E+00  0.30172732151E-01  0.11902541655E+00  0.19797728840E-01 0.  0.
         14    1    1    2    0    0 -0.24273133153E-01 -0.79815474300E-02 -0.24183588173E-01  0.35181472814E-01  0.00000000000E+00 0. -1.
     999901    1    3    3    0    0  0.64688455773E-01  0.11395941139E+00 -0.59891439781E-02  0.88972311064E+00  0.88000000000E+00 0.  1.
        -11    1    4    4    0    0 -0.18412312649E-01 -0.29437942688E-01  0.15569571555E-01  0.38056253182E-01  0.51100000000E-03 0.  1.
         11    1    4    4    0    0 -0.22003009971E-01 -0.76539921272E-01  0.14603160596E-01  0.80969163368E-01  0.51100000000E-03 0. -1.
</event>
<event>
 8    1  0.1060404E+005  0.1043930E+01  0.7957747E-01            NaN
         13   -1    0    0    0    0  0.00000000000E+00  0.00000000000E+00  0.74505805969E-08  0.10566000000E+00  0.10566000000E+00 0. -1.
     999900   -1    0    0    0    0 -0.00000000000E+00 -0.00000000000E+00 -0.74505805969E-08  0.93827000000E+00  0.93827000000E+00 0.  1.
     999902    2    1    2    0    0 -0.43717694370E-02 -0.20918803026E-01  0.91387359789E-02  0.10206872553E+01  0.10204225830E+01 0.  0.
     999903    2    3    3    0    0  0.10614078986E+00  0.24187307181E-01  0.69347951555E-01  0.13059021752E+00  0.19843725105E-01 0.  0.
         14    1    1    2    0    0  0.43717694370E-02  0.20918803026E-01 -0.91387359789E-02  0.23242744746E-01  0.00000000000E+00 0. -1.
     999901    1    3    3    0    0 -0.11051255930E+00 -0.45106110206E-01 -0.60209215576E-01  0.89009703773E+00  0.88000000000E+00 0.  1.
        -11    1    4    4    0    0  0.34467371996E-01  0.16194269387E-01  0.29653127304E-01  0.48268241870E-01  0.51100000000E-03 0.  1.
         11    1    4    4    0    0  0.71673417866E-01  0.79930377938E-02  0.39694824251E-01  0.82321975651E-01  0.51100000000E-03 0. -1.
</event>
<event>
 8    1  0.1060404E+005  0.1043930E+01  0.7957747E-01            NaN
         13   -1    0    0    0    0  0.00000000000E+00  0.00000000000E+00  0.74505805969E-08  0.10566000000E+00  0.10566000000E+00 0.  1.
     999900   -1    0    0    0    0 -0.00000000000E+00 -0.00000000000E+00 -0.74505805969E-08  0.93827000000E+00  0.93827000000E+00 0.  1.
     999902    2    1    2    0    0  0.24072980407E-01 -0.24799634839E-02 -0.29499639635E-02  0.10195504821E+01  0.10192589586E+01 0.  0.
     999903    2    3    3    0    0 -0.87925246073E-01  0.89156265667E-01 -0.83397293147E-03  0.12772915548E+00  0.25186366258E-01 0.  0.
         14    1    1    2    0    0 -0.24072980407E-01  0.24799634839E-02  0.29499639635E-02  0.24379517878E-01  0.00000000000E+00 0. -1.
     999901    1    3    3    0    0  0.11199822648E+00 -0.91636229150E-01 -0.21159910320E-02  0.89182132664E+00  0.88000000000E+00 0.  1.
        -11    1    4    4    0    0 -0.61507352306E-01  0.54162858603E-01 -0.11069639955E-01  0.82701678879E-01  0.51100000000E-03 0. -1.
         11    1    4    4    0    0 -0.26417893767E-01  0.34993407064E-01  0.10235667023E-01  0.45027476605E-01  0.51100000000E-03 0.  1.
</event>
<event>
 8    1  0.1060404E+005  0.1043930E+01  0.7957747E-01            NaN
         13   -1    0    0    0    0  0.00000000000E+00  0.00000000000E+00  0.74505805969E-08  0.10566000000E+00  0.10566000000E+00 0.  1.
     999900   -1    0    0    0    0 -0.00000000000E+00 -0.00000000000E+00 -0.74505805969E-08  0.93827000000E+00  0.93827000000E+00 0. -1.
     999902    2    1    2    0    0  0.17664985701E-01 -0.16510817429E-01 -0.13593224122E-02  0.10197121023E+01  0.10194244773E+01 0.  0.
     999903    2    3    3    0    0 -0.10394644153E+00 -0.74190259278E-01  0.78625204134E-02  0.12943051783E+00  0.19529015370E-01 0.  0.
         14    1    1    2    0    0 -0.17664985701E-01  0.16510817429E-01  0.13593224122E-02  0.24217897708E-01  0.00000000000E+00 0. -1.
     999901    1    3    3    0    0  0.12161142723E+00  0.57679441850E-01 -0.92218428256E-02  0.89028158446E+00  0.88000000000E+00 0. -1.
        -11    1    4    4    0    0 -0.88917192627E-01 -0.54057917698E-01  0.65670810173E-02  0.10426846736E+00  0.51100000000E-03 0.  1.
         11    1    4    4    0    0 -0.15029248898E-01 -0.20132341580E-01  0.12954393961E-02  0.25162050476E-01  0.51100000000E-03 0. -1.
</event>
<event>
 8    1  0.1060404E+005  0.1043930E+01  0.7957747E-01            NaN
         13   -1    0    0    0    0  0.00000000000E+00  0.00000000000E+00  0.74505805969E-08  0.10566000000E+00  0.10566000000E+00 0.  1.
     999900   -1    0    0    0    0 -0.00000000000E+00 -0.00000000000E+00 -0.74505805969E-08  0.93827000000E+00  0.93827000000E+00 0.  1.
     999902    2    1    2    0    0 -0.13635870777E-01  0.84876246748E-02 -0.16519873525E-01  0.10208891023E+01  0.10206290591E+01 0.  0.
     999903    2    3    3    0    0 -0.11284972779E+00 -0.65526560726E-01 -0.73467733098E-02  0.13217900627E+00  0.19710996852E-01 0.  0.
         14    1    1    2    0    0  0.13635870777E-01 -0.84876246748E-02  0.16519873525E-01  0.23040897676E-01  0.00000000000E+00 0.  1.
     999901    1    3    3    0    0  0.99213857014E-01  0.74014185401E-01 -0.91731002151E-02  0.88871009606E+00  0.88000000000E+00 0. -1.
        -11    1    4    4    0    0 -0.32669697900E-01 -0.11210156353E-01  0.35291583881E-02  0.34723088086E-01  0.51100000000E-03 0.  1.
         11    1    4    4    0    0 -0.80180029891E-01 -0.54316404373E-01 -0.10875931698E-01  0.97455918181E-01  0.51100000000E-03 0. -1.
</event>
<event>
 8    1  0.1060404E+005  0.1043930E+01  0.7957747E-01            NaN
         13   -1    0    0    0    0  0.00000000000E+00  0.00000000000E+00  0.74505805969E-08  0.10566000000E+00  0.10566000000E+00 0.  1.
     999900   -1    0    0    0    0 -0.00000000000E+00 -0.00000000000E+00 -0.74505805969E-08  0.93827000000E+00  0.93827000000E+00 0. -1.
     999902    2    1    2    0    0 -0.53526749294E-03 -0.23784744521E-01  0.19161551389E-02  0.10200621925E+01  0.10197829202E+01 0.  0.
     999903    2    3    3    0    0 -0.48441731599E-01 -0.22703466736E-01 -0.11757120253E+00  0.13069532384E+00  0.19905558209E-01 0.  0.
         14    1    1    2    0    0  0.53526749294E-03  0.23784744521E-01 -0.19161551389E-02  0.23867807476E-01  0.00000000000E+00 0.  1.
     999901    1    3    3    0    0  0.47906464106E-01 -0.10812777845E-02  0.11948735767E+00  0.88936686868E+00  0.88000000000E+00 0.  1.
        -11    1    4    4    0    0 -0.28650406241E-01 -0.10172420680E-01 -0.87115058119E-01  0.92269271116E-01  0.51100000000E-03 0.  1.
         11    1    4    4    0    0 -0.19791325357E-01 -0.12531046056E-01 -0.30456144412E-01  0.38426052726E-01  0.51100000000E-03 0. -1.
</event>
<event>
 8    1  0.1060404E+005  0.1043930E+01  0.7957747E-01            NaN
         13   -1    0    0    0    0  0.00000000000E+00  0.00000000000E+00  0.74505805969E-08  0.10566000000E+00  0.10566000000E+00 0.  1.
     999900   -1    0    0    0    0 -0.00000000000E+00 -0.00000000000E+00 -0.74505805969E-08  0.93827000000E+00  0.93827000000E+00 0.  1.
     999902    2    1    2    0    0 -0.86136836918E-02  0.21478117005E-01  0.34136031295E-02  0.10205385968E+01  0.10202704886E+01 0.  0.
     999903    2    3    3    0    0 -0.59838354546E-01 -0.96130533259E-01  0.59980602058E-01  0.12944062976E+00  0.18316547405E-01 0.  0.
         14    1    1    2    0    0  0.86136836918E-02 -0.21478117005E-01 -0.34136031295E-02  0.23391403189E-01  0.00000000000E+00 0.  1.
     999901    1    3    3    0    0  0.51224670854E-01  0.11760865026E+00 -0.56566998929E-01  0.89109796705E+00  0.88000000000E+00 0.  1.
        -11    1    4    4    0    0 -0.29518845298E-01 -0.30938403159E-01  0.20707585576E-01  0.47514337196E-01  0.51100000000E-03 0. -1.
         11    1    4    4    0    0 -0.30319509248E-01 -0.65192130101E-01  0.39273016482E-01  0.81926292560E-01  0.51100000000E-03 0.  1.
</event>
<event>
 8    1  0.1060404E+005  0.1043930E+01  0.7957747E-01            NaN
         13   -1    0    0    0    0  0.00000000000E+00  0.00000000000E+00  0.74505805969E-08  0.10566000000E+00  0.10566000000E+00 0.  1.
     999900   -1    0    0    0    0 -0.00000000000E+00 -0.00000000000E+00 -0.74505805969E-08  0.93827000000E+00  0.93827000000E+00 0. -1.
     999902    2    1    2    0    0 -0.53725965434E-02  0.21034995865E-01  0.25234636915E-02  0.10220735659E+01  0.10218398457E+01 0.  0.
     999903    2    3    3    0    0 -0.21256708455E-01  0.83117092004E-01 -0.10056092620E+00  0.13374204941E+00  0.20350362759E-01 0.  0.
         14    1    1    2    0    0  0.53725965434E-02 -0.21034995865E-01 -0.25234636915E-02  0.21856434148E-01  0.00000000000E+00 0.  1.
     999901    1    3    3    0    0  0.15884111912E-01 -0.62082096139E-01  0.10308438989E+00  0.88833151645E+00  0.88000000000E+00 0.  1.
        -11    1    4    4    0    0 -0.16595432413E-01  0.26033759907E-01 -0.36573967480E-01  0.47865240521E-01  0.51100000000E-03 0.  1.
         11    1    4    4    0    0 -0.46612760424E-02  0.57083332097E-01 -0.63986958716E-01  0.85876808886E-01  0.51100000000E-03 0. -1.
</event>
<event>
 8    1  0.1060404E+005  0.1043930E+01  0.7957747E-01            NaN
         13   -1    0    0    0    0  0.00000000000E+00  0.00000000000E+00  0.74505805969E-08  0.10566000000E+00  0.10566000000E+00 0. -1.
     999900   -1    0    0    0    0 -0.00000000000E+00 -0.00000000000E+00 -0.74505805969E-08  0.93827000000E+00  0.93827000000E+00 0. -1.
     999902    2    1    2    0    0  0.27854427038E-02  0.22785671719E-01 -0.62982513761E-02  0.10201263554E+01  0.10198486003E+01 0.  0.
     999903    2    3    3    0    0 -0.27825693676E-01  0.16924051033E-01 -0.12555888344E+00  0.13153505527E+00  0.21811575468E-01 0.  0.
         14    1    1    2    0    0 -0.27854427038E-02 -0.22785671719E-01  0.62982513761E-02  0.23803644619E-01  0.00000000000E+00 0.  1.
     999901    1    3    3    0    0  0.30611136380E-01  0.58616206861E-02  0.11926063206E+00  0.88859130011E+00  0.88000000000E+00 0.  1.
        -11    1    4    4    0    0 -0.11964772338E-02 -0.43633787751E-02 -0.23329494799E-01  0.23769667239E-01  0.51100000000E-03 0. -1.
         11    1    4    4    0    0 -0.26629216442E-01  0.21287429808E-01 -0.10222938864E+00  0.10776538803E+00  0.51100000000E-03 0.  1.
</event>
<event>
 8    1  0.1060404E+005  0.1043930E+01  0.7957747E-01            NaN
         13   -1    0    0    0    0  0.00000000000E+00  0.00000000000E+00  0.74505805969E-08  0.10566000000E+00  0.10566000000E+00 0. -1.
     999900   -1    0    0    0    0 -0.00000000000E+00 -0.00000000000E+00 -0.74505805969E-08  0.93827000000E+00  0.93827000000E+00 0.  1.
     999902    2    1    2    0    0  0.69780217163E-02  0.23290300466E-01  0.25142240981E-02  0.10194871645E+01  0.10191941064E+01 0.  0.
     999903    2    3    3    0    0 -0.94917555569E-01  0.53340991500E-01 -0.69303449479E-01  0.13019332618E+00  0.17109364150E-01 0.  0.
         14    1    1    2    0    0 -0.69780217163E-02 -0.23290300466E-01 -0.25142240981E-02  0.24442835467E-01  0.00000000000E+00 0.  1.
     999901    1    3    3    0    0  0.10189557729E+00 -0.30050691035E-01  0.71817673577E-01  0.88929383836E+00  0.88000000000E+00 0. -1.
        -11    1    4    4    0    0 -0.37385078612E-01  0.30291179239E-01 -0.33254729376E-01  0.58492202809E-01  0.51100000000E-03 0.  1.
         11    1    4    4    0    0 -0.57532476957E-01  0.23049812262E-01 -0.36048720103E-01  0.71701123367E-01  0.51100000000E-03 0. -1.
</event>
<event>
 8    1  0.1060404E+005  0.1043930E+01  0.7957747E-01            NaN
         13   -1    0    0    0    0  0.00000000000E+00  0.00000000000E+00  0.74505805969E-08  0.10566000000E+00  0.10566000000E+00 0. -1.
     999900   -1    0    0    0    0 -0.00000000000E+00 -0.00000000000E+00 -0.74505805969E-08  0.93827000000E+00  0.93827000000E+00 0.  1.
     999902    2    1    2    0    0  0.13403496287E-01  0.19740227427E-01  0.27755258474E-02  0.10199084714E+01  0.10196255471E+01 0.  0.
     999903    2    3    3    0    0 -0.21784974606E-01 -0.98611193507E-01 -0.75778682365E-01  0.12782324514E+00  0.19940428617E-01 0.  0.
         14    1    1    2    0    0 -0.13403496287E-01 -0.19740227427E-01 -0.27755258474E-02  0.24021528580E-01  0.00000000000E+00 0.  1.
     999901    1    3    3    0    0  0.35188470893E-01  0.11835142093E+00  0.78554208212E-01  0.89208522628E+00  0.88000000000E+00 0. -1.
        -11    1    4    4    0    0 -0.21590308673E-01 -0.59843308364E-01 -0.53366784333E-01  0.83039976973E-01  0.51100000000E-03 0. -1.
         11    1    4    4    0    0 -0.19466593314E-03 -0.38767885143E-01 -0.22411898032E-01  0.44783268166E-01  0.51100000000E-03 0.  1.
</event>
<event>
 8    1  0.1060404E+005  0.1043930E+01  0.7957747E-01            NaN
         13   -1    0    0    0    0  0.00000000000E+00  0.00000000000E+00  0.74505805969E-08  0.10566000000E+00  0.10566000000E+00 0.  1.
     999900   -1    0    0    0    0 -0.00000000000E+00 -0.00000000000E+00 -0.74505805969E-08  0.93827000000E+00  0.93827000000E+00 0.  1.
     999902    2    1    2    0    0  0.18598299222E-01 -0.10540861514E-01  0.70883942727E-02  0.10214077481E+01  0.10211594078E+01 0.  0.
     999903    2    3    3    0    0  0.12130714165E+00 -0.24107875441E-01 -0.46547583907E-01  0.13370848131E+00  0.20363401830E-01 0.  0.
         14    1    1    2    0    0 -0.18598299222E-01  0.10540861514E-01 -0.70883942727E-02  0.22522251859E-01  0.00000000000E+00 0. -1.
     999901    1    3    3    0    0 -0.10270884242E+00  0.13567013927E-01  0.53635978179E-01  0.88769926683E+00  0.88000000000E+00 0. -1.
        -11    1    4    4    0    0  0.63744115411E-01 -0.41714199674E-02 -0.30032007716E-01  0.70589628152E-01  0.51100000000E-03 0. -1.
         11    1    4    4    0    0  0.57563026234E-01 -0.19936455473E-01 -0.16515576191E-01  0.63118853158E-01  0.51100000000E-03 0.  1.
</event>
<event>
 8    1  0.1060404E+005  0.1043930E+01  0.7957747E-01            NaN
         13   -1    0    0    0    0  0.00000000000E+00  0.00000000000E+00  0.74505805969E-08  0.10566000000E+00  0.10566000000E+00 0.  1.
     999900   -1    0    0    0    0 -0.00000000000E+00 -0.00000000000E+00 -0.74505805969E-08  0.93827000000E+00  0.93827000000E+00 0.  1.
     999902    2    1    2    0    0 -0.21250881148E-01 -0.63547282743E-02  0.35030271090E-02  0.10214744056E+01  0.10212275494E+01 0.  0.
     999903    2    3    3    0    0  0.78098592146E-02  0.12876261221E+00 -0.64462596595E-02  0.13063198932E+00  0.19553980862E-01 0.  0.
         14    1    1    2    0    0  0.21250881148E-01  0.63547282743E-02 -0.35030271090E-02  0.22455594402E-01  0.00000000000E+00 0.  1.
     999901    1    3    3    0    0 -0.29060740363E-01 -0.13511734048E+00  0.99492867685E-02  0.89084241628E+00  0.88000000000E+00 0. -1.
        -11    1    4    4    0    0 -0.10373285359E-02  0.68630165810E-01 -0.11674315350E-01  0.69625616475E-01  0.51100000000E-03 0. -1.
         11    1    4    4    0    0  0.88471877506E-02  0.60132446396E-01  0.52280556906E-02  0.61006372847E-01  0.51100000000E-03 0.  1.
</event>
<event>
 7    1  0.1060404E+005  0.1043930E+01  0.7957747E-01            NaN
         13   -1    0    0    0    0  0.00000000000E+00  0.00000000000E+00  0.74505805969E-08  0.10566000000E+00  0.10566000000E+00 0.  1.
     999900   -1    0    0    0    0 -0.00000000000E+00 -0.00000000000E+00 -0.74505805969E-08  0.93827000000E+00  0.93827000000E+00 0.  1.
     999902    2    1    2    0    0  0.82296422931E-02 -0.18407325798E-01  0.94229678855E-02  0.10216735632E+01  0.10214311141E+01 0.  0.
         14    1    1    2    0    0 -0.82296422931E-02  0.18407325798E-01 -0.94229678855E-02  0.22256436801E-01  0.00000000000E+00 0. -1.
     999901    1    3    3    0    0  0.12331309718E+00 -0.75467549100E-01  0.25733382247E-01  0.89216796505E+00  0.88000000000E+00 0.  1.
        -11    1    3    3    0    0 -0.75894530785E-01  0.37984303857E-01 -0.11728144070E-01  0.85677287696E-01  0.51100000000E-03 0.  1.
         11    1    3    3    0    0 -0.39188924103E-01  0.19075919444E-01 -0.45822702911E-02  0.43828310451E-01  0.51100000000E-03 0. -1.
</event>
<event>
 8    1  0.1060404E+005  0.1043930E+01  0.7957747E-01            NaN
         13   -1    0    0    0    0  0.00000000000E+00  0.00000000000E+00  0.74505805969E-08  0.10566000000E+00  0.10566000000E+00 0. -1.
     999900   -1    0    0    0    0 -0.00000000000E+00 -0.00000000000E+00 -0.74505805969E-08  0.93827000000E+00  0.93827000000E+00 0. -1.
     999902    2    1    2    0    0 -0.51616977527E-02 -0.22303109726E-01 -0.92683425335E-02  0.10192323483E+01  0.10189330723E+01 0.  0.
     999903    2    3    3    0    0  0.73782904210E-01  0.45952593390E-02 -0.10522989528E+00  0.13009546791E+00  0.19658752420E-01 0.  0.
         14    1    1    2    0    0  0.51616977527E-02  0.22303109726E-01  0.92683425335E-02  0.24697651720E-01  0.00000000000E+00 0.  1.
     999901    1    3    3    0    0 -0.78944601963E-01 -0.26898369065E-01  0.95961552747E-01  0.88913688038E+00  0.88000000000E+00 0.  1.
        -11    1    4    4    0    0  0.21885927743E-01 -0.93010112891E-03 -0.47254870040E-01  0.52087837206E-01  0.51100000000E-03 0.  1.
         11    1    4    4    0    0  0.51896976467E-01  0.55253604679E-02 -0.57975025240E-01  0.78007630699E-01  0.51100000000E-03 0. -1.
</event>
<event>
 8    1  0.1060404E+005  0.1043930E+01  0.7957747E-01            NaN
         13   -1    0    0    0    0  0.00000000000E+00  0.00000000000E+00  0.74505805969E-08  0.10566000000E+00  0.10566000000E+00 0.  1.
     999900   -1    0    0    0    0 -0.00000000000E+00 -0.00000000000E+00 -0.74505805969E-08  0.93827000000E+00  0.93827000000E+00 0. -1.
     999902    2    1    2    0    0 -0.20035730002E-01  0.81163436984E-02 -0.95029689595E-02  0.10203161919E+01  0.10200429009E+01 0.  0.
     999903    2    3    3    0    0 -0.66139731796E-01 -0.76263997109E-01 -0.82629755482E-01  0.13206332941E+00  0.20552009804E-01 0.  0.
         14    1    1    2    0    0  0.20035730002E-01 -0.81163436984E-02  0.95029689595E-02  0.23613808053E-01  0.00000000000E+00 0.  1.
     999901    1    3    3    0    0  0.46104001794E-01  0.84380340807E-01  0.73126786522E-01  0.88825286254E+00  0.88000000000E+00 0.  1.
        -11    1    4    4    0    0 -0.36860417298E-01 -0.53718534015E-01 -0.44091463346E-01  0.78668224342E-01  0.51100000000E-03 0. -1.
         11    1    4    4    0    0 -0.29279314498E-01 -0.22545463094E-01 -0.38538292135E-01  0.53395105069E-01  0.51100000000E-03 0.  1.
</event>
<event>
 8    1  0.1060404E+005  0.1043930E+01  0.7957747E-01            NaN
         13   -1    0    0    0    0  0.00000000000E+00  0.00000000000E+00  0.74505805969E-08  0.10566000000E+00  0.10566000000E+00 0.  1.
     999900   -1    0    0    0    0 -0.00000000000E+00 -0.00000000000E+00 -0.74505805969E-08  0.93827000000E+00  0.93827000000E+00 0. -1.
     999902    2    1    2    0    0 -0.86718143878E-02 -0.55843408684E-02  0.21330693401E-01  0.10202364627E+01  0.10199613013E+01 0.  0.
     999903    2    3    3    0    0  0.11065815405E+00  0.51823987755E-01  0.39501891387E-01  0.13014346196E+00  0.21117966398E-01 0.  0.
         14    1    1    2    0    0  0.86718143878E-02  0.55843408684E-02 -0.21330693401E-01  0.23693537277E-01  0.00000000000E+00 0. -1.
     999901    1    3    3    0    0 -0.11932996844E+00 -0.57408328624E-01 -0.18171197986E-01  0.89009300076E+00  0.88000000000E+00 0.  1.
        -11    1    4    4    0    0  0.38666320730E-01  0.19214573402E-01  0.35801627419E-02  0.43328545742E-01  0.51100000000E-03 0. -1.
         11    1    4    4    0    0  0.71991833318E-01  0.32609414353E-01  0.35921728645E-01  0.86814916223E-01  0.51100000000E-03 0.  1.
</event>
<event>
 8    1  0.1060404E+005  0.1043930E+01  0.7957747E-01            NaN
         13   -1    0    0    0    0  0.00000000000E+00  0.00000000000E+00  0.74505805969E-08  0.10566000000E+00  0.10566000000E+00 0. -1.
     999900   -1    0    0    0    0 -0.00000000000E+00 -0.00000000000E+00 -0.74505805969E-08  0.93827000000E+00  0.93827000000E+00 0. -1.
     999902    2    1    2    0    0 -0.11707306754E-01 -0.74729530743E-02  0.18498441886E-01  0.10207978057E+01  0.10205356739E+01 0.  0.
     999903    2    3    3    0    0 -0.44306541215E-01 -0.88790231323E-01  0.87581011362E-01  0.13375349386E+00  0.19307739284E-01 0.  0.
         14    1    1    2    0    0  0.11707306754E-01  0.74729530743E-02 -0.18498441886E-01  0.23132194260E-01  0.00000000000E+00 0.  1.
     999901    1    3    3    0    0  0.32599234461E-01  0.81317278248E-01 -0.69082569477E-01  0.88704431188E+00  0.88000000000E+00 0. -1.
        -11    1    4    4    0    0 -0.36713773490E-01 -0.60554950010E-01  0.52927812976E-01  0.88410506401E-01  0.51100000000E-03 0.  1.
         11    1    4    4    0    0 -0.75927677253E-02 -0.28235281313E-01  0.34653198386E-01  0.45342987461E-01  0.51100000000E-03 0. -1.
</event>
<event>
 8    1  0.1060404E+005  0.1043930E+01  0.7957747E-01            NaN
         13   -1    0    0    0    0  0.00000000000E+00  0.00000000000E+00  0.74505805969E-08  0.10566000000E+00  0.10566000000E+00 0.  1.
     999900   -1    0    0    0    0 -0.00000000000E+00 -0.00000000000E+00 -0.74505805969E-08  0.93827000000E+00  0.93827000000E+00 0. -1.
     999902    2    1    2    0    0  0.21509564307E-01  0.87863503570E-02  0.89656315932E-02  0.10190253045E+01  0.10187209271E+01 0.  0.
     999903    2    3    3    0    0  0.80546868149E-01  0.50923297917E-02 -0.10030858824E+00  0.13029592826E+00  0.20037121909E-01 0.  0.
         14    1    1    2    0    0 -0.21509564307E-01 -0.87863503570E-02 -0.89656315932E-02  0.24904695524E-01  0.00000000000E+00 0. -1.
     999901    1    3    3    0    0 -0.59037303842E-01  0.36940205653E-02  0.10927421983E+00  0.88872937622E+00  0.88000000000E+00 0.  1.
        -11    1    4    4    0    0  0.25619238081E-01 -0.76744003780E-02 -0.31129969782E-01  0.41043609985E-01  0.51100000000E-03 0. -1.
         11    1    4    4    0    0  0.54927630068E-01  0.12766730170E-01 -0.69178618459E-01  0.89252318272E-01  0.51100000000E-03 0.  1.
</event>
<event>
 8    1  0.1060404E+005  0.1043930E+01  0.7957747E-01            NaN
         13   -1    0    0    0    0  0.00000000000E+00  0.00000000000E+00  0.74505805969E-08  0.10566000000E+00  0.10566000000E+00 0. -1.
     999900   -1    0    0    0    0 -0.00000000000E+00 -0.00000000000E+00 -0.74505805969E-08  0.93827000000E+00  0.93827000000E+00 0.  1.
     999902    2    1    2    0    0 -0.11892081919E-01 -0.11240734117E-01 -0.16706167603E-01  0.10205447108E+01  0.10202767443E+01 0.  0.
     999903    2    3    3    0    0 -0.82164641871E-01 -0.10223052688E+00  0.57119887834E-02  0.13278351046E+00  0.19917952546E-01 0.  0.
         14    1    1    2    0    0  0.11892081919E-01  0.11240734117E-01  0.16706167603E-01  0.23385289218E-01  0.00000000000E+00 0. -1.
     999901    1    3    3    0    0  0.70272559952E-01  0.90989792761E-01 -0.22418156386E-01  0.88776120033E+00  0.88000000000E+00 0.  1.
        -11    1    4    4    0    0 -0.68061013083E-02 -0.19507285366E-01  0.26745957590E-02  0.20839188584E-01  0.51100000000E-03 0.  1.
         11    1    4    4    0    0 -0.75358540562E-01 -0.82723241512E-01  0.30373930244E-02  0.11194432187E+00  0.51100000000E-03 0. -1.
</event>
<event>
 8    1  0.1060404E+005  0.1043930E+01  0.7957747E-01            NaN
         13   -1    0    0    0    0  0.00000000000E+00  0.00000000000E+00  0.74505805969E-08  0.10566000000E+00  0.10566000000E+00 0.  1.
     999900   -1    0    0    0    0 -0.00000000000E+00 -0.00000000000E+00 -0.74505805969E-08  0.93827000000E+00  0.93827000000E+00 0.  1.
     999902    2    1    2    0    0 -0.13361857188E-01 -0.12116718415E-01  0.15595274212E-01  0.10200853639E+01  0.10198066400E+01 0.  0.
     999903    2    3    3    0    0  0.58029813604E-01 -0.94355214085E-02  0.11589228231E+00  0.13151153506E+00  0.20193425262E-01 0.  0.
         14    1    1    2    0    0  0.13361857188E-01  0.12116718415E-01 -0.15595274212E-01  0.23844636093E-01  0.00000000000E+00 0. -1.
     999901    1    3    3    0    0 -0.71391670792E-01 -0.26811970067E-02 -0.10029700810E+00  0.88857382885E+00  0.88000000000E+00 0.  1.
        -11    1    4    4    0    0  0.17614206506E-01 -0.79610248091E-02  0.55976012204E-01  0.59221729543E-01  0.51100000000E-03 0. -1.
         11    1    4    4    0    0  0.40415607098E-01 -0.14744965994E-02  0.59916270107E-01  0.72289805518E-01  0.51100000000E-03 0.  1.
</event>
<event>
 8    1  0.1060404E+005  0.1043930E+01  0.7957747E-01            NaN
         13   -1    0    0    0    0  0.00000000000E+00  0.00000000000E+00  0.74505805969E-08  0.10566000000E+00  0.10566000000E+00 0. -1.
     999900   -1    0    0    0    0 -0.00000000000E+00 -0.00000000000E+00 -0.74505805969E-08  0.93827000000E+00  0.93827000000E+00 0. -1.
     999902    2    1    2    0    0 -0.17458639879E-01  0.14991541148E-01 -0.76302672345E-02  0.10196860030E+01  0.10193977503E+01 0.  0.
     999903    2    3    3    0    0 -0.11691451719E+00 -0.51354252750E-01 -0.22857220390E-01  0.13147144784E+00  0.21354752784E-01 0.  0.
         14    1    1    2    0    0  0.17458639879E-01 -0.14991541148E-01  0.76302672345E-02  0.24243996999E-01  0.00000000000E+00 0.  1.
     999901    1    3    3    0    0  0.99455877316E-01  0.66345793898E-01  0.15226953156E-01  0.88821455516E+00  0.88000000000E+00 0. -1.
        -11    1    4    4    0    0 -0.60929979393E-01 -0.30801153277E-01 -0.22314377516E-01  0.71828726823E-01  0.51100000000E-03 0.  1.
         11    1    4    4    0    0 -0.55984537802E-01 -0.20553099472E-01 -0.54284287429E-03  0.59642721016E-01  0.51100000000E-03 0. -1.
</event>
<event>
 8    1  0.1060404E+005  0.1043930E+01  0.7957747E-01            NaN
         13   -1    0    0    0    0  0.00000000000E+00  0.00000000000E+00  0.74505805969E-08  0.10566000000E+00  0.10566000000E+00 0.  1.
     999900   -1    0    0    0    0 -0.00000000000E+00 -0.00000000000E+00 -0.74505805969E-08  0.93827000000E+00  0.93827000000E+00 0.  1.
     999902    2    1    2    0    0  0.95837950390E-02  0.14857867118E-01 -0.15733528203E-01  0.10202625275E+01  0.10199879783E+01 0.  0.
     999903    2    3    3    0    0  0.53562962187E-01 -0.29778938769E-01  0.11163198575E+00  0.12888797904E+00  0.19865416839E-01 0.  0.
         14    1    1    2    0    0 -0.95837950390E-02 -0.14857867118E-01  0.15733528203E-01  0.23667472454E-01  0.00000000000E+00 0.  1.
     999901    1    3    3    0    0 -0.43979167148E-01  0.44636805888E-01 -0.12736551395E+00  0.89137454851E+00  0.88000000000E+00 0.  1.
        -11    1    4    4    0    0  0.25205684963E-01 -0.66789852533E-02  0.61748111503E-01  0.67030036504E-01  0.51100000000E-03 0.  1.
         11    1    4    4    0    0  0.28357277224E-01 -0.23099953516E-01  0.49883874244E-01  0.61857942535E-01  0.51100000000E-03 0. -1.
</event>
<event>
 8    1  0.1060404E+005  0.1043930E+01  0.7957747E-01            NaN
         13   -1    0    0    0    0  0.00000000000E+00  0.00000000000E+00  0.74505805969E-08  0.10566000000E+00  0.10566000000E+00 0. -1.
     999900   -1    0    0    0    0 -0.00000000000E+00 -0.00000000000E+00 -0.74505805969E-08  0.93827000000E+00  0.93827000000E+00 0. -1.
     999902    2    1    2    0    0 -0.16614293730E-01  0.15159520061E-01  0.74122599047E-02  0.10202490498E+01  0.10199741841E+01 0.  0.
     999903    2    3    3    0    0 -0.28200608994E-01 -0.11635048712E+00  0.44862577500E-01  0.12961351775E+00  0.21314383035E-01 0.  0.
         14    1    1    2    0    0  0.16614293730E-01 -0.15159520061E-01 -0.74122599047E-02  0.23680950182E-01  0.00000000000E+00 0. -1.
     999901    1    3    3    0    0  0.11586315263E-01  0.13151000718E+00 -0.37450317596E-01  0.89063553207E+00  0.88000000000E+00 0. -1.
        -11    1    4    4    0    0 -0.18075351755E-01 -0.36654990476E-01  0.20089871675E-01  0.45543064596E-01  0.51100000000E-03 0. -1.
         11    1    4    4    0    0 -0.10125257238E-01 -0.79695496641E-01  0.24772705825E-01  0.84070453156E-01  0.51100000000E-03 0.  1.
</event>
<event>
 8    1  0.1060404E+005  0.1043930E+01  0.7957747E-01            NaN
         13   -1    0    0    0    0  0.00000000000E+00  0.00000000000E+00  0.74505805969E-08  0.10566000000E+00  0.10566000000E+00 0. -1.
     999900   -1    0    0    0    0 -0.00000000000E+00 -0.00000000000E+00 -0.74505805969E-08  0.93827000000E+00  0.93827000000E+00 0. -1.
     999902    2    1    2    0    0 -0.20276116903E-01 -0.11505721638E-03 -0.20141653651E-02  0.10235537634E+01  0.10233509250E+01 0.  0.
     999903    2    3    3    0    0  0.27863523195E-02 -0.82737130885E-01 -0.10287014882E+00  0.13364915396E+00  0.20655078098E-01 0.  0.
         14    1    1    2    0    0  0.20276116903E-01  0.11505721638E-03  0.20141653651E-02  0.20376236575E-01  0.00000000000E+00 0. -1.
     999901    1    3    3    0    0 -0.23062469222E-01  0.82622073668E-01  0.10085598345E+00  0.88990460946E+00  0.88000000000E+00 0.  1.
        -11    1    4    4    0    0 -0.78971854331E-02 -0.41206760247E-01 -0.43827462272E-01  0.60675120091E-01  0.51100000000E-03 0.  1.
         11    1    4    4    0    0  0.10683537753E-01 -0.41530370638E-01 -0.59042686545E-01  0.72974033872E-01  0.51100000000E-03 0. -1.
</event>
<event>
 8    1  0.1060404E+005  0.1043930E+01  0.7957747E-01            NaN
         13   -1    0    0    0    0  0.00000000000E+00  0.00000000000E+00  0.74505805969E-08  0.10566000000E+00  0.10566000000E+00 0.  1.
     999900   -1    0    0    0    0 -0.00000000000E+00 -0.00000000000E+00 -0.74505805969E-08  0.93827000000E+00  0.93827000000E+00 0. -1.
     999902    2    1    2    0    0 -0.16113139665E-01  0.17382027471E-01  0.46505027624E-02  0.10197764221E+01  0.10194903412E+01 0.  0.
     999903    2    3    3    0    0 -0.56578664098E-01 -0.24707101037E-01  0.11387862971E+00  0.13110340175E+00  0.20203305967E-01 0.  0.
         14    1    1    2    0    0  0.16113139665E-01 -0.17382027471E-01 -0.46505027624E-02  0.24153577888E-01  0.00000000000E+00 0. -1.
     999901    1    3    3    0    0  0.40465524433E-01  0.42089128508E-01 -0.10922812695E+00  0.88867302036E+00  0.88000000000E+00 0. -1.
        -11    1    4    4    0    0 -0.24432489460E-01 -0.21216069623E-01  0.51123156877E-01  0.60505424894E-01  0.51100000000E-03 0.  1.
         11    1    4    4    0    0 -0.32146174638E-01 -0.34910314142E-02  0.62755472835E-01  0.70597976854E-01  0.51100000000E-03 0. -1.
</event>
<event>
 8    1  0.1060404E+005  0.1043930E+01  0.7957747E-01            NaN
         13   -1    0    0    0    0  0.00000000000E+00  0.00000000000E+00  0.74505805969E-08  0.10566000000E+00  0.10566000000E+00 0.  1.
     999900   -1    0    0    0    0 -0.00000000000E+00 -0.00000000000E+00 -0.74505805969E-08  0.93827000000E+00  0.93827000000E+00 0.  1.
     999902    2    1    2    0    0 -0.13974424141E-01 -0.19042798197E-01  0.76059433764E-02  0.10191154263E+01  0.10188132749E+01 0.  0.
     999903    2    3    3    0    0 -0.96458593837E-01  0.26976421273E-01 -0.80008274855E-01  0.12973493515E+00  0.19945970072E-01 0.  0.
         14    1    1    2    0    0  0.13974424141E-01  0.19042798197E-01 -0.76059433764E-02  0.24814573700E-01  0.00000000000E+00 0. -1.
     999901    1    3    3    0    0  0.82484169696E-01 -0.46019219470E-01  0.87614218232E-01  0.88938049116E+00  0.88000000000E+00 0.  1.
        -11    1    4    4    0    0 -0.63952092620E-01  0.10054613217E-01 -0.58401719748E-01  0.87189376577E-01  0.51100000000E-03 0. -1.
         11    1    4    4    0    0 -0.32506501217E-01  0.16921808056E-01 -0.21606555107E-01  0.42545558568E-01  0.51100000000E-03 0.  1.
</event>
<event>
 7    1  0.1060404E+005  0.1043930E+01  0.7957747E-01            NaN
         13   -1    0    0    0    0  0.00000000000E+00  0.00000000000E+00  0.74505805969E-08  0.10566000000E+00  0.10566000000E+00 0. -1.
     999900   -1    0    0    0    0 -0.00000000000E+00 -0.00000000000E+00 -0.74505805969E-08  0.93827000000E+00  0.93827000000E+00 0.  1.
     999903    2    1    2    0    0  0.20036802757E-01 -0.38611930501E-01  0.71170075521E-01  0.85147387911E-01  0.17103899459E-01 0.  0.
         14    1    1    2    0    0  0.59429324152E-01 -0.20175688796E-01 -0.36429306748E-01  0.72567192158E-01  0.00000000000E+00 0.  1.
     999901    1    1    2    0    0 -0.79466126909E-01  0.58787619297E-01 -0.34740768773E-01  0.88621541993E+00  0.88000000000E+00 0. -1.
        -11    1    3    3    0    0  0.70016946949E-02 -0.33717382784E-02  0.21481633871E-01  0.22849815369E-01  0.51100000000E-03 0.  1.
         11    1    3    3    0    0  0.13035108062E-01 -0.35240192222E-01  0.49688441650E-01  0.62297572542E-01  0.51100000000E-03 0. -1.
</event>
<event>
 8    1  0.1060404E+005  0.1043930E+01  0.7957747E-01            NaN
         13   -1    0    0    0    0  0.00000000000E+00  0.00000000000E+00  0.74505805969E-08  0.10566000000E+00  0.10566000000E+00 0. -1.
     999900   -1    0    0    0    0 -0.00000000000E+00 -0.00000000000E+00 -0.74505805969E-08  0.93827000000E+00  0.93827000000E+00 0.  1.
     999902    2    1    2    0    0 -0.52361466127E-02 -0.23735852684E-01 -0.69045958921E-03  0.10196136543E+01  0.10193236578E+01 0.  0.
     999903    2    3    3    0    0  0.47906144675E-01 -0.37194861844E-01  0.11359416649E+00  0.13053197986E+00  0.21366016503E-01 0.  0.
         14    1    1    2    0    0  0.52361466127E-02  0.23735852684E-01  0.69045958921E-03  0.24316345705E-01  0.00000000000E+00 0. -1.
     999901    1    3    3    0    0 -0.53142291288E-01  0.13459009160E-01 -0.11428462608E+00  0.88908167443E+00  0.88000000000E+00 0.  1.
        -11    1    4    4    0    0  0.26229209875E-01 -0.13636918009E-01  0.73489036679E-01  0.79213866314E-01  0.51100000000E-03 0.  1.
         11    1    4    4    0    0  0.21676934800E-01 -0.23557943835E-01  0.40105129813E-01  0.51318113550E-01  0.51100000000E-03 0. -1.
</event>
<event>
 7    1  0.1832226E+005  0.1043930E+01  0.7957747E-01            NaN
         13   -1    0    0    0    0  0.00000000000E+00  0.00000000000E+00  0.74505805969E-08  0.10566000000E+00  0.10566000000E+00 0.  1.
     999900   -1    0    0    0    0 -0.00000000000E+00 -0.00000000000E+00 -0.74505805969E-08  0.93827000000E+00  0.93827000000E+00 0. -1.
     999903    2    1    2    0    0  0.46790499636E-01  0.90364297974E-01 -0.56125795516E-03  0.10386146526E+00  0.20780561836E-01 0.  0.
         14    1    1    2    0    0  0.34834449270E-01  0.97680508388E-02 -0.34438016123E-01  0.49948279526E-01  0.00000000000E+00 0. -1.
     999901    1    1    2    0    0 -0.81624948906E-01 -0.10013234881E+00  0.34999274078E-01  0.89012025522E+00  0.88000000000E+00 0.  1.
        -11    1    3    3    0    0  0.14365138483E-01  0.24257337430E-01  0.90289138089E-02  0.29606722689E-01  0.51100000000E-03 0.  1.
         11    1    3    3    0    0  0.32425361153E-01  0.66106960544E-01 -0.95901717640E-02  0.74254742567E-01  0.51100000000E-03 0. -1.
</event>
<event>
 8    1  0.1060404E+005  0.1043930E+01  0.7957747E-01            NaN
         13   -1    0    0    0    0  0.00000000000E+00  0.00000000000E+00  0.74505805969E-08  0.10566000000E+00  0.10566000000E+00 0. -1.
     999900   -1    0    0    0    0 -0.00000000000E+00 -0.00000000000E+00 -0.74505805969E-08  0.93827000000E+00  0.93827000000E+00 0. -1.
     999902    2    1    2    0    0 -0.22492893517E-01 -0.43905177498E-02  0.37142213405E-02  0.10207135760E+01  0.10204495097E+01 0.  0.
     999903    2    3    3    0    0 -0.49343432350E-01  0.10494941123E+00 -0.58587471473E-01  0.13135556457E+00  0.19303867381E-01 0.  0.
         14    1    1    2    0    0  0.22492893517E-01  0.43905177498E-02 -0.37142213405E-02  0.23216424036E-01  0.00000000000E+00 0.  1.
     999901    1    3    3    0    0  0.26850538833E-01 -0.10933992898E+00  0.62301692813E-01  0.88935801140E+00  0.88000000000E+00 0.  1.
        -11    1    4    4    0    0 -0.93445825316E-02  0.20815360878E-01 -0.20614257936E-01  0.30754011485E-01  0.51100000000E-03 0. -1.
         11    1    4    4    0    0 -0.39998849818E-01  0.84134050353E-01 -0.37973213537E-01  0.10060155308E+00  0.51100000000E-03 0.  1.
</event>
<event>
 8    1  0.1060404E+005  0.1043930E+01  0.7957747E-01            NaN
         13   -1    0    0    0    0  0.00000000000E+00  0.00000000000E+00  0.74505805969E-08  0.10566000000E+00  0.10566000000E+00 0.  1.
     999900   -1    0    0    0    0 -0.00000000000E+00 -0.00000000000E+00 -0.74505805969E-08  0.93827000000E+00  0.93827000000E+00 0. -1.
     999902    2    1    2    0    0 -0.24419976203E-01  0.67825851741E-02  0.13810388415E-02  0.10185479991E+01  0.10182316930E+01 0.  0.
     999903    2    3    3    0    0 -0.98750766077E-01  0.85137110923E-01 -0.23114374233E-02  0.13193752525E+00  0.20053088767E-01 0.  0.
         14    1    1    2    0    0  0.24419976203E-01 -0.67825851741E-02 -0.13810388415E-02  0.25382000860E-01  0.00000000000E+00 0. -1.
     999901    1    3    3    0    0  0.74330789875E-01 -0.78354525749E-01  0.36924762648E-02  0.88661047389E+00  0.88000000000E+00 0. -1.
        -11    1    4    4    0    0 -0.36539152249E-01  0.43436012999E-01  0.30821503944E-02  0.56846790977E-01  0.51100000000E-03 0. -1.
         11    1    4    4    0    0 -0.62211613828E-01  0.41701097924E-01 -0.53935878177E-02  0.75090734274E-01  0.51100000000E-03 0.  1.
</event>
<event>
 8    1  0.1060404E+005  0.1043930E+01  0.7957747E-01            NaN
         13   -1    0    0    0    0  0.00000000000E+00  0.00000000000E+00  0.74505805969E-08  0.10566000000E+00  0.10566000000E+00 0.  1.
     999900   -1    0    0    0    0 -0.00000000000E+00 -0.00000000000E+00 -0.74505805969E-08  0.93827000000E+00  0.93827000000E+00 0.  1.
     999902    2    1    2    0    0 -0.13913728137E-01 -0.90802994505E-02  0.17512988505E-01  0.10197898170E+01  0.10195040571E+01 0.  0.
     999903    2    3    3    0    0 -0.87810279451E-01 -0.95887687634E-01  0.15525141803E-01  0.13243409663E+00  0.19815804446E-01 0.  0.
         14    1    1    2    0    0  0.13913728137E-01  0.90802994505E-02 -0.17512988505E-01  0.24140182997E-01  0.00000000000E+00 0. -1.
     999901    1    3    3    0    0  0.73896551315E-01  0.86807388183E-01  0.19878467021E-02  0.88735572037E+00  0.88000000000E+00 0.  1.
        -11    1    4    4    0    0 -0.37711973598E-01 -0.54917217385E-01  0.11336962093E-01  0.67578706325E-01  0.51100000000E-03 0.  1.
         11    1    4    4    0    0 -0.50098305853E-01 -0.40970470248E-01  0.41881797100E-02  0.64855390308E-01  0.51100000000E-03 0. -1.
</event>
<event>
 8    1  0.1060404E+005  0.1043930E+01  0.7957747E-01            NaN
         13   -1    0    0    0    0  0.00000000000E+00  0.00000000000E+00  0.74505805969E-08  0.10566000000E+00  0.10566000000E+00 0. -1.
     999900   -1    0    0    0    0 -0.00000000000E+00 -0.00000000000E+00 -0.74505805969E-08  0.93827000000E+00  0.93827000000E+00 0.  1.
     999902    2    1    2    0    0 -0.17341372860E-01 -0.12572943565E-01  0.10985885927E-01  0.10198573638E+01  0.10195732199E+01 0.  0.
     999903    2    3    3    0    0 -0.12221104550E+00 -0.21616289801E-02  0.47904529416E-01  0.13280097895E+00  0.20026077746E-01 0.  0.
         14    1    1    2    0    0  0.17341372860E-01  0.12572943565E-01 -0.10985885927E-01  0.24072636170E-01  0.00000000000E+00 0. -1.
     999901    1    3    3    0    0  0.10486967264E+00 -0.10411314585E-01 -0.36918643489E-01  0.88705638488E+00  0.88000000000E+00 0.  1.
        -11    1    4    4    0    0 -0.24415440952E-01 -0.48446083893E-02  0.27453450757E-02  0.25047595252E-01  0.51100000000E-03 0. -1.
         11    1    4    4    0    0 -0.97795604551E-01  0.26829794093E-02  0.45159184340E-01  0.10775338370E+00  0.51100000000E-03 0.  1.
</event>
<event>
 8    1  0.1060404E+005  0.1043930E+01  0.7957747E-01            NaN
         13   -1    0    0    0    0  0.00000000000E+00  0.00000000000E+00  0.74505805969E-08  0.10566000000E+00  0.10566000000E+00 0.  1.
     999900   -1    0    0    0    0 -0.00000000000E+00 -0.00000000000E+00 -0.74505805969E-08  0.93827000000E+00  0.93827000000E+00 0.  1.
     999902    2    1    2    0    0 -0.44660418689E-02  0.21708926475E-01 -0.76595509389E-02  0.10204802294E+01  0.10202107659E+01 0.  0.
     999903    2    3    3    0    0 -0.40197011398E-01 -0.70665135486E-01  0.97667590666E-01  0.12868233963E+00  0.20268822572E-01 0.  0.
         14    1    1    2    0    0  0.44660418689E-02 -0.21708926475E-01  0.76595509389E-02  0.23449770559E-01  0.00000000000E+00 0.  1.
     999901    1    3    3    0    0  0.35730969529E-01  0.92374061961E-01 -0.10532714161E+00  0.89179788981E+00  0.88000000000E+00 0.  1.
        -11    1    4    4    0    0 -0.53949930519E-02 -0.88540292450E-02  0.25294299424E-01  0.27341588985E-01  0.51100000000E-03 0. -1.
         11    1    4    4    0    0 -0.34802018346E-01 -0.61811106241E-01  0.72373291243E-01  0.10134075065E+00  0.51100000000E-03 0.  1.
</event>
<event>
 8    1  0.1060404E+005  0.1043930E+01  0.7957747E-01            NaN
         13   -1    0    0    0    0  0.00000000000E+00  0.00000000000E+00  0.74505805969E-08  0.10566000000E+00  0.10566000000E+00 0. -1.
     999900   -1    0    0    0    0 -0.00000000000E+00 -0.00000000000E+00 -0.74505805969E-08  0.93827000000E+00  0.93827000000E+00 0. -1.
     999902    2    1    2    0    0 -0.14944111165E-01  0.58909256315E-02  0.19852344932E-01  0.10183928689E+01  0.10180726352E+01 0.  0.
     999903    2    3    3    0    0  0.12429292753E+00 -0.16358456645E-01  0.24542194039E-03  0.12695222628E+00  0.20011911203E-01 0.  0.
         14    1    1    2    0    0  0.14944111165E-01 -0.58909256315E-02 -0.19852344932E-01  0.25537131056E-01  0.00000000000E+00 0.  1.
     999901    1    3    3    0    0 -0.13923703869E+00  0.22249382276E-01  0.19606922991E-01  0.89144064266E+00  0.88000000000E+00 0.  1.
        -11    1    4    4    0    0  0.11198880956E+00 -0.12070572757E-01 -0.53431221277E-02  0.11276525293E+00  0.51100000000E-03 0. -1.
         11    1    4    4    0    0  0.12304117963E-01 -0.42878838875E-02  0.55885440681E-02  0.14186973351E-01  0.51100000000E-03 0.  1.
</event>
<event>
 8    1  0.1060404E+005  0.1043930E+01  0.7957747E-01            NaN
         13   -1    0    0    0    0  0.00000000000E+00  0.00000000000E+00  0.74505805969E-08  0.10566000000E+00  0.10566000000E+00 0. -1.
     999900   -1    0    0    0    0 -0.00000000000E+00 -0.00000000000E+00 -0.74505805969E-08  0.93827000000E+00  0.93827000000E+00 0.  1.
     999902    2    1    2    0    0  0.22572424841E-01 -0.65341989221E-02  0.11092868090E-02  0.10204046810E+01  0.10201334581E+01 0.  0.
     999903    2    3    3    0    0  0.85695263722E-01 -0.86440341544E-01 -0.49350359873E-01  0.13309658319E+00  0.21532105505E-01 0.  0.
         14    1    1    2    0    0 -0.22572424841E-01  0.65341989221E-02 -0.11092868090E-02  0.23525319041E-01  0.00000000000E+00 0. -1.
     999901    1    3    3    0    0 -0.63122838881E-01  0.79906142622E-01  0.50459646682E-01  0.88730809777E+00  0.88000000000E+00 0.  1.
        -11    1    4    4    0    0  0.21219852913E-01 -0.18372454675E-01 -0.22236664085E-02  0.28160878213E-01  0.51100000000E-03 0. -1.
         11    1    4    4    0    0  0.64475410809E-01 -0.68067886870E-01 -0.47126693464E-01  0.10493570498E+00  0.51100000000E-03 0.  1.
</event>
<event>
 8    1  0.1060404E+005  0.1043930E+01  0.7957747E-01            NaN
         13   -1    0    0    0    0  0.00000000000E+00  0.00000000000E+00  0.74505805969E-08  0.10566000000E+00  0.10566000000E+00 0.  1.
     999900   -1    0    0    0    0 -0.00000000000E+00 -0.00000000000E+00 -0.74505805969E-08  0.93827000000E+00  0.93827000000E+00 0. -1.
     999902    2    1    2    0    0 -0.20171677643E-02  0.26335388592E-01  0.74861914554E-02  0.10164770453E+01  0.10161062538E+01 0.  0.
     999903    2    3    3    0    0  0.58267385760E-01 -0.47816826435E-01 -0.97714630197E-01  0.12507366230E+00  0.20340474747E-01 0.  0.
         14    1    1    2    0    0  0.20171677643E-02 -0.26335388592E-01 -0.74861914554E-02  0.27452954679E-01  0.00000000000E+00 0. -1.
     999901    1    3    3    0    0 -0.60284553524E-01  0.74152215027E-01  0.10520082165E+00  0.89140338302E+00  0.88000000000E+00 0.  1.
        -11    1    4    4    0    0  0.13337270835E-01 -0.12472778461E-01 -0.11364274719E-01  0.21514201281E-01  0.51100000000E-03 0.  1.
         11    1    4    4    0    0  0.44930114925E-01 -0.35344047974E-01 -0.86350355477E-01  0.10355946102E+00  0.51100000000E-03 0. -1.
</event>
<event>
 8    1  0.1060404E+005  0.1043930E+01  0.7957747E-01            NaN
         13   -1    0    0    0    0  0.00000000000E+00  0.00000000000E+00  0.74505805969E-08  0.10566000000E+00  0.10566000000E+00 0.  1.
     999900   -1    0    0    0    0 -0.00000000000E+00 -0.00000000000E+00 -0.74505805969E-08  0.93827000000E+00  0.93827000000E+00 0. -1.
     999902    2    1    2    0    0 -0.20188443950E-01  0.11346236475E-02  0.12617289419E-01  0.10200960613E+01  0.10198175904E+01 0.  0.
     999903    2    3    3    0    0  0.12636241059E+00  0.12542521165E-02 -0.77662615029E-02  0.12774374503E+00  0.17003458999E-01 0.  0.
         14    1    1    2    0    0  0.20188443950E-01 -0.11346236475E-02 -0.12617289419E-01  0.23833938663E-01  0.00000000000E+00 0. -1.
     999901    1    3    3    0    0 -0.14655085454E+00 -0.11962846900E-03  0.20383550921E-01  0.89235231631E+00  0.88000000000E+00 0. -1.
        -11    1    4    4    0    0  0.49994874575E-01  0.75100613848E-02 -0.75458545098E-02  0.51118387563E-01  0.51100000000E-03 0. -1.
         11    1    4    4    0    0  0.76367536012E-01 -0.62558092683E-02 -0.22040699310E-03  0.76625357463E-01  0.51100000000E-03 0.  1.
</event>
<event>
 8    1  0.1060404E+005  0.1043930E+01  0.7957747E-01            NaN
         13   -1    0    0    0    0  0.00000000000E+00  0.00000000000E+00  0.74505805969E-08  0.10566000000E+00  0.10566000000E+00 0. -1.
     999900   -1    0    0    0    0 -0.00000000000E+00 -0.00000000000E+00 -0.74505805969E-08  0.93827000000E+00  0.93827000000E+00 0.  1.
     999902    2    1    2    0    0 -0.16905994384E-01 -0.11908923619E-01 -0.11951675908E-01  0.10200453257E+01  0.10197656539E+01 0.  0.
     999903    2    3    3    0    0 -0.75572182137E-01 -0.10653119349E+00  0.11005311074E-01  0.13273358863E+00  0.20905472482E-01 0.  0.
         14    1    1    2    0    0  0.16905994384E-01  0.11908923619E-01  0.11951675908E-01  0.23884674268E-01  0.00000000000E+00 0.  1.
     999901    1    3    3    0    0  0.58666187754E-01  0.94622269874E-01 -0.22956986982E-01  0.88731173710E+00  0.88000000000E+00 0.  1.
        -11    1    4    4    0    0 -0.39256224862E-01 -0.71344504014E-01  0.10939816797E-01  0.82164652716E-01  0.51100000000E-03 0.  1.
         11    1    4    4    0    0 -0.36315957276E-01 -0.35186689479E-01  0.65494276806E-04  0.50568935918E-01  0.51100000000E-03 0. -1.
</event>
<event>
 8    1  0.1060404E+005  0.1043930E+01  0.7957747E-01            NaN
         13   -1    0    0    0    0  0.00000000000E+00  0.00000000000E+00  0.74505805969E-08  0.10566000000E+00  0.10566000000E+00 0.  1.
     999900   -1    0    0    0    0 -0.00000000000E+00 -0.00000000000E+00 -0.74505805969E-08  0.93827000000E+00  0.93827000000E+00 0. -1.
     999902    2    1    2    0    0  0.76583860599E-02 -0.20271591054E-01 -0.11310993137E-01  0.10194856377E+01  0.10191925425E+01 0.  0.
     999903    2    3    3    0    0  0.47362931064E-01 -0.11966650392E+00 -0.26013026319E-01  0.13287865074E+00  0.20414183461E-01 0.  0.
         14    1    1    2    0    0 -0.76583860599E-02  0.20271591054E-01  0.11310993137E-01  0.24444362267E-01  0.00000000000E+00 0. -1.
     999901    1    3    3    0    0 -0.39704545004E-01  0.99394912864E-01  0.14702033182E-01  0.88660698699E+00  0.88000000000E+00 0. -1.
        -11    1    4    4    0    0  0.48828484692E-01 -0.10791665357E+00 -0.23990145158E-01  0.12085534006E+00  0.51100000000E-03 0. -1.
         11    1    4    4    0    0 -0.14655536287E-02 -0.11749850346E-01 -0.20228811612E-02  0.12023310683E-01  0.51100000000E-03 0.  1.
</event>
<event>
 8    1  0.1060404E+005  0.1043930E+01  0.7957747E-01            NaN
         13   -1    0    0    0    0  0.00000000000E+00  0.00000000000E+00  0.74505805969E-08  0.10566000000E+00  0.10566000000E+00 0. -1.
     999900   -1    0    0    0    0 -0.00000000000E+00 -0.00000000000E+00 -0.74505805969E-08  0.93827000000E+00  0.93827000000E+00 0.  1.
     999902    2    1    2    0    0  0.18624262197E-01  0.60823161381E-02 -0.11286661123E-01  0.10213192408E+01  0.10210689229E+01 0.  0.
     999903    2    3    3    0    0  0.75365868494E-01 -0.70110270552E-01  0.79556324621E-01  0.13155670608E+00  0.19557452683E-01 0.  0.
         14    1    1    2    0    0 -0.18624262197E-01 -0.60823161381E-02  0.11286661123E-01  0.22610759194E-01  0.00000000000E+00 0. -1.
     999901    1    3    3    0    0 -0.56741606297E-01  0.76192586690E-01 -0.90842985745E-01  0.88976253473E+00  0.88000000000E+00 0. -1.
        -11    1    4    4    0    0  0.68107758187E-01 -0.64693841213E-01  0.78510239418E-01  0.12242580868E+00  0.51100000000E-03 0.  1.
         11    1    4    4    0    0  0.72581103077E-02 -0.54164293384E-02  0.10460852029E-02  0.91308973967E-02  0.51100000000E-03 0. -1.
</event>
<event>
 8    1  0.1060404E+005  0.1043930E+01  0.7957747E-01            NaN
         13   -1    0    0    0    0  0.00000000000E+00  0.00000000000E+00  0.74505805969E-08  0.10566000000E+00  0.10566000000E+00 0. -1.
     999900   -1    0    0    0    0 -0.00000000000E+00 -0.00000000000E+00 -0.74505805969E-08  0.93827000000E+00  0.93827000000E+00 0.  1.
     999902    2    1    2    0    0 -0.17316746990E-01 -0.99935183859E-02 -0.12870680316E-01  0.10201519734E+01  0.10198748229E+01 0.  0.
     999903    2    3    3    0    0 -0.42939888322E-01  0.12026968397E+00  0.11880904995E-01  0.12984995263E+00  0.20278643992E-01 0.  0.
         14    1    1    2    0    0  0.17316746990E-01  0.99935183859E-02  0.12870680316E-01  0.23778026576E-01  0.00000000000E+00 0. -1.
     999901    1    3    3    0    0  0.25623141332E-01 -0.13026320236E+00 -0.24751585311E-01  0.89030202080E+00  0.88000000000E+00 0.  1.
        -11    1    4    4    0    0 -0.29306120511E-01  0.91379081806E-01  0.17099894892E-01  0.97476421854E-01  0.51100000000E-03 0. -1.
         11    1    4    4    0    0 -0.13633767810E-01  0.28890602165E-01 -0.52189898969E-02  0.32373530773E-01  0.51100000000E-03 0.  1.
</event>
<event>
 8    1  0.1060404E+005  0.1043930E+01  0.7957747E-01            NaN
         13   -1    0    0    0    0  0.00000000000E+00  0.00000000000E+00  0.74505805969E-08  0.10566000000E+00  0.10566000000E+00 0. -1.
     999900   -1    0    0    0    0 -0.00000000000E+00 -0.00000000000E+00 -0.74505805969E-08  0.93827000000E+00  0.93827000000E+00 0.  1.
     999902    2    1    2    0    0 -0.87046494290E-02  0.12793774936E-01 -0.17841373370E-01  0.10203129256E+01  0.10200395580E+01 0.  0.
     999903    2    3    3    0    0 -0.82311018187E-01  0.28075005414E-01 -0.99156490231E-01  0.13337236292E+00  0.19820897848E-01 0.  0.
         14    1    1    2    0    0  0.87046494290E-02 -0.12793774936E-01  0.17841373370E-01  0.23617074385E-01  0.00000000000E+00 0.  1.
     999901    1    3    3    0    0  0.73606368758E-01 -0.15281230478E-01  0.81315116861E-01  0.88694056270E+00  0.88000000000E+00 0. -1.
        -11    1    4    4    0    0 -0.51007685712E-01  0.26684100629E-01 -0.58966234802E-01  0.82408150057E-01  0.51100000000E-03 0. -1.
         11    1    4    4    0    0 -0.31303332475E-01  0.13909047855E-02 -0.40190255428E-01  0.50964212861E-01  0.51100000000E-03 0.  1.
</event>
<event>
 8    1  0.1060404E+005  0.1043930E+01  0.7957747E-01            NaN
         13   -1    0    0    0    0  0.00000000000E+00  0.00000000000E+00  0.74505805969E-08  0.10566000000E+00  0.10566000000E+00 0. -1.
     999900   -1    0    0    0    0 -0.00000000000E+00 -0.00000000000E+00 -0.74505805969E-08  0.93827000000E+00  0.93827000000E+00 0.  1.
     999902    2    1    2    0    0 -0.17527085226E-01 -0.14065078597E-01  0.57589185066E-02  0.10207310713E+01  0.10204674074E+01 0.  0.
     999903    2    3    3    0    0  0.12808915612E-01 -0.33676383963E-01 -0.12404541808E+00  0.13047602800E+00  0.18400026630E-01 0.  0.
         14    1    1    2    0    0  0.17527085226E-01  0.14065078597E-01 -0.57589185066E-02  0.23198928743E-01  0.00000000000E+00 0.  1.
     999901    1    3    3    0    0 -0.30336000839E-01  0.19611305366E-01  0.12980433659E+00  0.89025504326E+00  0.88000000000E+00 0. -1.
        -11    1    4    4    0    0  0.14657880864E-01 -0.27442790804E-01 -0.78106379900E-01  0.84076322116E-01  0.51100000000E-03 0. -1.
         11    1    4    4    0    0 -0.18489652514E-02 -0.62335931596E-02 -0.45939038182E-01  0.46399705885E-01  0.51100000000E-03 0.  1.
</event>
<event>
 8    1  0.1060404E+005  0.1043930E+01  0.7957747E-01            NaN
         13   -1    0    0    0    0  0.00000000000E+00  0.00000000000E+00  0.74505805969E-08  0.10566000000E+00  0.10566000000E+00 0. -1.
     999900   -1    0    0    0    0 -0.00000000000E+00 -0.00000000000E+00 -0.74505805969E-08  0.93827000000E+00  0.93827000000E+00 0.  1.
     999902    2    1    2    0    0 -0.94748431492E-02  0.20928488494E-01 -0.38865263903E-03  0.10209533742E+01  0.10206947962E+01 0.  0.
     999903    2    3    3    0    0 -0.61531381926E-01  0.12129874855E-01  0.11433090717E+00  0.13193825831E+00  0.20072439990E-01 0.  0.
         14    1    1    2    0    0  0.94748431492E-02 -0.20928488494E-01  0.38865263903E-03  0.22976625823E-01  0.00000000000E+00 0. -1.
     999901    1    3    3    0    0  0.52056538777E-01  0.87986136385E-02 -0.11471955981E+00  0.88901511586E+00  0.88000000000E+00 0.  1.
        -11    1    4    4    0    0 -0.11283597610E-01  0.75239236585E-02  0.13276980425E-01  0.18986003593E-01  0.51100000000E-03 0. -1.
         11    1    4    4    0    0 -0.50247784316E-01  0.46059511969E-02  0.10105392674E+00  0.11295225472E+00  0.51100000000E-03 0.  1.
</event>
<event>
 8    1  0.1060404E+005  0.1043930E+01  0.7957747E-01            NaN
         13   -1    0    0    0    0  0.00000000000E+00  0.00000000000E+00  0.74505805969E-08  0.10566000000E+00  0.10566000000E+00 0.  1.
     999900   -1    0    0    0    0 -0.00000000000E+00 -0.00000000000E+00 -0.74505805969E-08  0.93827000000E+00  0.93827000000E+00 0.  1.
     999902    2    1    2    0    0  0.32951651732E-02  0.22151188294E-01 -0.19844944231E-01  0.10140075157E+01  0.10135659262E+01 0.  0.
     999903    2    3    3    0    0 -0.34610237149E-01  0.91759976506E-01 -0.80294390016E-01  0.12837986344E+00  0.20406823963E-01 0.  0.
         14    1    1    2    0    0 -0.32951651732E-02 -0.22151188294E-01  0.19844944231E-01  0.29922484320E-01  0.00000000000E+00 0.  1.
     999901    1    3    3    0    0  0.37905402322E-01 -0.69608788212E-01  0.60449445785E-01  0.88562765224E+00  0.88000000000E+00 0.  1.
        -11    1    4    4    0    0 -0.18521064112E-01  0.56282647726E-01 -0.60491244456E-01  0.84677139935E-01  0.51100000000E-03 0. -1.
         11    1    4    4    0    0 -0.16089173037E-01  0.35477328780E-01 -0.19803145560E-01  0.43702723502E-01  0.51100000000E-03 0.  1.
</event>
<event>
 8    1  0.1060404E+005  0.1043930E+01  0.7957747E-01            NaN
         13   -1    0    0    0    0  0.00000000000E+00  0.00000000000E+00  0.74505805969E-08  0.10566000000E+00  0.10566000000E+00 0. -1.
     999900   -1    0    0    0    0 -0.00000000000E+00 -0.00000000000E+00 -0.74505805969E-08  0.93827000000E+00  0.93827000000E+00 0. -1.
     999902    2    1    2    0    0  0.12272979820E-01  0.70843693336E-03  0.20279726614E-01  0.10202151264E+01  0.10199394634E+01 0.  0.
     999903    2    3    3    0    0 -0.67723479302E-01 -0.10542826060E+00  0.29394682184E-01  0.13018843333E+00  0.19580425164E-01 0.  0.
         14    1    1    2    0    0 -0.12272979820E-01 -0.70843693336E-03 -0.20279726614E-01  0.23714873563E-01  0.00000000000E+00 0.  1.
     999901    1    3    3    0    0  0.79996459123E-01  0.10613669753E+00 -0.91149555703E-02  0.89002669311E+00  0.88000000000E+00 0.  1.
        -11    1    4    4    0    0 -0.16438712852E-02  0.20408704920E-03 -0.90855110356E-03  0.19571792033E-02  0.51100000000E-03 0. -1.
         11    1    4    4    0    0 -0.66079608017E-01 -0.10563234765E+00  0.30303233288E-01  0.12823125412E+00  0.51100000000E-03 0.  1.
</event>
<event>
 8    1  0.1060404E+005  0.1043930E+01  0.7957747E-01            NaN
         13   -1    0    0    0    0  0.00000000000E+00  0.00000000000E+00  0.74505805969E-08  0.10566000000E+00  0.10566000000E+00 0. -1.
     999900   -1    0    0    0    0 -0.00000000000E+00 -0.00000000000E+00 -0.74505805969E-08  0.93827000000E+00  0.93827000000E+00 0. -1.
     999902    2    1    2    0    0  0.14139308626E-01  0.16180194231E-01 -0.83975814073E-02  0.10208597138E+01  0.10205989992E+01 0.  0.
     999903    2    3    3    0    0 -0.10471657975E+00 -0.64183421924E-01 -0.32990126885E-01  0.12890129191E+00  0.21026670223E-01 0.  0.
         14    1    1    2    0    0 -0.14139308626E-01 -0.16180194231E-01  0.83975814073E-02  0.23070286242E-01  0.00000000000E+00 0. -1.
     999901    1    3    3    0    0  0.11885588838E+00  0.80363616155E-01  0.24592545478E-01  0.89195842184E+00  0.88000000000E+00 0. -1.
        -11    1    4    4    0    0 -0.17810395788E-01 -0.21070024586E-01 -0.74413515746E-02  0.28579555078E-01  0.51100000000E-03 0. -1.
         11    1    4    4    0    0 -0.86906183964E-01 -0.43113397338E-01 -0.25548775310E-01  0.10032173684E+00  0.51100000000E-03 0.  1.
</event>
<event>
 8    1  0.1060404E+005  0.1043930E+01  0.7957747E-01            NaN
         13   -1    0    0    0    0  0.00000000000E+00  0.00000000000E+00  0.74505805969E-08  0.10566000000E+00  0.10566000000E+00 0.  1.
     999900   -1    0    0    0    0 -0.00000000000E+00 -0.00000000000E+00 -0.74505805969E-08  0.93827000000E+00  0.93827000000E+00 0. -1.
     999902    2    1    2    0    0 -0.36747936928E-02 -0.14424337495E-01  0.18353744114E-01  0.10202989707E+01  0.10200252762E+01 0.  0.
     999903    2    3    3    0    0 -0.10029190174E+00  0.77926286196E-01  0.20197148936E-01  0.13020521085E+00  0.20359284641E-01 0.  0.
         14    1    1    2    0    0  0.36747936928E-02  0.14424337495E-01 -0.18353744114E-01  0.23631029259E-01  0.00000000000E+00 0. -1.
     999901    1    3    3    0    0  0.96617108048E-01 -0.92350623691E-01 -0.18434048229E-02  0.89009375990E+00  0.88000000000E+00 0.  1.
        -11    1    4    4    0    0 -0.39861742084E-01  0.19362326688E-01  0.39138660155E-02  0.44490871479E-01  0.51100000000E-03 0.  1.
         11    1    4    4    0    0 -0.60430159657E-01  0.58563959508E-01  0.16283282921E-01  0.85714339367E-01  0.51100000000E-03 0. -1.
</event>
<event>
 8    1  0.1060404E+005  0.1043930E+01  0.7957747E-01            NaN
         13   -1    0    0    0    0  0.00000000000E+00  0.00000000000E+00  0.74505805969E-08  0.10566000000E+00  0.10566000000E+00 0. -1.
     999900   -1    0    0    0    0 -0.00000000000E+00 -0.00000000000E+00 -0.74505805969E-08  0.93827000000E+00  0.93827000000E+00 0.  1.
     999902    2    1    2    0    0 -0.36610748222E-02 -0.24186476515E-01 -0.89164503990E-02  0.10178936369E+01  0.10175605947E+01 0.  0.
     999903    2    3    3    0    0 -0.11319282689E+00 -0.40933708270E-01 -0.44256594624E-01  0.13024133997E+00  0.22715103731E-01 0.  0.
         14    1    1    2    0    0  0.36610748222E-02  0.24186476515E-01  0.89164503990E-02  0.26036363086E-01  0.00000000000E+00 0. -1.
     999901    1    3    3    0    0  0.10953175206E+00  0.16747231755E-01  0.35340144225E-01  0.88765229695E+00  0.88000000000E+00 0.  1.
        -11    1    4    4    0    0 -0.98760209833E-01 -0.28349658577E-01 -0.32505566757E-01  0.10776898988E+00  0.51100000000E-03 0. -1.
         11    1    4    4    0    0 -0.14432617052E-01 -0.12584049693E-01 -0.11751027867E-01  0.22472350091E-01  0.51100000000E-03 0.  1.
</event>
<event>
 8    1  0.1060404E+005  0.1043930E+01  0.7957747E-01            NaN
         13   -1    0    0    0    0  0.00000000000E+00  0.00000000000E+00  0.74505805969E-08  0.10566000000E+00  0.10566000000E+00 0.  1.
     999900   -1    0    0    0    0 -0.00000000000E+00 -0.00000000000E+00 -0.74505805969E-08  0.93827000000E+00  0.93827000000E+00 0.  1.
     999902    2    1    2    0    0  0.15711432812E-01 -0.75577734800E-02  0.16404422650E-01  0.10199910329E+01  0.10197100731E+01 0.  0.
     999903    2    3    3    0    0  0.16688646881E-01 -0.12850710082E+00 -0.83602147078E-02  0.13137245223E+00  0.19905831327E-01 0.  0.
         14    1    1    2    0    0 -0.15711432812E-01  0.75577734800E-02 -0.16404422650E-01  0.23938967051E-01  0.00000000000E+00 0. -1.
     999901    1    3    3    0    0 -0.97721406875E-03  0.12094932734E+00  0.24764637358E-01  0.88861858072E+00  0.88000000000E+00 0.  1.
        -11    1    4    4    0    0  0.17335196298E-01 -0.77985234381E-01 -0.11657539737E-01  0.80736393070E-01  0.51100000000E-03 0. -1.
         11    1    4    4    0    0 -0.64654941701E-03 -0.50521866435E-01  0.32973250294E-02  0.50636059163E-01  0.51100000000E-03 0.  1.
</event>
<event>
 8    1  0.1060404E+005  0.1043930E+01  0.7957747E-01            NaN
         13   -1    0    0    0    0  0.00000000000E+00  0.00000000000E+00  0.74505805969E-08  0.10566000000E+00  0.10566000000E+00 0.  1.
     999900   -1    0    0    0    0 -0.00000000000E+00 -0.00000000000E+00 -0.74505805969E-08  0.93827000000E+00  0.93827000000E+00 0. -1.
     999902    2    1    2    0    0  0.14687822616E-01  0.17564827284E-01  0.65222103370E-02  0.10201225533E+01  0.10198447084E+01 0.  0.
     999903    2    3    3    0    0 -0.11697529375E+00 -0.44917272114E-01 -0.12756514534E-01  0.12792814725E+00  0.22407621775E-01 0.  0.
         14    1    1    2    0    0 -0.14687822616E-01 -0.17564827284E-01 -0.65222103370E-02  0.23807446700E-01  0.00000000000E+00 0.  1.
     999901    1    3    3    0    0  0.13166311636E+00  0.62482099398E-01  0.19278724871E-01  0.89219440605E+00  0.88000000000E+00 0.  1.
        -11    1    4    4    0    0 -0.57116268921E-01 -0.10756008388E-01 -0.18837204258E-02  0.58152982860E-01  0.51100000000E-03 0.  1.
         11    1    4    4    0    0 -0.59859024828E-01 -0.34161263726E-01 -0.10872794108E-01  0.69775164388E-01  0.51100000000E-03 0. -1.
</event>
<event>
 8    1  0.1060404E+005  0.1043930E+01  0.7957747E-01            NaN
         13   -1    0    0    0    0  0.00000000000E+00  0.00000000000E+00  0.74505805969E-08  0.10566000000E+00  0.10566000000E+00 0. -1.
     999900   -1    0    0    0    0 -0.00000000000E+00 -0.00000000000E+00 -0.74505805969E-08  0.93827000000E+00  0.93827000000E+00 0. -1.
     999902    2    1    2    0    0 -0.80627469129E-02 -0.72994134912E-02  0.21328792544E-01  0.10199882641E+01  0.10197072385E+01 0.  0.
     999903    2    3    3    0    0  0.35887648869E-01  0.29892160051E-01 -0.11713251867E+00  0.12730333363E+00  0.17454147090E-01 0.  0.
         14    1    1    2    0    0  0.80627469129E-02  0.72994134912E-02 -0.21328792544E-01  0.23941735870E-01  0.00000000000E+00 0.  1.
     999901    1    3    3    0    0 -0.43950395782E-01 -0.37191573542E-01  0.13846131121E+00  0.89268493050E+00  0.88000000000E+00 0.  1.
        -11    1    4    4    0    0  0.23379879416E-01  0.28267550043E-01 -0.94782325822E-01  0.10163475565E+00  0.51100000000E-03 0. -1.
         11    1    4    4    0    0  0.12507769453E-01  0.16246100078E-02 -0.22350192847E-01  0.25668577983E-01  0.51100000000E-03 0.  1.
</event>
<event>
 8    1  0.1060404E+005  0.1043930E+01  0.7957747E-01            NaN
         13   -1    0    0    0    0  0.00000000000E+00  0.00000000000E+00  0.74505805969E-08  0.10566000000E+00  0.10566000000E+00 0.  1.
     999900   -1    0    0    0    0 -0.00000000000E+00 -0.00000000000E+00 -0.74505805969E-08  0.93827000000E+00  0.93827000000E+00 0. -1.
     999902    2    1    2    0    0 -0.16495483308E-01  0.15588530685E-01 -0.61866408491E-02  0.10204060168E+01  0.10201348251E+01 0.  0.
     999903    2    3    3    0    0  0.31512566566E-01  0.51746110522E-01 -0.11560559017E+00  0.13159521026E+00  0.16791220288E-01 0.  0.
         14    1    1    2    0    0  0.16495483308E-01 -0.15588530685E-01  0.61866408491E-02  0.23523983155E-01  0.00000000000E+00 0. -1.
     999901    1    3    3    0    0 -0.48008049874E-01 -0.36157579836E-01  0.10941894932E+00  0.88881080659E+00  0.88000000000E+00 0.  1.
        -11    1    4    4    0    0  0.26471598003E-01  0.32388745728E-01 -0.88648390309E-01  0.98023336895E-01  0.51100000000E-03 0.  1.
         11    1    4    4    0    0  0.50409685635E-02  0.19357364793E-01 -0.26957199862E-01  0.33571873365E-01  0.51100000000E-03 0. -1.
</event>
<event>
 8    1  0.1060404E+005  0.1043930E+01  0.7957747E-01            NaN
         13   -1    0    0    0    0  0.00000000000E+00  0.00000000000E+00  0.74505805969E-08  0.10566000000E+00  0.10566000000E+00 0. -1.
     999900   -1    0    0    0    0 -0.00000000000E+00 -0.00000000000E+00 -0.74505805969E-08  0.93827000000E+00  0.93827000000E+00 0. -1.
     999902    2    1    2    0    0  0.16376115787E-01 -0.86114767427E-02  0.14401612301E-01  0.10204834408E+01  0.10202140520E+01 0.  0.
     999903    2    3    3    0    0  0.30852742526E-02 -0.92962926733E-01  0.92747831189E-01  0.13288559068E+00  0.20119526722E-01 0.  0.
         14    1    1    2    0    0 -0.16376115787E-01  0.86114767427E-02 -0.14401612301E-01  0.23446559168E-01  0.00000000000E+00 0.  1.
     999901    1    3    3    0    0  0.13290841535E-01  0.84351449990E-01 -0.78346218888E-01  0.88759785015E+00  0.88000000000E+00 0. -1.
        -11    1    4    4    0    0  0.10911383309E-01 -0.56890825132E-01  0.61893023529E-01  0.84774003990E-01  0.51100000000E-03 0. -1.
         11    1    4    4    0    0 -0.78261090566E-02 -0.36072101601E-01  0.30854807660E-01  0.48111586688E-01  0.51100000000E-03 0.  1.
</event>
<event>
 8    1  0.1060404E+005  0.1043930E+01  0.7957747E-01            NaN
         13   -1    0    0    0    0  0.00000000000E+00  0.00000000000E+00  0.74505805969E-08  0.10566000000E+00  0.10566000000E+00 0.  1.
     999900   -1    0    0    0    0 -0.00000000000E+00 -0.00000000000E+00 -0.74505805969E-08  0.93827000000E+00  0.93827000000E+00 0.  1.
     999902    2    1    2    0    0  0.21257816283E-01  0.61580741660E-02 -0.83112629747E-02  0.10202890668E+01  0.10200151401E+01 0.  0.
     999903    2    3    3    0    0  0.52960187855E-01 -0.99532915917E-01 -0.64772118626E-01  0.13160270257E+00  0.20304214404E-01 0.  0.
         14    1    1    2    0    0 -0.21257816283E-01 -0.61580741660E-02  0.83112629747E-02  0.23640933205E-01  0.00000000000E+00 0. -1.
     999901    1    3    3    0    0 -0.31702371572E-01  0.10569099008E+00  0.56460855651E-01  0.88868636423E+00  0.88000000000E+00 0. -1.
        -11    1    4    4    0    0  0.18824362421E-01 -0.56127618295E-01 -0.36693425061E-01  0.69651523456E-01  0.51100000000E-03 0.  1.
         11    1    4    4    0    0  0.34135825433E-01 -0.43405297621E-01 -0.28078693565E-01  0.61951179109E-01  0.51100000000E-03 0. -1.
</event>
<event>
 8    1  0.1060404E+005  0.1043930E+01  0.7957747E-01            NaN
         13   -1    0    0    0    0  0.00000000000E+00  0.00000000000E+00  0.74505805969E-08  0.10566000000E+00  0.10566000000E+00 0. -1.
     999900   -1    0    0    0    0 -0.00000000000E+00 -0.00000000000E+00 -0.74505805969E-08  0.93827000000E+00  0.93827000000E+00 0. -1.
     999902    2    1    2    0    0 -0.61564126113E-02 -0.10590565119E-01 -0.21736944350E-01  0.10189789232E+01  0.10186733969E+01 0.  0.
     999903    2    3    3    0    0 -0.12730554492E+00 -0.13299263987E-01 -0.16916862994E-01  0.13066159107E+00  0.20067360002E-01 0.  0.
         14    1    1    2    0    0  0.61564126113E-02  0.10590565119E-01  0.21736944350E-01  0.24951076840E-01  0.00000000000E+00 0. -1.
     999901    1    3    3    0    0  0.12114913231E+00  0.27086988677E-02 -0.48200813570E-02  0.88831733209E+00  0.88000000000E+00 0.  1.
        -11    1    4    4    0    0 -0.89214548436E-01 -0.66301057716E-02 -0.20630246934E-01  0.91809924108E-01  0.51100000000E-03 0.  1.
         11    1    4    4    0    0 -0.38090996483E-01 -0.66691582151E-02  0.37133839402E-02  0.38851666961E-01  0.51100000000E-03 0. -1.
</event>
<event>
 8    1  0.1060404E+005  0.1043930E+01  0.7957747E-01            NaN
         13   -1    0    0    0    0  0.00000000000E+00  0.00000000000E+00  0.74505805969E-08  0.10566000000E+00  0.10566000000E+00 0. -1.
     999900   -1    0    0    0    0 -0.00000000000E+00 -0.00000000000E+00 -0.74505805969E-08  0.93827000000E+00  0.93827000000E+00 0. -1.
     999902    2    1    2    0    0 -0.18612450358E-01 -0.11589073052E-01  0.62770844675E-02  0.10211236037E+01  0.10208688860E+01 0.  0.
     999903    2    3    3    0    0 -0.96167204891E-01 -0.65736106560E-01 -0.61924433064E-01  0.13343103970E+00  0.19995998201E-01 0.  0.
         14    1    1    2    0    0  0.18612450358E-01  0.11589073052E-01 -0.62770844675E-02  0.22806396295E-01  0.00000000000E+00 0.  1.
     999901    1    3    3    0    0  0.77554754533E-01  0.54147033508E-01  0.68201517531E-01  0.88769256400E+00  0.88000000000E+00 0.  1.
        -11    1    4    4    0    0 -0.29906158997E-01 -0.32044164939E-01 -0.24165250821E-01  0.50054243785E-01  0.51100000000E-03 0.  1.
         11    1    4    4    0    0 -0.66261045895E-01 -0.33691941621E-01 -0.37759182243E-01  0.83376795920E-01  0.51100000000E-03 0. -1.
</event>
<event>
 8    1  0.1060404E+005  0.1043930E+01  0.7957747E-01            NaN
         13   -1    0    0    0    0  0.00000000000E+00  0.00000000000E+00  0.74505805969E-08  0.10566000000E+00  0.10566000000E+00 0. -1.
     999900   -1    0    0    0    0 -0.00000000000E+00 -0.00000000000E+00 -0.74505805969E-08  0.93827000000E+00  0.93827000000E+00 0.  1.
     999902    2    1    2    0    0 -0.17172672738E-01 -0.15212906042E-01  0.43180037449E-02  0.10205852285E+01  0.10203182005E+01 0.  0.
     999903    2    3    3    0    0 -0.13094163838E+00 -0.12627586192E-01 -0.82904837612E-02  0.13316817021E+00  0.18969998423E-01 0.  0.
         14    1    1    2    0    0  0.17172672738E-01  0.15212906042E-01 -0.43180037449E-02  0.23344771482E-01  0.00000000000E+00 0.  1.
     999901    1    3    3    0    0  0.11376896564E+00 -0.25853198502E-02  0.12608487506E-01  0.88741705831E+00  0.88000000000E+00 0. -1.
        -11    1    4    4    0    0 -0.98462493725E-01 -0.14349749601E-01 -0.12816671304E-01  0.10032599946E+00  0.51100000000E-03 0.  1.
         11    1    4    4    0    0 -0.32479144658E-01  0.17221634094E-02  0.45261875425E-02  0.32842170744E-01  0.51100000000E-03 0. -1.
</event>
<event>
 8    1  0.1060404E+005  0.1043930E+01  0.7957747E-01            NaN
         13   -1    0    0    0    0  0.00000000000E+00  0.00000000000E+00  0.74505805969E-08  0.10566000000E+00  0.10566000000E+00 0. -1.
     999900   -1    0    0    0    0 -0.00000000000E+00 -0.00000000000E+00 -0.74505805969E-08  0.93827000000E+00  0.93827000000E+00 0.  1.
     999902    2    1    2    0    0  0.17516600827E-01 -0.51755370555E-04  0.14537473972E-01  0.10211666054E+01  0.10209128581E+01 0.  0.
     999903    2    3    3    0    0  0.10484409071E-01 -0.38171324359E-01  0.12570857181E+00  0.13332564768E+00  0.20152182608E-01 0.  0.
         14    1    1    2    0    0 -0.17516600827E-01  0.51755370555E-04 -0.14537473972E-01  0.22763394576E-01  0.00000000000E+00 0.  1.
     999901    1    3    3    0    0  0.70321917561E-02  0.38119568988E-01 -0.11117109784E+00  0.88784095775E+00  0.88000000000E+00 0.  1.
        -11    1    4    4    0    0  0.17524298138E-03 -0.66498636565E-02  0.52886519334E-01  0.53305688674E-01  0.51100000000E-03 0.  1.
         11    1    4    4    0    0  0.10309166090E-01 -0.31521460703E-01  0.72822052479E-01  0.80019959001E-01  0.51100000000E-03 0. -1.
</event>
<event>
 7    1  0.1285961E+005  0.1043930E+01  0.7957747E-01            NaN
         13   -1    0    0    0    0  0.00000000000E+00  0.00000000000E+00  0.74505805969E-08  0.10566000000E+00  0.10566000000E+00 0.  1.
     999900   -1    0    0    0    0 -0.00000000000E+00 -0.00000000000E+00 -0.74505805969E-08  0.93827000000E+00  0.93827000000E+00 0. -1.
     999902    2    1    2    0    0 -0.18879986257E-01  0.20356232232E-01 -0.35488434884E-02  0.10159402811E+01  0.10155546418E+01 0.  0.
         14    1    1    2    0    0  0.18879986257E-01 -0.20356232232E-01  0.35488434884E-02  0.27989718860E-01  0.00000000000E+00 0.  1.
     999901    1    3    3    0    0  0.52536843056E-01 -0.34912172236E-01  0.88850997267E-01  0.88672063208E+00  0.88000000000E+00 0.  1.
        -11    1    3    3    0    0 -0.43309714502E-01  0.34628652023E-01 -0.56157334755E-01  0.78922634770E-01  0.51100000000E-03 0. -1.
         11    1    3    3    0    0 -0.28107114810E-01  0.20639752444E-01 -0.36242506000E-01  0.50297014286E-01  0.51100000000E-03 0.  1.
</event>
<event>
 8    1  0.1379645E+005  0.1043930E+01  0.7957747E-01            NaN
         13   -1    0    0    0    0  0.00000000000E+00  0.00000000000E+00  0.74505805969E-08  0.10566000000E+00  0.10566000000E+00 0.  1.
     999900   -1    0    0    0    0 -0.00000000000E+00 -0.00000000000E+00 -0.74505805969E-08  0.93827000000E+00  0.93827000000E+00 0. -1.
     999902    2    1    2    0    0  0.92160147607E-02  0.45767133238E-02 -0.20585962925E-01  0.10209155892E+01  0.10206561504E+01 0.  0.
     999903    2    3    3    0    0  0.32437620910E-01 -0.22783101423E-01  0.12089576222E+00  0.12889267418E+00  0.20646238683E-01 0.  0.
         14    1    1    2    0    0 -0.92160147607E-02 -0.45767133238E-02  0.20585962925E-01  0.23014410756E-01  0.00000000000E+00 0.  1.
     999901    1    3    3    0    0 -0.23221606150E-01  0.27359814747E-01 -0.14148172515E+00  0.89202291507E+00  0.88000000000E+00 0. -1.
        -11    1    4    4    0    0  0.24353583784E-01 -0.51156041058E-02  0.59577078163E-01  0.64567451645E-01  0.51100000000E-03 0. -1.
         11    1    4    4    0    0  0.80840371266E-02 -0.17667497317E-01  0.61318684061E-01  0.64325222531E-01  0.51100000000E-03 0.  1.
</event>
<event>
 8    1  0.1060404E+005  0.1043930E+01  0.7957747E-01            NaN
         13   -1    0    0    0    0  0.00000000000E+00  0.00000000000E+00  0.74505805969E-08  0.10566000000E+00  0.10566000000E+00 0. -1.
     999900   -1    0    0    0    0 -0.00000000000E+00 -0.00000000000E+00 -0.74505805969E-08  0.93827000000E+00  0.93827000000E+00 0. -1.
     999902    2    1    2    0    0 -0.12239771951E-01 -0.30399812254E-02 -0.19919618918E-01  0.10203536406E+01  0.10200812258E+01 0.  0.
     999903    2    3    3    0    0  0.14581131143E-01  0.12765174042E+00 -0.10359640397E-01  0.13024629871E+00  0.18686892800E-01 0.  0.
         14    1    1    2    0    0  0.12239771951E-01  0.30399812254E-02  0.19919618918E-01  0.23576359369E-01  0.00000000000E+00 0. -1.
     999901    1    3    3    0    0 -0.26820903094E-01 -0.13069172164E+00 -0.95599785208E-02  0.89010734192E+00  0.88000000000E+00 0.  1.
        -11    1    4    4    0    0  0.18095636073E-01  0.85759622524E-01 -0.98463773211E-02  0.88200777591E-01  0.51100000000E-03 0.  1.
         11    1    4    4    0    0 -0.35145049302E-02  0.41892117892E-01 -0.51326307632E-03  0.42045521121E-01  0.51100000000E-03 0. -1.
</event>
<event>
 8    1  0.1109886E+005  0.1043930E+01  0.7957747E-01            NaN
         13   -1    0    0    0    0  0.00000000000E+00  0.00000000000E+00  0.74505805969E-08  0.10566000000E+00  0.10566000000E+00 0.  1.
     999900   -1    0    0    0    0 -0.00000000000E+00 -0.00000000000E+00 -0.74505805969E-08  0.93827000000E+00  0.93827000000E+00 0. -1.
     999902    2    1    2    0    0  0.23923667619E-01 -0.82667225910E-02  0.38024225033E-02  0.10183343169E+01  0.10180125943E+01 0.  0.
     999903    2    3    3    0    0  0.63318132143E-01 -0.61289579950E-01  0.95050960174E-01  0.13115358965E+00  0.20024499477E-01 0.  0.
         14    1    1    2    0    0 -0.23923667619E-01  0.82667225910E-02 -0.38024225033E-02  0.25595683067E-01  0.00000000000E+00 0.  1.
     999901    1    3    3    0    0 -0.39394464523E-01  0.53022857359E-01 -0.91248537671E-01  0.88718072728E+00  0.88000000000E+00 0. -1.
        -11    1    4    4    0    0  0.34519190842E-01 -0.26397927974E-01  0.59133531394E-01  0.73385698837E-01  0.51100000000E-03 0. -1.
         11    1    4    4    0    0  0.28798941300E-01 -0.34891651976E-01  0.35917428780E-01  0.57767890812E-01  0.51100000000E-03 0.  1.
</event>
<event>
 8    1  0.1060404E+005  0.1043930E+01  0.7957747E-01            NaN
         13   -1    0    0    0    0  0.00000000000E+00  0.00000000000E+00  0.74505805969E-08  0.10566000000E+00  0.10566000000E+00 0. -1.
     999900   -1    0    0    0    0 -0.00000000000E+00 -0.00000000000E+00 -0.74505805969E-08  0.93827000000E+00  0.93827000000E+00 0. -1.
     999902    2    1    2    0    0  0.19909423806E-01  0.99084466243E-02  0.73447950803E-02  0.10205097420E+01  0.10202409642E+01 0.  0.
     999903    2    3    3    0    0 -0.31639752193E-02  0.80759979311E-01 -0.10079784845E+00  0.13076418691E+00  0.20171299593E-01 0.  0.
         14    1    1    2    0    0 -0.19909423806E-01 -0.99084466243E-02 -0.73447950803E-02  0.23420258016E-01  0.00000000000E+00 0.  1.
     999901    1    3    3    0    0  0.23073399025E-01 -0.70851532686E-01  0.10814264353E+00  0.88974555508E+00  0.88000000000E+00 0.  1.
        -11    1    4    4    0    0  0.25778438756E-02  0.54176607181E-01 -0.79386849181E-01  0.96147194387E-01  0.51100000000E-03 0. -1.
         11    1    4    4    0    0 -0.57418190949E-02  0.26583372129E-01 -0.21410999273E-01  0.34616992521E-01  0.51100000000E-03 0.  1.
</event>
<event>
 8    1  0.1060404E+005  0.1043930E+01  0.7957747E-01            NaN
         13   -1    0    0    0    0  0.00000000000E+00  0.00000000000E+00  0.74505805969E-08  0.10566000000E+00  0.10566000000E+00 0. -1.
     999900   -1    0    0    0    0 -0.00000000000E+00 -0.00000000000E+00 -0.74505805969E-08  0.93827000000E+00  0.93827000000E+00 0. -1.
     999902    2    1    2    0    0  0.11153686666E-01  0.10622903086E-01 -0.13393843040E-01  0.10235180959E+01  0.10233145396E+01 0.  0.
     999903    2    3    3    0    0  0.17386974041E-01  0.71977391261E-01 -0.11220341911E+00  0.13584329094E+00  0.19512578409E-01 0.  0.
         14    1    1    2    0    0 -0.11153686666E-01 -0.10622903086E-01  0.13393843040E-01  0.20411904066E-01  0.00000000000E+00 0. -1.
     999901    1    3    3    0    0 -0.62332873750E-02 -0.61354488175E-01  0.98809576068E-01  0.88767480499E+00  0.88000000000E+00 0.  1.
        -11    1    4    4    0    0  0.68664177301E-02  0.51676906903E-01 -0.64450406993E-01  0.82896118619E-01  0.51100000000E-03 0.  1.
         11    1    4    4    0    0  0.10520556311E-01  0.20300484358E-01 -0.47753012114E-01  0.52947172325E-01  0.51100000000E-03 0. -1.
</event>
<event>
 8    1  0.1060404E+005  0.1043930E+01  0.7957747E-01            NaN
         13   -1    0    0    0    0  0.00000000000E+00  0.00000000000E+00  0.74505805969E-08  0.10566000000E+00  0.10566000000E+00 0.  1.
     999900   -1    0    0    0    0 -0.00000000000E+00 -0.00000000000E+00 -0.74505805969E-08  0.93827000000E+00  0.93827000000E+00 0. -1.
     999902    2    1    2    0    0  0.11001874297E-01  0.18663642920E-01 -0.90397036645E-02  0.10204547141E+01  0.10201846571E+01 0.  0.
     999903    2    3    3    0    0  0.29789481925E-01 -0.33993095250E-01 -0.12197670262E+00  0.13147750855E+00  0.19106949386E-01 0.  0.
         14    1    1    2    0    0 -0.11001874297E-01 -0.18663642920E-01  0.90397036645E-02  0.23475285886E-01  0.00000000000E+00 0.  1.
     999901    1    3    3    0    0 -0.18787607628E-01  0.52656738170E-01  0.11293699896E+00  0.88897720556E+00  0.88000000000E+00 0.  1.
        -11    1    4    4    0    0  0.24370964493E-01 -0.22154567791E-01 -0.63145148329E-01  0.71220359890E-01  0.51100000000E-03 0. -1.
         11    1    4    4    0    0  0.54185174317E-02 -0.11838527459E-01 -0.58831554292E-01  0.60257148662E-01  0.51100000000E-03 0.  1.
</event>
<event>
 8    1  0.1060404E+005  0.1043930E+01  0.7957747E-01            NaN
         13   -1    0    0    0    0  0.00000000000E+00  0.00000000000E+00  0.74505805969E-08  0.10566000000E+00  0.10566000000E+00 0.  1.
     999900   -1    0    0    0    0 -0.00000000000E+00 -0.00000000000E+00 -0.74505805969E-08  0.93827000000E+00  0.93827000000E+00 0.  1.
     999902    2    1    2    0    0  0.11177746018E-02  0.17894749006E-01  0.15514602137E-01  0.10202197840E+01  0.10199442305E+01 0.  0.
     999903    2    3    3    0    0 -0.78810490677E-02  0.12606968256E+00  0.37683898713E-01  0.13327318316E+00  0.19646611221E-01 0.  0.
         14    1    1    2    0    0 -0.11177746018E-02 -0.17894749006E-01 -0.15514602137E-01  0.23710215973E-01  0.00000000000E+00 0. -1.
     999901    1    3    3    0    0  0.89988236695E-02 -0.10817493355E+00 -0.22169296576E-01  0.88694660087E+00  0.88000000000E+00 0.  1.
        -11    1    4    4    0    0  0.49042575387E-02  0.70824047960E-01  0.23942377355E-01  0.74923935200E-01  0.51100000000E-03 0. -1.
         11    1    4    4    0    0 -0.12785306606E-01  0.55245634600E-01  0.13741521358E-01  0.58349247961E-01  0.51100000000E-03 0.  1.
</event>
<event>
 8    1  0.1060404E+005  0.1043930E+01  0.7957747E-01            NaN
         13   -1    0    0    0    0  0.00000000000E+00  0.00000000000E+00  0.74505805969E-08  0.10566000000E+00  0.10566000000E+00 0. -1.
     999900   -1    0    0    0    0 -0.00000000000E+00 -0.00000000000E+00 -0.74505805969E-08  0.93827000000E+00  0.93827000000E+00 0. -1.
     999902    2    1    2    0    0 -0.11825574641E-01 -0.14008533381E-01 -0.14196226499E-01  0.10207434507E+01  0.10204800713E+01 0.  0.
     999903    2    3    3    0    0 -0.43145627475E-01  0.53920477341E-01 -0.11103586488E+00  0.13227667483E+00  0.19979799009E-01 0.  0.
         14    1    1    2    0    0  0.11825574641E-01  0.14008533381E-01  0.14196226499E-01  0.23186549331E-01  0.00000000000E+00 0. -1.
     999901    1    3    3    0    0  0.31320052834E-01 -0.67929010721E-01  0.96839638378E-01  0.88846677584E+00  0.88000000000E+00 0.  1.
        -11    1    4    4    0    0 -0.75202318582E-02  0.34068900913E-03 -0.11699654498E-01  0.13921673483E-01  0.51100000000E-03 0.  1.
         11    1    4    4    0    0 -0.35625395617E-01  0.53579788331E-01 -0.99336210380E-01  0.11835500135E+00  0.51100000000E-03 0. -1.
</event>
<event>
 8    1  0.1060404E+005  0.1043930E+01  0.7957747E-01            NaN
         13   -1    0    0    0    0  0.00000000000E+00  0.00000000000E+00  0.74505805969E-08  0.10566000000E+00  0.10566000000E+00 0. -1.
     999900   -1    0    0    0    0 -0.00000000000E+00 -0.00000000000E+00 -0.74505805969E-08  0.93827000000E+00  0.93827000000E+00 0.  1.
     999902    2    1    2    0    0 -0.86070908331E-02 -0.21582740779E-01 -0.14858198906E-02  0.10206468651E+01  0.10203812615E+01 0.  0.
     999903    2    3    3    0    0 -0.19871156351E-01  0.96639100565E-01 -0.80780250572E-01  0.12913641100E+00  0.20415316601E-01 0.  0.
         14    1    1    2    0    0  0.86070908331E-02  0.21582740779E-01  0.14858198906E-02  0.23283134946E-01  0.00000000000E+00 0. -1.
     999901    1    3    3    0    0  0.11264065518E-01 -0.11822184134E+00  0.79294430682E-01  0.89151045405E+00  0.88000000000E+00 0. -1.
        -11    1    4    4    0    0 -0.19413262378E-01  0.51496156692E-01 -0.51136853194E-01  0.75126345485E-01  0.51100000000E-03 0.  1.
         11    1    4    4    0    0 -0.45789397257E-03  0.45142943873E-01 -0.29643397378E-01  0.54010065520E-01  0.51100000000E-03 0. -1.
</event>
<event>
 8    1  0.1060404E+005  0.1043930E+01  0.7957747E-01            NaN
         13   -1    0    0    0    0  0.00000000000E+00  0.00000000000E+00  0.74505805969E-08  0.10566000000E+00  0.10566000000E+00 0.  1.
     999900   -1    0    0    0    0 -0.00000000000E+00 -0.00000000000E+00 -0.74505805969E-08  0.93827000000E+00  0.93827000000E+00 0.  1.
     999902    2    1    2    0    0  0.12457241344E-01 -0.16661193788E-01 -0.11615131545E-01  0.10201037640E+01  0.10198254752E+01 0.  0.
     999903    2    3    3    0    0 -0.24797117186E-01  0.11582001784E+00 -0.48259521220E-01  0.12865439924E+00  0.13921189003E-01 0.  0.
         14    1    1    2    0    0 -0.12457241344E-01  0.16661193788E-01  0.11615131545E-01  0.23826235984E-01  0.00000000000E+00 0.  1.
     999901    1    3    3    0    0  0.37254358530E-01 -0.13248121163E+00  0.36644389675E-01  0.89144936478E+00  0.88000000000E+00 0. -1.
        -11    1    4    4    0    0 -0.15549020812E-01  0.73685513946E-01 -0.37799880628E-01  0.84263984656E-01  0.51100000000E-03 0.  1.
         11    1    4    4    0    0 -0.92480963738E-02  0.42134503891E-01 -0.10459640591E-01  0.44390414585E-01  0.51100000000E-03 0. -1.
</event>
<event>
 8    1  0.1060404E+005  0.1043930E+01  0.7957747E-01            NaN
         13   -1    0    0    0    0  0.00000000000E+00  0.00000000000E+00  0.74505805969E-08  0.10566000000E+00  0.10566000000E+00 0.  1.
     999900   -1    0    0    0    0 -0.00000000000E+00 -0.00000000000E+00 -0.74505805969E-08  0.93827000000E+00  0.93827000000E+00 0. -1.
     999902    2    1    2    0    0  0.22606802811E-01  0.63549514214E-02  0.29957806959E-04  0.10204469457E+01  0.10201767078E+01 0.  0.
     999903    2    3    3    0    0 -0.58264867496E-01 -0.11106892787E+00  0.19855934921E-01  0.12875099762E+00  0.21247581396E-01 0.  0.
         14    1    1    2    0    0 -0.22606802811E-01 -0.63549514214E-02 -0.29957806959E-04  0.23483054281E-01  0.00000000000E+00 0.  1.
     999901    1    3    3    0    0  0.80871670307E-01  0.11742387929E+00 -0.19825977114E-01  0.89169594810E+00  0.88000000000E+00 0.  1.
        -11    1    4    4    0    0 -0.33990182616E-01 -0.51043567793E-01  0.18234219616E-01  0.63980670623E-01  0.51100000000E-03 0.  1.
         11    1    4    4    0    0 -0.24274684879E-01 -0.60025360074E-01  0.16217153044E-02  0.64770326998E-01  0.51100000000E-03 0. -1.
</event>
<event>
 8    1  0.1224763E+005  0.1043930E+01  0.7957747E-01            NaN
         13   -1    0    0    0    0  0.00000000000E+00  0.00000000000E+00  0.74505805969E-08  0.10566000000E+00  0.10566000000E+00 0.  1.
     999900   -1    0    0    0    0 -0.00000000000E+00 -0.00000000000E+00 -0.74505805969E-08  0.93827000000E+00  0.93827000000E+00 0. -1.
     999902    2    1    2    0    0  0.24229263242E-02 -0.11049620654E-01 -0.21227518700E-01  0.10198764714E+01  0.10195927837E+01 0.  0.
     999903    2    3    3    0    0  0.76501091925E-01  0.80675656826E-01  0.60516370124E-01  0.12825818731E+00  0.20662838338E-01 0.  0.
         14    1    1    2    0    0 -0.24229263242E-02  0.11049620654E-01  0.21227518700E-01  0.24053528613E-01  0.00000000000E+00 0.  1.
     999901    1    3    3    0    0 -0.74078165600E-01 -0.91725277479E-01 -0.81743888824E-01  0.89161828408E+00  0.88000000000E+00 0. -1.
        -11    1    4    4    0    0  0.38174553767E-01  0.33849902211E-01  0.38288864803E-01  0.63791933063E-01  0.51100000000E-03 0.  1.
         11    1    4    4    0    0  0.38326538158E-01  0.46825754614E-01  0.22227505322E-01  0.64466254244E-01  0.51100000000E-03 0. -1.
</event>
<event>
 8    1  0.1060404E+005  0.1043930E+01  0.7957747E-01            NaN
         13   -1    0    0    0    0  0.00000000000E+00  0.00000000000E+00  0.74505805969E-08  0.10566000000E+00  0.10566000000E+00 0.  1.
     999900   -1    0    0    0    0 -0.00000000000E+00 -0.00000000000E+00 -0.74505805969E-08  0.93827000000E+00  0.93827000000E+00 0.  1.
     999902    2    1    2    0    0 -0.15263584398E-01  0.16686529954E-01  0.40748032931E-02  0.10209512857E+01  0.10206926601E+01 0.  0.
     999903    2    3    3    0    0 -0.12976319766E-01 -0.96325639401E-01  0.84144626538E-01  0.13011563382E+00  0.20068540277E-01 0.  0.
         14    1    1    2    0    0  0.15263584398E-01 -0.16686529954E-01 -0.40748032931E-02  0.22978714334E-01  0.00000000000E+00 0. -1.
     999901    1    3    3    0    0 -0.22872646321E-02  0.11301216936E+00 -0.80069823245E-01  0.89083565184E+00  0.88000000000E+00 0.  1.
        -11    1    4    4    0    0 -0.97323768940E-02 -0.78132423880E-01  0.56714313636E-01  0.97036948188E-01  0.51100000000E-03 0.  1.
         11    1    4    4    0    0 -0.32439428717E-02 -0.18193215521E-01  0.27430312903E-01  0.33078685634E-01  0.51100000000E-03 0. -1.
</event>
<event>
 8    1  0.1060404E+005  0.1043930E+01  0.7957747E-01            NaN
         13   -1    0    0    0    0  0.00000000000E+00  0.00000000000E+00  0.74505805969E-08  0.10566000000E+00  0.10566000000E+00 0. -1.
     999900   -1    0    0    0    0 -0.00000000000E+00 -0.00000000000E+00 -0.74505805969E-08  0.93827000000E+00  0.93827000000E+00 0. -1.
     999902    2    1    2    0    0  0.15961989073E-01 -0.12890054283E-01  0.11840619581E-01  0.10202416301E+01  0.10199665901E+01 0.  0.
     999903    2    3    3    0    0  0.12309050016E+00  0.16091430634E-01  0.42677283672E-01  0.13273537990E+00  0.19675496633E-01 0.  0.
         14    1    1    2    0    0 -0.15961989073E-01  0.12890054283E-01 -0.11840619581E-01  0.23688369860E-01  0.00000000000E+00 0.  1.
     999901    1    3    3    0    0 -0.10712851108E+00 -0.28981484918E-01 -0.30836664091E-01  0.88750625024E+00  0.88000000000E+00 0.  1.
        -11    1    4    4    0    0  0.64892686875E-01  0.15488822185E-01  0.15472528426E-01  0.68488135319E-01  0.51100000000E-03 0. -1.
         11    1    4    4    0    0  0.58197813282E-01  0.60260844963E-03  0.27204755246E-01  0.64247244585E-01  0.51100000000E-03 0.  1.
</event>
<event>
 8    1  0.1060404E+005  0.1043930E+01  0.7957747E-01            NaN
         13   -1    0    0    0    0  0.00000000000E+00  0.00000000000E+00  0.74505805969E-08  0.10566000000E+00  0.10566000000E+00 0.  1.
     999900   -1    0    0    0    0 -0.00000000000E+00 -0.00000000000E+00 -0.74505805969E-08  0.93827000000E+00  0.93827000000E+00 0.  1.
     999902    2    1    2    0    0  0.33650850099E-02 -0.22079068870E-01 -0.60593600471E-02  0.10207885886E+01  0.10205262454E+01 0.  0.
     999903    2    3    3    0    0 -0.20221625090E-01  0.83385505479E-01  0.93499310887E-01  0.12860528996E+00  0.20860077297E-01 0.  0.
         14    1    1    2    0    0 -0.33650850099E-02  0.22079068870E-01  0.60593600471E-02  0.23141411441E-01  0.00000000000E+00 0. -1.
     999901    1    3    3    0    0  0.23586710100E-01 -0.10546457435E+00 -0.99558670934E-01  0.89218329860E+00  0.88000000000E+00 0.  1.
        -11    1    4    4    0    0 -0.21938467085E-01  0.72376555637E-01  0.72187588621E-01  0.10455128510E+00  0.51100000000E-03 0. -1.
         11    1    4    4    0    0  0.17168419950E-02  0.11008949842E-01  0.21311722265E-01  0.24054004863E-01  0.51100000000E-03 0.  1.
</event>
<event>
 7    1  0.1060404E+005  0.1043930E+01  0.7957747E-01            NaN
         13   -1    0    0    0    0  0.00000000000E+00  0.00000000000E+00  0.74505805969E-08  0.10566000000E+00  0.10566000000E+00 0.  1.
     999900   -1    0    0    0    0 -0.00000000000E+00 -0.00000000000E+00 -0.74505805969E-08  0.93827000000E+00  0.93827000000E+00 0. -1.
     999903    2    1    2    0    0  0.29684505795E-01  0.20584342231E-01 -0.90588500525E-01  0.99542120722E-01  0.19936708380E-01 0.  0.
         14    1    1    2    0    0 -0.23419285654E-01 -0.47800928296E-03  0.59100097299E-01  0.63572894650E-01  0.00000000000E+00 0.  1.
     999901    1    1    2    0    0 -0.62652201406E-02 -0.20106332948E-01  0.31488403226E-01  0.88081498463E+00  0.88000000000E+00 0.  1.
        -11    1    3    3    0    0  0.31173951206E-01  0.14075566047E-01 -0.80091016699E-01  0.87090578539E-01  0.51100000000E-03 0.  1.
         11    1    3    3    0    0 -0.14894454118E-02  0.65087761840E-02 -0.10497483826E-01  0.12451542182E-01  0.51100000000E-03 0. -1.
</event>
<event>
 8    1  0.1060404E+005  0.1043930E+01  0.7957747E-01            NaN
         13   -1    0    0    0    0  0.00000000000E+00  0.00000000000E+00  0.74505805969E-08  0.10566000000E+00  0.10566000000E+00 0. -1.
     999900   -1    0    0    0    0 -0.00000000000E+00 -0.00000000000E+00 -0.74505805969E-08  0.93827000000E+00  0.93827000000E+00 0. -1.
     999902    2    1    2    0    0  0.19802664230E-01 -0.10778603582E-01  0.54193862715E-02  0.10207417799E+01  0.10204783621E+01 0.  0.
     999903    2    3    3    0    0  0.88609343441E-01 -0.93697460326E-01 -0.26517212033E-01  0.13359475584E+00  0.22662004283E-01 0.  0.
         14    1    1    2    0    0 -0.19802664230E-01  0.10778603582E-01 -0.54193862715E-02  0.23188220142E-01  0.00000000000E+00 0.  1.
     999901    1    3    3    0    0 -0.68806679211E-01  0.82918856744E-01  0.31936598304E-01  0.88714702402E+00  0.88000000000E+00 0. -1.
        -11    1    4    4    0    0  0.30747806177E-01 -0.18009861248E-01 -0.84183176839E-02  0.36618463656E-01  0.51100000000E-03 0. -1.
         11    1    4    4    0    0  0.57861537264E-01 -0.75687599078E-01 -0.18098894349E-01  0.96976292187E-01  0.51100000000E-03 0.  1.
</event>
<event>
 8    1  0.1060404E+005  0.1043930E+01  0.7957747E-01            NaN
         13   -1    0    0    0    0  0.00000000000E+00  0.00000000000E+00  0.74505805969E-08  0.10566000000E+00  0.10566000000E+00 0. -1.
     999900   -1    0    0    0    0 -0.00000000000E+00 -0.00000000000E+00 -0.74505805969E-08  0.93827000000E+00  0.93827000000E+00 0. -1.
     999902    2    1    2    0    0  0.18059061463E-01  0.60289199566E-02  0.13961816574E-01  0.10203204702E+01  0.10200472793E+01 0.  0.
     999903    2    3    3    0    0 -0.30998910542E-01 -0.11478137586E+00 -0.46740017863E-01  0.12864422573E+00  0.15133104303E-01 0.  0.
         14    1    1    2    0    0 -0.18059061463E-01 -0.60289199566E-02 -0.13961816574E-01  0.23609529830E-01  0.00000000000E+00 0.  1.
     999901    1    3    3    0    0  0.49057972005E-01  0.12081029581E+00  0.60701834437E-01  0.89167624444E+00  0.88000000000E+00 0. -1.
        -11    1    4    4    0    0 -0.12474236457E-01 -0.38088916859E-01 -0.85354924255E-02  0.40981555786E-01  0.51100000000E-03 0.  1.
         11    1    4    4    0    0 -0.18524674084E-01 -0.76692458998E-01 -0.38204525438E-01  0.87662669946E-01  0.51100000000E-03 0. -1.
</event>
<event>
 8    1  0.1060404E+005  0.1043930E+01  0.7957747E-01            NaN
         13   -1    0    0    0    0  0.00000000000E+00  0.00000000000E+00  0.74505805969E-08  0.10566000000E+00  0.10566000000E+00 0. -1.
     999900   -1    0    0    0    0 -0.00000000000E+00 -0.00000000000E+00 -0.74505805969E-08  0.93827000000E+00  0.93827000000E+00 0. -1.
     999902    2    1    2    0    0 -0.12313837753E-01 -0.18398016384E-01  0.17968416930E-03  0.10217906709E+01  0.10215507942E+01 0.  0.
     999903    2    3    3    0    0 -0.70919668199E-01  0.10303070772E+00  0.33043813183E-01  0.13091490549E+00  0.20047264624E-01 0.  0.
         14    1    1    2    0    0  0.12313837753E-01  0.18398016384E-01 -0.17968416930E-03  0.22139329111E-01  0.00000000000E+00 0.  1.
     999901    1    3    3    0    0  0.58605830446E-01 -0.12142872410E+00 -0.32864129014E-01  0.89087576540E+00  0.88000000000E+00 0. -1.
        -11    1    4    4    0    0 -0.42732776642E-01  0.71811779928E-01  0.13959138393E-01  0.84723908088E-01  0.51100000000E-03 0.  1.
         11    1    4    4    0    0 -0.28186891557E-01  0.31218927792E-01  0.19084674790E-01  0.46190997402E-01  0.51100000000E-03 0. -1.
</event>
<event>
 8    1  0.1060404E+005  0.1043930E+01  0.7957747E-01            NaN
         13   -1    0    0    0    0  0.00000000000E+00  0.00000000000E+00  0.74505805969E-08  0.10566000000E+00  0.10566000000E+00 0.  1.
     999900   -1    0    0    0    0 -0.00000000000E+00 -0.00000000000E+00 -0.74505805969E-08  0.93827000000E+00  0.93827000000E+00 0. -1.
     999902    2    1    2    0    0 -0.10014648368E-01 -0.10774232124E-02  0.22568928135E-01  0.10192154185E+01  0.10189157270E+01 0.  0.
     999903    2    3    3    0    0 -0.91354994444E-01 -0.81972508117E-01 -0.37303223363E-01  0.12975213020E+00  0.19464267825E-01 0.  0.
         14    1    1    2    0    0  0.10014648368E-01  0.10774232124E-02 -0.22568928135E-01  0.24714581524E-01  0.00000000000E+00 0. -1.
     999901    1    3    3    0    0  0.81340346076E-01  0.80895084905E-01  0.59872151498E-01  0.88946328827E+00  0.88000000000E+00 0.  1.
        -11    1    4    4    0    0 -0.42073855207E-01 -0.46318259533E-01 -0.11254688455E-01  0.63580811503E-01  0.51100000000E-03 0. -1.
         11    1    4    4    0    0 -0.49281139237E-01 -0.35654248584E-01 -0.26048534908E-01  0.66171318700E-01  0.51100000000E-03 0.  1.
</event>
<event>
 8    1  0.1060404E+005  0.1043930E+01  0.7957747E-01            NaN
         13   -1    0    0    0    0  0.00000000000E+00  0.00000000000E+00  0.74505805969E-08  0.10566000000E+00  0.10566000000E+00 0.  1.
     999900   -1    0    0    0    0 -0.00000000000E+00 -0.00000000000E+00 -0.74505805969E-08  0.93827000000E+00  0.93827000000E+00 0. -1.
     999902    2    1    2    0    0 -0.10104057461E-01  0.94688664288E-02 -0.20050723369E-01  0.10195623387E+01  0.10192711021E+01 0.  0.
     999903    2    3    3    0    0 -0.97738680599E-01 -0.37096828047E-01  0.72930464663E-01  0.12911655575E+00  0.20572018802E-01 0.  0.
         14    1    1    2    0    0  0.10104057461E-01 -0.94688664288E-02  0.20050723369E-01  0.24367661279E-01  0.00000000000E+00 0.  1.
     999901    1    3    3    0    0  0.87634623138E-01  0.46565694476E-01 -0.92981188032E-01  0.89044578297E+00  0.88000000000E+00 0. -1.
        -11    1    4    4    0    0 -0.37267226901E-01 -0.51787215500E-02  0.19789815446E-01  0.42515447477E-01  0.51100000000E-03 0.  1.
         11    1    4    4    0    0 -0.60471453698E-01 -0.31918106497E-01  0.53140649217E-01  0.86601108277E-01  0.51100000000E-03 0. -1.
</event>
<event>
 8    1  0.1060404E+005  0.1043930E+01  0.7957747E-01            NaN
         13   -1    0    0    0    0  0.00000000000E+00  0.00000000000E+00  0.74505805969E-08  0.10566000000E+00  0.10566000000E+00 0. -1.
     999900   -1    0    0    0    0 -0.00000000000E+00 -0.00000000000E+00 -0.74505805969E-08  0.93827000000E+00  0.93827000000E+00 0. -1.
     999902    2    1    2    0    0 -0.11496559769E-01  0.20046372641E-01  0.33973303927E-02  0.10205725644E+01  0.10203052433E+01 0.  0.
     999903    2    3    3    0    0  0.78826515974E-01  0.97161957408E-01  0.36570390905E-01  0.13197506085E+00  0.20638740457E-01 0.  0.
         14    1    1    2    0    0  0.11496559769E-01 -0.20046372641E-01 -0.33973303927E-02  0.23357435569E-01  0.00000000000E+00 0.  1.
     999901    1    3    3    0    0 -0.90323075743E-01 -0.77115584767E-01 -0.33173060513E-01  0.88859750358E+00  0.88000000000E+00 0.  1.
        -11    1    4    4    0    0  0.82698684050E-02  0.10398759863E-01 -0.24720551234E-02  0.13523945713E-01  0.51100000000E-03 0.  1.
         11    1    4    4    0    0  0.70556647569E-01  0.86763197544E-01  0.39042446029E-01  0.11845111514E+00  0.51100000000E-03 0. -1.
</event>
<event>
 8    1  0.1060404E+005  0.1043930E+01  0.7957747E-01            NaN
         13   -1    0    0    0    0  0.00000000000E+00  0.00000000000E+00  0.74505805969E-08  0.10566000000E+00  0.10566000000E+00 0. -1.
     999900   -1    0    0    0    0 -0.00000000000E+00 -0.00000000000E+00 -0.74505805969E-08  0.93827000000E+00  0.93827000000E+00 0. -1.
     999902    2    1    2    0    0  0.16298070841E-01 -0.71040457970E-02 -0.17484577234E-01  0.10189939815E+01  0.10186888285E+01 0.  0.
     999903    2    3    3    0    0  0.10649182853E+00  0.71026071788E-01  0.14469701375E-01  0.13036565357E+00  0.20015467897E-01 0.  0.
         14    1    1    2    0    0 -0.16298070841E-01  0.71040457970E-02  0.17484577234E-01  0.24936018545E-01  0.00000000000E+00 0. -1.
     999901    1    3    3    0    0 -0.90193757690E-01 -0.78130117585E-01 -0.31954278609E-01  0.88862832789E+00  0.88000000000E+00 0. -1.
        -11    1    4    4    0    0  0.28048588200E-01  0.16005916128E-01  0.12189753411E-01  0.34521933033E-01  0.51100000000E-03 0.  1.
         11    1    4    4    0    0  0.78443240331E-01  0.55020155660E-01  0.22799479635E-02  0.95843720536E-01  0.51100000000E-03 0. -1.
</event>
<event>
 8    1  0.1060404E+005  0.1043930E+01  0.7957747E-01            NaN
         13   -1    0    0    0    0  0.00000000000E+00  0.00000000000E+00  0.74505805969E-08  0.10566000000E+00  0.10566000000E+00 0.  1.
     999900   -1    0    0    0    0 -0.00000000000E+00 -0.00000000000E+00 -0.74505805969E-08  0.93827000000E+00  0.93827000000E+00 0. -1.
     999902    2    1    2    0    0  0.20857483042E-01 -0.61592521503E-02  0.89132291159E-02  0.10204264548E+01  0.10201557395E+01 0.  0.
     999903    2    3    3    0    0  0.10949214120E+00 -0.70042299494E-01 -0.20558456342E-01  0.13318030705E+00  0.20491250728E-01 0.  0.
         14    1    1    2    0    0 -0.20857483042E-01  0.61592521503E-02 -0.89132291159E-02  0.23503545247E-01  0.00000000000E+00 0. -1.
     999901    1    3    3    0    0 -0.88634658160E-01  0.63883047344E-01  0.29471685458E-01  0.88724614770E+00  0.88000000000E+00 0.  1.
        -11    1    4    4    0    0  0.10986708895E-01 -0.74915155716E-02  0.40802341050E-02  0.13919052024E-01  0.51100000000E-03 0. -1.
         11    1    4    4    0    0  0.98505432306E-01 -0.62550783923E-01 -0.24638690447E-01  0.11926125503E+00  0.51100000000E-03 0.  1.
</event>
<event>
 8    1  0.1060404E+005  0.1043930E+01  0.7957747E-01            NaN
         13   -1    0    0    0    0  0.00000000000E+00  0.00000000000E+00  0.74505805969E-08  0.10566000000E+00  0.10566000000E+00 0. -1.
     999900   -1    0    0    0    0 -0.00000000000E+00 -0.00000000000E+00 -0.74505805969E-08  0.93827000000E+00  0.93827000000E+00 0. -1.
     999902    2    1    2    0    0  0.16899748098E-01 -0.17939702820E-01  0.53811438208E-02  0.10187032061E+01  0.10183908046E+01 0.  0.
     999903    2    3    3    0    0  0.20428374729E-01 -0.17805144324E-02  0.12695405150E+00  0.13019122390E+00  0.20296178536E-01 0.  0.
         14    1    1    2    0    0 -0.16899748098E-01  0.17939702820E-01 -0.53811438208E-02  0.25226793928E-01  0.00000000000E+00 0.  1.
     999901    1    3    3    0    0 -0.35286266311E-02 -0.16159188388E-01 -0.12157290768E+00  0.88851198217E+00  0.88000000000E+00 0. -1.
        -11    1    4    4    0    0  0.87746263206E-02  0.90111712352E-02  0.66662108259E-01  0.67840202480E-01  0.51100000000E-03 0.  1.
         11    1    4    4    0    0  0.11653748408E-01 -0.10791685668E-01  0.60291943243E-01  0.62351021423E-01  0.51100000000E-03 0. -1.
</event>
<event>
 8    1  0.1060404E+005  0.1043930E+01  0.7957747E-01            NaN
         13   -1    0    0    0    0  0.00000000000E+00  0.00000000000E+00  0.74505805969E-08  0.10566000000E+00  0.10566000000E+00 0.  1.
     999900   -1    0    0    0    0 -0.00000000000E+00 -0.00000000000E+00 -0.74505805969E-08  0.93827000000E+00  0.93827000000E+00 0. -1.
     999902    2    1    2    0    0  0.86079373703E-02 -0.20513939844E-01  0.42162938571E-02  0.10212872209E+01  0.10210361855E+01 0.  0.
     999903    2    3    3    0    0  0.82121858279E-01 -0.43660619300E-01 -0.92644450790E-01  0.13262414117E+00  0.18865822897E-01 0.  0.
         14    1    1    2    0    0 -0.86079373703E-02  0.20513939844E-01 -0.42162938571E-02  0.22642779149E-01  0.00000000000E+00 0.  1.
     999901    1    3    3    0    0 -0.73513920909E-01  0.23146679457E-01  0.96860744647E-01  0.88866307968E+00  0.88000000000E+00 0.  1.
        -11    1    4    4    0    0  0.38846207891E-01 -0.27959400383E-01 -0.37616734890E-01  0.60877219073E-01  0.51100000000E-03 0. -1.
         11    1    4    4    0    0  0.43275650389E-01 -0.15701218918E-01 -0.55027715900E-01  0.71746922096E-01  0.51100000000E-03 0.  1.
</event>
<event>
 8    1  0.1060404E+005  0.1043930E+01  0.7957747E-01            NaN
         13   -1    0    0    0    0  0.00000000000E+00  0.00000000000E+00  0.74505805969E-08  0.10566000000E+00  0.10566000000E+00 0.  1.
     999900   -1    0    0    0    0 -0.00000000000E+00 -0.00000000000E+00 -0.74505805969E-08  0.93827000000E+00  0.93827000000E+00 0. -1.
     999902    2    1    2    0    0  0.15958271100E-01  0.24592110885E-02  0.15865140882E-01  0.10212933741E+01  0.10210424767E+01 0.  0.
     999903    2    3    3    0    0  0.12716438988E+00 -0.13026009539E-01  0.34557244033E-01  0.13396255215E+00  0.20280613554E-01 0.  0.
         14    1    1    2    0    0 -0.15958271100E-01 -0.24592110885E-02 -0.15865140882E-01  0.22636625872E-01  0.00000000000E+00 0. -1.
     999901    1    3    3    0    0 -0.11120611878E+00  0.15485220627E-01 -0.18692103151E-01  0.88733082198E+00  0.88000000000E+00 0.  1.
        -11    1    4    4    0    0  0.84934387478E-01 -0.13818574198E-02  0.29207724131E-01  0.89828235963E-01  0.51100000000E-03 0. -1.
         11    1    4    4    0    0  0.42230002399E-01 -0.11644152119E-01  0.53495199027E-02  0.44134316188E-01  0.51100000000E-03 0.  1.
</event>
<event>
 8    1  0.1060404E+005  0.1043930E+01  0.7957747E-01            NaN
         13   -1    0    0    0    0  0.00000000000E+00  0.00000000000E+00  0.74505805969E-08  0.10566000000E+00  0.10566000000E+00 0. -1.
     999900   -1    0    0    0    0 -0.00000000000E+00 -0.00000000000E+00 -0.74505805969E-08  0.93827000000E+00  0.93827000000E+00 0. -1.
     999902    2    1    2    0    0 -0.19253064815E-01  0.24993065296E-02  0.13888628309E-01  0.10200590755E+01  0.10197797294E+01 0.  0.
     999903    2    3    3    0    0 -0.35480314890E-02  0.58791110727E-01  0.11651599583E+00  0.13216955998E+00  0.20587182254E-01 0.  0.
         14    1    1    2    0    0  0.19253064815E-01 -0.24993065296E-02 -0.13888628309E-01  0.23870924452E-01  0.00000000000E+00 0.  1.
     999901    1    3    3    0    0 -0.15705033326E-01 -0.56291804198E-01 -0.10262736752E+00  0.88788951557E+00  0.88000000000E+00 0. -1.
        -11    1    4    4    0    0 -0.91691804633E-02  0.46259773169E-01  0.76611539960E-01  0.89964602261E-01  0.51100000000E-03 0.  1.
         11    1    4    4    0    0  0.56211489743E-02  0.12531337559E-01  0.39904455869E-01  0.42204957718E-01  0.51100000000E-03 0. -1.
</event>
<event>
 8    1  0.1060404E+005  0.1043930E+01  0.7957747E-01            NaN
         13   -1    0    0    0    0  0.00000000000E+00  0.00000000000E+00  0.74505805969E-08  0.10566000000E+00  0.10566000000E+00 0.  1.
     999900   -1    0    0    0    0 -0.00000000000E+00 -0.00000000000E+00 -0.74505805969E-08  0.93827000000E+00  0.93827000000E+00 0.  1.
     999902    2    1    2    0    0  0.88996281613E-02  0.22232928182E-01  0.14486566113E-02  0.10199382288E+01  0.10196560134E+01 0.  0.
     999903    2    3    3    0    0  0.25994420996E-01  0.11166897629E+00  0.64314839903E-01  0.13300914733E+00  0.20232756923E-01 0.  0.
         14    1    1    2    0    0 -0.88996281613E-02 -0.22232928182E-01 -0.14486566113E-02  0.23991771151E-01  0.00000000000E+00 0. -1.
     999901    1    3    3    0    0 -0.17094792835E-01 -0.89436048109E-01 -0.62866183292E-01  0.88692908152E+00  0.88000000000E+00 0.  1.
        -11    1    4    4    0    0  0.12381962527E-01  0.26245533573E-01  0.92301576689E-02  0.30456492906E-01  0.51100000000E-03 0.  1.
         11    1    4    4    0    0  0.13612458469E-01  0.85423442719E-01  0.55084682234E-01  0.10255265442E+00  0.51100000000E-03 0. -1.
</event>
<event>
 8    1  0.1060404E+005  0.1043930E+01  0.7957747E-01            NaN
         13   -1    0    0    0    0  0.00000000000E+00  0.00000000000E+00  0.74505805969E-08  0.10566000000E+00  0.10566000000E+00 0.  1.
     999900   -1    0    0    0    0 -0.00000000000E+00 -0.00000000000E+00 -0.74505805969E-08  0.93827000000E+00  0.93827000000E+00 0. -1.
     999902    2    1    2    0    0  0.13582400172E-01 -0.67620188386E-02  0.20357565708E-01  0.10185402979E+01  0.10182237973E+01 0.  0.
     999903    2    3    3    0    0 -0.70171551806E-01  0.98649920381E-01 -0.31744212441E-01  0.12677743886E+00  0.20223019231E-01 0.  0.
         14    1    1    2    0    0 -0.13582400172E-01  0.67620188386E-02 -0.20357565708E-01  0.25389702140E-01  0.00000000000E+00 0. -1.
     999901    1    3    3    0    0  0.83753951978E-01 -0.10541193922E+00  0.52101778149E-01  0.89176285900E+00  0.88000000000E+00 0. -1.
        -11    1    4    4    0    0 -0.61862146302E-01  0.88618404897E-01 -0.21490241287E-01  0.11019182557E+00  0.51100000000E-03 0. -1.
         11    1    4    4    0    0 -0.83094055047E-02  0.10031515484E-01 -0.10253971154E-01  0.16585613289E-01  0.51100000000E-03 0.  1.
</event>
<event>
 8    1  0.1060404E+005  0.1043930E+01  0.7957747E-01            NaN
         13   -1    0    0    0    0  0.00000000000E+00  0.00000000000E+00  0.74505805969E-08  0.10566000000E+00  0.10566000000E+00 0. -1.
     999900   -1    0    0    0    0 -0.00000000000E+00 -0.00000000000E+00 -0.74505805969E-08  0.93827000000E+00  0.93827000000E+00 0. -1.
     999902    2    1    2    0    0 -0.15383991874E-01  0.61200885134E-03  0.19670452960E-01  0.10189506389E+01  0.10186444110E+01 0.  0.
     999903    2    3    3    0    0 -0.25830993778E-01 -0.37039113663E-04 -0.12311738755E+00  0.12738015459E+00  0.20014271274E-01 0.  0.
         14    1    1    2    0    0  0.15383991874E-01 -0.61200885134E-03 -0.19670452960E-01  0.24979361090E-01  0.00000000000E+00 0.  1.
     999901    1    3    3    0    0  0.10447001904E-01  0.64904796500E-03  0.14278784051E+00  0.89157048432E+00  0.88000000000E+00 0.  1.
        -11    1    4    4    0    0 -0.14830709634E-01 -0.44718085403E-02 -0.32702808276E-01  0.36189526248E-01  0.51100000000E-03 0. -1.
         11    1    4    4    0    0 -0.11000284144E-01  0.44347694266E-02 -0.90414579275E-01  0.91190628343E-01  0.51100000000E-03 0.  1.
</event>
<event>
 8    1  0.1060404E+005  0.1043930E+01  0.7957747E-01            NaN
         13   -1    0    0    0    0  0.00000000000E+00  0.00000000000E+00  0.74505805969E-08  0.10566000000E+00  0.10566000000E+00 0.  1.
     999900   -1    0    0    0    0 -0.00000000000E+00 -0.00000000000E+00 -0.74505805969E-08  0.93827000000E+00  0.93827000000E+00 0. -1.
     999902    2    1    2    0    0  0.93987128993E-02 -0.27923889548E-01 -0.34178829175E-02  0.10142692290E+01  0.10138354440E+01 0.  0.
     999903    2    3    3    0    0  0.97260144099E-01 -0.67315265503E-01  0.43547082136E-01  0.12777217909E+00  0.20940410364E-01 0.  0.
         14    1    1    2    0    0 -0.93987128993E-02  0.27923889548E-01  0.34178829175E-02  0.29660770983E-01  0.00000000000E+00 0. -1.
     999901    1    3    3    0    0 -0.87861431200E-01  0.39391375954E-01 -0.46964965053E-01  0.88649704993E+00  0.88000000000E+00 0. -1.
        -11    1    4    4    0    0  0.40051842856E-01 -0.38644981667E-01  0.14626978023E-01  0.57548191382E-01  0.51100000000E-03 0.  1.
         11    1    4    4    0    0  0.57208301243E-01 -0.28670283835E-01  0.28920104113E-01  0.70223987705E-01  0.51100000000E-03 0. -1.
</event>
<event>
 8    1  0.1060404E+005  0.1043930E+01  0.7957747E-01            NaN
         13   -1    0    0    0    0  0.00000000000E+00  0.00000000000E+00  0.74505805969E-08  0.10566000000E+00  0.10566000000E+00 0. -1.
     999900   -1    0    0    0    0 -0.00000000000E+00 -0.00000000000E+00 -0.74505805969E-08  0.93827000000E+00  0.93827000000E+00 0.  1.
     999902    2    1    2    0    0  0.15364029761E-01 -0.58443274147E-02  0.16517926455E-01  0.10206265353E+01  0.10203604623E+01 0.  0.
     999903    2    3    3    0    0 -0.67739858708E-01  0.87408345527E-01 -0.62039939613E-01  0.12834089962E+00  0.19837466636E-01 0.  0.
         14    1    1    2    0    0 -0.15364029761E-01  0.58443274147E-02 -0.16517926455E-01  0.23303464717E-01  0.00000000000E+00 0.  1.
     999901    1    3    3    0    0  0.83103888469E-01 -0.93252672942E-01  0.78557866068E-01  0.89228563566E+00  0.88000000000E+00 0. -1.
        -11    1    4    4    0    0 -0.29314524157E-01  0.22723314392E-01 -0.19449221115E-01  0.41883453374E-01  0.51100000000E-03 0. -1.
         11    1    4    4    0    0 -0.38425334551E-01  0.64685031135E-01 -0.42590718498E-01  0.86457446246E-01  0.51100000000E-03 0.  1.
</event>
<event>
 8    1  0.1060404E+005  0.1043930E+01  0.7957747E-01            NaN
         13   -1    0    0    0    0  0.00000000000E+00  0.00000000000E+00  0.74505805969E-08  0.10566000000E+00  0.10566000000E+00 0. -1.
     999900   -1    0    0    0    0 -0.00000000000E+00 -0.00000000000E+00 -0.74505805969E-08  0.93827000000E+00  0.93827000000E+00 0.  1.
     999902    2    1    2    0    0 -0.77732620454E-02  0.14876895039E-01 -0.17344239144E-01  0.10197935496E+01  0.10195078791E+01 0.  0.
     999903    2    3    3    0    0 -0.94973926003E-01  0.89360484396E-01 -0.33169753268E-02  0.13224156515E+00  0.21713738431E-01 0.  0.
         14    1    1    2    0    0  0.77732620454E-02 -0.14876895039E-01  0.17344239144E-01  0.24136450450E-01  0.00000000000E+00 0. -1.
     999901    1    3    3    0    0  0.87200663958E-01 -0.74483589358E-01 -0.14027263817E-01  0.88755198440E+00  0.88000000000E+00 0.  1.
        -11    1    4    4    0    0 -0.29739489607E-01  0.39407849720E-01 -0.76528474915E-02  0.49962416448E-01  0.51100000000E-03 0. -1.
         11    1    4    4    0    0 -0.65234436397E-01  0.49952634677E-01  0.43358721647E-02  0.82279148705E-01  0.51100000000E-03 0.  1.
</event>
<event>
 8    1  0.1060404E+005  0.1043930E+01  0.7957747E-01            NaN
         13   -1    0    0    0    0  0.00000000000E+00  0.00000000000E+00  0.74505805969E-08  0.10566000000E+00  0.10566000000E+00 0. -1.
     999900   -1    0    0    0    0 -0.00000000000E+00 -0.00000000000E+00 -0.74505805969E-08  0.93827000000E+00  0.93827000000E+00 0.  1.
     999902    2    1    2    0    0  0.20084519124E-01 -0.19205422780E-02  0.14734888670E-01  0.10189461385E+01  0.10186397989E+01 0.  0.
     999903    2    3    3    0    0 -0.75475372641E-01 -0.37435531912E-01 -0.92299781334E-01  0.12661804414E+00  0.20369794885E-01 0.  0.
         14    1    1    2    0    0 -0.20084519124E-01  0.19205422780E-02 -0.14734888670E-01  0.24983861495E-01  0.00000000000E+00 0.  1.
     999901    1    3    3    0    0  0.95559891765E-01  0.35514989634E-01  0.10703467000E+00  0.89232809436E+00  0.88000000000E+00 0. -1.
        -11    1    4    4    0    0 -0.10676863306E-01 -0.89498527515E-02 -0.26647198403E-01  0.30073735685E-01  0.51100000000E-03 0.  1.
         11    1    4    4    0    0 -0.64798509335E-01 -0.28485679160E-01 -0.65652582931E-01  0.96544308459E-01  0.51100000000E-03 0. -1.
</event>
<event>
 8    1  0.1060404E+005  0.1043930E+01  0.7957747E-01            NaN
         13   -1    0    0    0    0  0.00000000000E+00  0.00000000000E+00  0.74505805969E-08  0.10566000000E+00  0.10566000000E+00 0. -1.
     999900   -1    0    0    0    0 -0.00000000000E+00 -0.00000000000E+00 -0.74505805969E-08  0.93827000000E+00  0.93827000000E+00 0.  1.
     999902    2    1    2    0    0  0.22605673614E-01  0.17270685442E-02  0.13648069806E-02  0.10212174056E+01  0.10209648023E+01 0.  0.
     999903    2    3    3    0    0 -0.28232782562E-01  0.59125953845E-01  0.11168243475E+00  0.13102127012E+00  0.20015957715E-01 0.  0.
         14    1    1    2    0    0 -0.22605673614E-01 -0.17270685442E-02 -0.13648069806E-02  0.22712594379E-01  0.00000000000E+00 0.  1.
     999901    1    3    3    0    0  0.50838456177E-01 -0.57398885301E-01 -0.11031762777E+00  0.89019613550E+00  0.88000000000E+00 0.  1.
        -11    1    4    4    0    0 -0.72229277561E-02  0.18157553226E-02  0.12533545787E-01  0.14588301607E-01  0.51100000000E-03 0. -1.
         11    1    4    4    0    0 -0.21009854806E-01  0.57310198523E-01  0.99148888964E-01  0.11643296852E+00  0.51100000000E-03 0.  1.
</event>
<event>
 8    1  0.1060404E+005  0.1043930E+01  0.7957747E-01            NaN
         13   -1    0    0    0    0  0.00000000000E+00  0.00000000000E+00  0.74505805969E-08  0.10566000000E+00  0.10566000000E+00 0.  1.
     999900   -1    0    0    0    0 -0.00000000000E+00 -0.00000000000E+00 -0.74505805969E-08  0.93827000000E+00  0.93827000000E+00 0. -1.
     999902    2    1    2    0    0  0.15026263425E-01  0.17936433935E-01  0.69783706825E-02  0.10195127538E+01  0.10192203163E+01 0.  0.
     999903    2    3    3    0    0  0.15140906226E-01  0.12872739143E+00 -0.17126996214E-01  0.13223843425E+00  0.19841399846E-01 0.  0.
         14    1    1    2    0    0 -0.15026263425E-01 -0.17936433935E-01 -0.69783706825E-02  0.24417246204E-01  0.00000000000E+00 0. -1.
     999901    1    3    3    0    0 -0.11464280167E-03 -0.11079095750E+00  0.24105366896E-01  0.88727431954E+00  0.88000000000E+00 0. -1.
        -11    1    4    4    0    0 -0.14078868996E-02  0.72153485327E-01 -0.10187317207E-01  0.72884498648E-01  0.51100000000E-03 0. -1.
         11    1    4    4    0    0  0.16548793126E-01  0.56573906107E-01 -0.69396790067E-02  0.59353935605E-01  0.51100000000E-03 0.  1.
</event>
<event>
 8    1  0.1060404E+005  0.1043930E+01  0.7957747E-01            NaN
         13   -1    0    0    0    0  0.00000000000E+00  0.00000000000E+00  0.74505805969E-08  0.10566000000E+00  0.10566000000E+00 0.  1.
     999900   -1    0    0    0    0 -0.00000000000E+00 -0.00000000000E+00 -0.74505805969E-08  0.93827000000E+00  0.93827000000E+00 0.  1.
     999902    2    1    2    0    0  0.10682724188E-01 -0.78681674134E-02 -0.18933351823E-01  0.10208107339E+01  0.10205488984E+01 0.  0.
     999903    2    3    3    0    0 -0.97187022622E-02  0.11087897122E+00  0.61875945063E-01  0.12893224238E+00  0.20156664306E-01 0.  0.
         14    1    1    2    0    0 -0.10682724188E-01  0.78681674134E-02  0.18933351823E-01  0.23119266117E-01  0.00000000000E+00 0.  1.
     999901    1    3    3    0    0  0.20401426450E-01 -0.11874713863E+00 -0.80809296887E-01  0.89187849150E+00  0.88000000000E+00 0. -1.
        -11    1    4    4    0    0 -0.13258646413E-01  0.72538410639E-01  0.48065039798E-01  0.88023416740E-01  0.51100000000E-03 0.  1.
         11    1    4    4    0    0  0.35399441512E-02  0.38340560582E-01  0.13810905265E-01  0.40908825644E-01  0.51100000000E-03 0. -1.
</event>
<event>
 8    1  0.1060404E+005  0.1043930E+01  0.7957747E-01            NaN
         13   -1    0    0    0    0  0.00000000000E+00  0.00000000000E+00  0.74505805969E-08  0.10566000000E+00  0.10566000000E+00 0.  1.
     999900   -1    0    0    0    0 -0.00000000000E+00 -0.00000000000E+00 -0.74505805969E-08  0.93827000000E+00  0.93827000000E+00 0.  1.
     999902    2    1    2    0    0  0.25048981484E-02  0.23405767852E-01 -0.56697307808E-02  0.10197173931E+01  0.10194298954E+01 0.  0.
     999903    2    3    3    0    0  0.10854159060E-01  0.13043345856E+00  0.12983568825E-01  0.13299726688E+00  0.19723084405E-01 0.  0.
         14    1    1    2    0    0 -0.25048981484E-02 -0.23405767852E-01  0.56697307808E-02  0.24212606852E-01  0.00000000000E+00 0.  1.
     999901    1    3    3    0    0 -0.83492609116E-02 -0.10702769071E+00 -0.18653299605E-01  0.88672012626E+00  0.88000000000E+00 0. -1.
        -11    1    4    4    0    0  0.14173998732E-01  0.71329658343E-01  0.12522402283E-01  0.73796301258E-01  0.51100000000E-03 0.  1.
         11    1    4    4    0    0 -0.33198396719E-02  0.59103800216E-01  0.46116654119E-03  0.59200965626E-01  0.51100000000E-03 0. -1.
</event>
<event>
 8    1  0.1060404E+005  0.1043930E+01  0.7957747E-01            NaN
         13   -1    0    0    0    0  0.00000000000E+00  0.00000000000E+00  0.74505805969E-08  0.10566000000E+00  0.10566000000E+00 0. -1.
     999900   -1    0    0    0    0 -0.00000000000E+00 -0.00000000000E+00 -0.74505805969E-08  0.93827000000E+00  0.93827000000E+00 0.  1.
     999902    2    1    2    0    0 -0.13294435788E-01  0.19910758916E-01 -0.13025177960E-02  0.10199534094E+01  0.10196715552E+01 0.  0.
     999903    2    3    3    0    0 -0.11169945382E+00 -0.49779068173E-01 -0.42237154539E-01  0.13078758458E+00  0.19149189099E-01 0.  0.
         14    1    1    2    0    0  0.13294435788E-01 -0.19910758916E-01  0.13025177960E-02  0.23976590587E-01  0.00000000000E+00 0. -1.
     999901    1    3    3    0    0  0.98405018034E-01  0.69689827089E-01  0.40934636743E-01  0.88916582484E+00  0.88000000000E+00 0. -1.
        -11    1    4    4    0    0 -0.39996048157E-01 -0.80076786090E-02 -0.14255925807E-01  0.43212258984E-01  0.51100000000E-03 0. -1.
         11    1    4    4    0    0 -0.71703405665E-01 -0.41771389564E-01 -0.27981228732E-01  0.87575325592E-01  0.51100000000E-03 0.  1.
</event>
<event>
 8    1  0.1060404E+005  0.1043930E+01  0.7957747E-01            NaN
         13   -1    0    0    0    0  0.00000000000E+00  0.00000000000E+00  0.74505805969E-08  0.10566000000E+00  0.10566000000E+00 0.  1.
     999900   -1    0    0    0    0 -0.00000000000E+00 -0.00000000000E+00 -0.74505805969E-08  0.93827000000E+00  0.93827000000E+00 0. -1.
     999902    2    1    2    0    0 -0.19452279307E-01  0.10471867256E-01 -0.10732775532E-01  0.10193689812E+01  0.10190730475E+01 0.  0.
     999903    2    3    3    0    0 -0.65674510507E-01  0.11282950856E-01 -0.11248775364E+00  0.13230008416E+00  0.20232924675E-01 0.  0.
         14    1    1    2    0    0  0.19452279307E-01 -0.10471867256E-01  0.10732775532E-01  0.24561018803E-01  0.00000000000E+00 0. -1.
     999901    1    3    3    0    0  0.46222231200E-01 -0.81108360021E-03  0.10175497811E+00  0.88706889703E+00  0.88000000000E+00 0.  1.
        -11    1    4    4    0    0 -0.49829169931E-01  0.13749800456E-01 -0.71057894635E-01  0.87872001796E-01  0.51100000000E-03 0.  1.
         11    1    4    4    0    0 -0.15845340575E-01 -0.24668496001E-02 -0.41429859003E-01  0.44428082368E-01  0.51100000000E-03 0. -1.
</event>
<event>
 8    1  0.1060404E+005  0.1043930E+01  0.7957747E-01            NaN
         13   -1    0    0    0    0  0.00000000000E+00  0.00000000000E+00  0.74505805969E-08  0.10566000000E+00  0.10566000000E+00 0. -1.
     999900   -1    0    0    0    0 -0.00000000000E+00 -0.00000000000E+00 -0.74505805969E-08  0.93827000000E+00  0.93827000000E+00 0. -1.
     999902    2    1    2    0    0 -0.17458286368E-01  0.16549528062E-01 -0.17871366861E-02  0.10198079665E+01  0.10195226413E+01 0.  0.
     999903    2    3    3    0    0  0.64854826336E-01 -0.22402040640E-01 -0.10704830738E+00  0.12886880625E+00  0.20972105025E-01 0.  0.
         14    1    1    2    0    0  0.17458286368E-01 -0.16549528062E-01  0.17871366861E-02  0.24122033487E-01  0.00000000000E+00 0. -1.
     999901    1    3    3    0    0 -0.82313112704E-01  0.38951568702E-01  0.10526117069E+00  0.89093916026E+00  0.88000000000E+00 0.  1.
        -11    1    4    4    0    0  0.25935606173E-01 -0.15087969050E-01 -0.31117614909E-01  0.43230423966E-01  0.51100000000E-03 0.  1.
         11    1    4    4    0    0  0.38919220163E-01 -0.73140715891E-02 -0.75930692469E-01  0.85638382289E-01  0.51100000000E-03 0. -1.
</event>
<event>
 8    1  0.1060404E+005  0.1043930E+01  0.7957747E-01            NaN
         13   -1    0    0    0    0  0.00000000000E+00  0.00000000000E+00  0.74505805969E-08  0.10566000000E+00  0.10566000000E+00 0. -1.
     999900   -1    0    0    0    0 -0.00000000000E+00 -0.00000000000E+00 -0.74505805969E-08  0.93827000000E+00  0.93827000000E+00 0. -1.
     999902    2    1    2    0    0  0.16427739665E-01  0.20226202874E-01 -0.35009879930E-02  0.10176388070E+01  0.10172991274E+01 0.  0.
     999903    2    3    3    0    0  0.93033925350E-01  0.74219734208E-01 -0.50609772316E-01  0.13140912644E+00  0.23305133496E-01 0.  0.
         14    1    1    2    0    0 -0.16427739665E-01 -0.20226202874E-01  0.35009879930E-02  0.26291193014E-01  0.00000000000E+00 0.  1.
     999901    1    3    3    0    0 -0.76606185685E-01 -0.53993531334E-01  0.47108784323E-01  0.88622968054E+00  0.88000000000E+00 0. -1.
        -11    1    4    4    0    0  0.82704455052E-01  0.72102877458E-01 -0.50657799125E-01  0.12085249504E+00  0.51100000000E-03 0. -1.
         11    1    4    4    0    0  0.10329470298E-01  0.21168567500E-02  0.48026809761E-04  0.10556631409E-01  0.51100000000E-03 0.  1.
</event>
<event>
 8    1  0.1060404E+005  0.1043930E+01  0.7957747E-01            NaN
         13   -1    0    0    0    0  0.00000000000E+00  0.00000000000E+00  0.74505805969E-08  0.10566000000E+00  0.10566000000E+00 0. -1.
     999900   -1    0    0    0    0 -0.00000000000E+00 -0.00000000000E+00 -0.74505805969E-08  0.93827000000E+00  0.93827000000E+00 0.  1.
     999902    2    1    2    0    0  0.15977749945E-02  0.77273864306E-02 -0.22198906208E-01  0.10203703561E+01  0.10200983319E+01 0.  0.
     999903    2    3    3    0    0 -0.68939868696E-01 -0.10378912223E+00 -0.33214023045E-01  0.13046428029E+00  0.19820941337E-01 0.  0.
         14    1    1    2    0    0 -0.15977749945E-02 -0.77273864306E-02  0.22198906208E-01  0.23559643945E-01  0.00000000000E+00 0. -1.
     999901    1    3    3    0    0  0.70537643690E-01  0.11151650866E+00  0.11015116838E-01  0.88990607576E+00  0.88000000000E+00 0. -1.
        -11    1    4    4    0    0 -0.67139965709E-02 -0.11999108599E-01 -0.10398072421E-01  0.17246373190E-01  0.51100000000E-03 0. -1.
         11    1    4    4    0    0 -0.62225872125E-01 -0.91790013634E-01 -0.22815950624E-01  0.11321790710E+00  0.51100000000E-03 0.  1.
</event>
<event>
 8    1  0.1060404E+005  0.1043930E+01  0.7957747E-01            NaN
         13   -1    0    0    0    0  0.00000000000E+00  0.00000000000E+00  0.74505805969E-08  0.10566000000E+00  0.10566000000E+00 0. -1.
     999900   -1    0    0    0    0 -0.00000000000E+00 -0.00000000000E+00 -0.74505805969E-08  0.93827000000E+00  0.93827000000E+00 0. -1.
     999902    2    1    2    0    0  0.14826418515E-01 -0.13277750200E-01 -0.13851798554E-01  0.10196814194E+01  0.10193930564E+01 0.  0.
     999903    2    3    3    0    0 -0.56136844435E-01 -0.98253602001E-01 -0.63485120549E-01  0.13135707173E+00  0.20474475616E-01 0.  0.
         14    1    1    2    0    0 -0.14826418515E-01  0.13277750200E-01  0.13851798554E-01  0.24248580567E-01  0.00000000000E+00 0. -1.
     999901    1    3    3    0    0  0.70963262951E-01  0.84975851801E-01  0.49633321995E-01  0.88832434771E+00  0.88000000000E+00 0.  1.
        -11    1    4    4    0    0 -0.28455409044E-01 -0.68862066117E-01 -0.43867658925E-01  0.86465756658E-01  0.51100000000E-03 0. -1.
         11    1    4    4    0    0 -0.27681435391E-01 -0.29391535883E-01 -0.19617461624E-01  0.44891315067E-01  0.51100000000E-03 0.  1.
</event>
<event>
 8    1  0.1060404E+005  0.1043930E+01  0.7957747E-01            NaN
         13   -1    0    0    0    0  0.00000000000E+00  0.00000000000E+00  0.74505805969E-08  0.10566000000E+00  0.10566000000E+00 0.  1.
     999900   -1    0    0    0    0 -0.00000000000E+00 -0.00000000000E+00 -0.74505805969E-08  0.93827000000E+00  0.93827000000E+00 0. -1.
     999902    2    1    2    0    0 -0.21951927576E-01  0.10224487867E-01 -0.24262047674E-02  0.10195925033E+01  0.10193019960E+01 0.  0.
     999903    2    3    3    0    0 -0.10978186565E+00 -0.67299043396E-01  0.17718376558E-01  0.13160049878E+00  0.20579872312E-01 0.  0.
         14    1    1    2    0    0  0.21951927576E-01 -0.10224487867E-01  0.24262047674E-02  0.24337496708E-01  0.00000000000E+00 0.  1.
     999901    1    3    3    0    0  0.87829938070E-01  0.77523531263E-01 -0.20144581325E-01  0.88799200451E+00  0.88000000000E+00 0. -1.
        -11    1    4    4    0    0 -0.64813312014E-01 -0.49428657248E-01  0.16658634044E-01  0.83196927713E-01  0.51100000000E-03 0. -1.
         11    1    4    4    0    0 -0.44968553632E-01 -0.17870386148E-01  0.10597425137E-02  0.48403571067E-01  0.51100000000E-03 0.  1.
</event>
<event>
 8    1  0.1060404E+005  0.1043930E+01  0.7957747E-01            NaN
         13   -1    0    0    0    0  0.00000000000E+00  0.00000000000E+00  0.74505805969E-08  0.10566000000E+00  0.10566000000E+00 0. -1.
     999900   -1    0    0    0    0 -0.00000000000E+00 -0.00000000000E+00 -0.74505805969E-08  0.93827000000E+00  0.93827000000E+00 0.  1.
     999902    2    1    2    0    0  0.16834529039E-01 -0.15675296743E-01  0.40168065170E-02  0.10205793891E+01  0.10203122259E+01 0.  0.
     999903    2    3    3    0    0  0.27998737529E-01  0.11568692291E+00  0.47599571557E-01  0.12969211803E+00  0.19670608308E-01 0.  0.
         14    1    1    2    0    0 -0.16834529039E-01  0.15675296743E-01 -0.40168065170E-02  0.23350610924E-01  0.00000000000E+00 0.  1.
     999901    1    3    3    0    0 -0.11164208490E-01 -0.13136221965E+00 -0.43582765040E-01  0.89088727105E+00  0.88000000000E+00 0. -1.
        -11    1    4    4    0    0  0.14828323860E-01  0.86728068905E-01  0.28059765421E-01  0.92353931594E-01  0.51100000000E-03 0.  1.
         11    1    4    4    0    0  0.13170413669E-01  0.28958854004E-01  0.19539806136E-01  0.37338186435E-01  0.51100000000E-03 0. -1.
</event>
<event>
 8    1  0.1060404E+005  0.1043930E+01  0.7957747E-01            NaN
         13   -1    0    0    0    0  0.00000000000E+00  0.00000000000E+00  0.74505805969E-08  0.10566000000E+00  0.10566000000E+00 0. -1.
     999900   -1    0    0    0    0 -0.00000000000E+00 -0.00000000000E+00 -0.74505805969E-08  0.93827000000E+00  0.93827000000E+00 0.  1.
     999902    2    1    2    0    0  0.76302674074E-02  0.13880660365E-01  0.18198737097E-01  0.10198035053E+01  0.10195180733E+01 0.  0.
     999903    2    3    3    0    0 -0.28390643261E-01  0.12448075867E+00 -0.22773162575E-01  0.13120427941E+00  0.19860969232E-01 0.  0.
         14    1    1    2    0    0 -0.76302674074E-02 -0.13880660365E-01 -0.18198737097E-01  0.24126494665E-01  0.00000000000E+00 0.  1.
     999901    1    3    3    0    0  0.36020910668E-01 -0.11060009830E+00  0.40971899673E-01  0.88859922592E+00  0.88000000000E+00 0. -1.
        -11    1    4    4    0    0  0.23758062967E-02  0.22003301260E-01 -0.21920665771E-02  0.22245359039E-01  0.51100000000E-03 0. -1.
         11    1    4    4    0    0 -0.30766449558E-01  0.10247745741E+00 -0.20581095998E-01  0.10895892037E+00  0.51100000000E-03 0.  1.
</event>
<event>
 8    1  0.1060404E+005  0.1043930E+01  0.7957747E-01            NaN
         13   -1    0    0    0    0  0.00000000000E+00  0.00000000000E+00  0.74505805969E-08  0.10566000000E+00  0.10566000000E+00 0. -1.
     999900   -1    0    0    0    0 -0.00000000000E+00 -0.00000000000E+00 -0.74505805969E-08  0.93827000000E+00  0.93827000000E+00 0. -1.
     999902    2    1    2    0    0 -0.78088149552E-02  0.15757306802E-01  0.14707146356E-01  0.10210046764E+01  0.10207472649E+01 0.  0.
     999903    2    3    3    0    0 -0.60635615860E-01  0.55615567620E-01  0.10431183608E+00  0.13398249388E+00  0.17337250294E-01 0.  0.
         14    1    1    2    0    0  0.78088149552E-02 -0.15757306802E-01 -0.14707146356E-01  0.22925323609E-01  0.00000000000E+00 0.  1.
     999901    1    3    3    0    0  0.52826800905E-01 -0.39858260818E-01 -0.89604689721E-01  0.88702218251E+00  0.88000000000E+00 0. -1.
        -11    1    4    4    0    0 -0.48444724367E-01  0.33893011570E-01  0.75355818673E-01  0.95783026060E-01  0.51100000000E-03 0.  1.
         11    1    4    4    0    0 -0.12190891493E-01  0.21722556050E-01  0.28956017404E-01  0.38199467819E-01  0.51100000000E-03 0. -1.
</event>
<event>
 8    1  0.1060404E+005  0.1043930E+01  0.7957747E-01            NaN
         13   -1    0    0    0    0  0.00000000000E+00  0.00000000000E+00  0.74505805969E-08  0.10566000000E+00  0.10566000000E+00 0.  1.
     999900   -1    0    0    0    0 -0.00000000000E+00 -0.00000000000E+00 -0.74505805969E-08  0.93827000000E+00  0.93827000000E+00 0.  1.
     999902    2    1    2    0    0  0.31791033093E-02 -0.21197252505E-01  0.97122749969E-02  0.10203979262E+01  0.10201265457E+01 0.  0.
     999903    2    3    3    0    0  0.11116767582E+00 -0.63719957652E-01  0.27758346379E-01  0.13259424692E+00  0.19804630073E-01 0.  0.
         14    1    1    2    0    0 -0.31791033093E-02  0.21197252505E-01 -0.97122749969E-02  0.23532073798E-01  0.00000000000E+00 0. -1.
     999901    1    3    3    0    0 -0.10798857251E+00  0.42522705147E-01 -0.18046071382E-01  0.88780367928E+00  0.88000000000E+00 0.  1.
        -11    1    4    4    0    0  0.88615457121E-01 -0.58778960906E-01  0.19784542637E-01  0.10816355548E+00  0.51100000000E-03 0. -1.
         11    1    4    4    0    0  0.22552218703E-01 -0.49409967466E-02  0.79738037416E-02  0.24430691443E-01  0.51100000000E-03 0.  1.
</event>
<event>
 8    1  0.1060404E+005  0.1043930E+01  0.7957747E-01            NaN
         13   -1    0    0    0    0  0.00000000000E+00  0.00000000000E+00  0.74505805969E-08  0.10566000000E+00  0.10566000000E+00 0.  1.
     999900   -1    0    0    0    0 -0.00000000000E+00 -0.00000000000E+00 -0.74505805969E-08  0.93827000000E+00  0.93827000000E+00 0.  1.
     999902    2    1    2    0    0 -0.30711310448E-06  0.21895557317E-01  0.94552434547E-02  0.10200801141E+01  0.10198012660E+01 0.  0.
     999903    2    3    3    0    0  0.61953488040E-01  0.11349548957E+00  0.26488000352E-01  0.13299559998E+00  0.16332624337E-01 0.  0.
         14    1    1    2    0    0  0.30711310447E-06 -0.21895557317E-01 -0.94552434547E-02  0.23849885935E-01  0.00000000000E+00 0. -1.
     999901    1    3    3    0    0 -0.61953795153E-01 -0.91599932255E-01 -0.17032756898E-01  0.88708451409E+00  0.88000000000E+00 0. -1.
        -11    1    4    4    0    0  0.42257894792E-01  0.91479099538E-01  0.19576299117E-01  0.10265304639E+00  0.51100000000E-03 0.  1.
         11    1    4    4    0    0  0.19695593248E-01  0.22016390034E-01  0.69117012349E-02  0.30342553592E-01  0.51100000000E-03 0. -1.
</event>
<event>
 8    1  0.1060404E+005  0.1043930E+01  0.7957747E-01            NaN
         13   -1    0    0    0    0  0.00000000000E+00  0.00000000000E+00  0.74505805969E-08  0.10566000000E+00  0.10566000000E+00 0. -1.
     999900   -1    0    0    0    0 -0.00000000000E+00 -0.00000000000E+00 -0.74505805969E-08  0.93827000000E+00  0.93827000000E+00 0.  1.
     999902    2    1    2    0    0  0.67363194869E-04  0.22492101208E-01  0.28107978621E-02  0.10212628489E+01  0.10210112667E+01 0.  0.
     999903    2    3    3    0    0 -0.68247560176E-01  0.10994443341E+00 -0.26969230376E-01  0.13379358788E+00  0.20685184663E-01 0.  0.
         14    1    1    2    0    0 -0.67363194869E-04 -0.22492101208E-01 -0.28107978621E-02  0.22667151104E-01  0.00000000000E+00 0. -1.
     999901    1    3    3    0    0  0.68314923371E-01 -0.87452332198E-01  0.29780028238E-01  0.88746926101E+00  0.88000000000E+00 0. -1.
        -11    1    4    4    0    0 -0.46546888506E-01  0.90969326495E-01 -0.22188946200E-01  0.10456883688E+00  0.51100000000E-03 0.  1.
         11    1    4    4    0    0 -0.21700671670E-01  0.18975106911E-01 -0.47802841759E-02  0.29224751000E-01  0.51100000000E-03 0. -1.
</event>
<event>
 8    1  0.1060404E+005  0.1043930E+01  0.7957747E-01            NaN
         13   -1    0    0    0    0  0.00000000000E+00  0.00000000000E+00  0.74505805969E-08  0.10566000000E+00  0.10566000000E+00 0.  1.
     999900   -1    0    0    0    0 -0.00000000000E+00 -0.00000000000E+00 -0.74505805969E-08  0.93827000000E+00  0.93827000000E+00 0.  1.
     999902    2    1    2    0    0 -0.24226991336E-02 -0.21111845375E-01 -0.98495443214E-02  0.10205079375E+01  0.10202391178E+01 0.  0.
     999903    2    3    3    0    0  0.43911647774E-01 -0.88195324603E-01  0.85249895064E-01  0.13163732364E+00  0.18819996694E-01 0.  0.
         14    1    1    2    0    0  0.24226991336E-02  0.21111845375E-01  0.98495443214E-02  0.23422062453E-01  0.00000000000E+00 0.  1.
     999901    1    3    3    0    0 -0.46334346908E-01  0.67083479229E-01 -0.95099439386E-01  0.88887061390E+00  0.88000000000E+00 0.  1.
        -11    1    4    4    0    0  0.45556240649E-01 -0.81321672607E-01  0.78936560820E-01  0.12214674475E+00  0.51100000000E-03 0. -1.
         11    1    4    4    0    0 -0.16445928742E-02 -0.68736519963E-02  0.63133342443E-02  0.94905788953E-02  0.51100000000E-03 0.  1.
</event>
<event>
 8    1  0.1060404E+005  0.1043930E+01  0.7957747E-01            NaN
         13   -1    0    0    0    0  0.00000000000E+00  0.00000000000E+00  0.74505805969E-08  0.10566000000E+00  0.10566000000E+00 0.  1.
     999900   -1    0    0    0    0 -0.00000000000E+00 -0.00000000000E+00 -0.74505805969E-08  0.93827000000E+00  0.93827000000E+00 0.  1.
     999902    2    1    2    0    0  0.81104937252E-04 -0.12125963374E-01 -0.19876481878E-01  0.10206465274E+01  0.10203809160E+01 0.  0.
     999903    2    3    3    0    0 -0.75615633554E-01  0.60995743386E-01  0.81759136064E-01  0.12856660996E+00  0.20164625399E-01 0.  0.
         14    1    1    2    0    0 -0.81104937252E-04  0.12125963374E-01  0.19876481878E-01  0.23283472628E-01  0.00000000000E+00 0.  1.
     999901    1    3    3    0    0  0.75696738491E-01 -0.73121706761E-01 -0.10163561794E+00  0.89207991741E+00  0.88000000000E+00 0. -1.
        -11    1    4    4    0    0 -0.43240249894E-01  0.44790370746E-01  0.43898758096E-01  0.76179121850E-01  0.51100000000E-03 0.  1.
         11    1    4    4    0    0 -0.32375383660E-01  0.16205372640E-01  0.37860377967E-01  0.52387488109E-01  0.51100000000E-03 0. -1.
</event>
<event>
 8    1  0.1060404E+005  0.1043930E+01  0.7957747E-01            NaN
         13   -1    0    0    0    0  0.00000000000E+00  0.00000000000E+00  0.74505805969E-08  0.10566000000E+00  0.10566000000E+00 0.  1.
     999900   -1    0    0    0    0 -0.00000000000E+00 -0.00000000000E+00 -0.74505805969E-08  0.93827000000E+00  0.93827000000E+00 0.  1.
     999902    2    1    2    0    0 -0.26832603560E-02 -0.90069335023E-02  0.22223577720E-01  0.10198009274E+01  0.10195154336E+01 0.  0.
     999903    2    3    3    0    0 -0.19176848942E-01  0.12479603470E+00  0.21332027762E-01  0.12953351387E+00  0.19546713134E-01 0.  0.
         14    1    1    2    0    0  0.26832603560E-02  0.90069335023E-02 -0.22223577720E-01  0.24129072587E-01  0.00000000000E+00 0. -1.
     999901    1    3    3    0    0  0.16493588585E-01 -0.13380296820E+00  0.89154995767E-03  0.89026741355E+00  0.88000000000E+00 0. -1.
        -11    1    4    4    0    0  0.80314971075E-03  0.36694811389E-01 -0.91380212350E-05  0.36707157842E-01  0.51100000000E-03 0. -1.
         11    1    4    4    0    0 -0.19979998652E-01  0.88101223308E-01  0.21341165783E-01  0.92826356023E-01  0.51100000000E-03 0.  1.
</event>
<event>
 8    1  0.1060404E+005  0.1043930E+01  0.7957747E-01            NaN
         13   -1    0    0    0    0  0.00000000000E+00  0.00000000000E+00  0.74505805969E-08  0.10566000000E+00  0.10566000000E+00 0. -1.
     999900   -1    0    0    0    0 -0.00000000000E+00 -0.00000000000E+00 -0.74505805969E-08  0.93827000000E+00  0.93827000000E+00 0.  1.
     999902    2    1    2    0    0  0.73790806349E-02  0.19336650440E-01  0.10671313113E-01  0.10206440857E+01  0.10203784180E+01 0.  0.
     999903    2    3    3    0    0  0.64100838528E-01  0.80580966005E-01 -0.80373197247E-01  0.13201743357E+00  0.19145295729E-01 0.  0.
         14    1    1    2    0    0 -0.73790806349E-02 -0.19336650440E-01 -0.10671313113E-01  0.23285914301E-01  0.00000000000E+00 0.  1.
     999901    1    3    3    0    0 -0.56721757893E-01 -0.61244315564E-01  0.91044510360E-01  0.88862665213E+00  0.88000000000E+00 0. -1.
        -11    1    4    4    0    0  0.36382759425E-01  0.31031191848E-01 -0.40059267809E-01  0.62383059473E-01  0.51100000000E-03 0.  1.
         11    1    4    4    0    0  0.27718079103E-01  0.49549774157E-01 -0.40313929439E-01  0.69634374097E-01  0.51100000000E-03 0. -1.
</event>
<event>
 8    1  0.1060404E+005  0.1043930E+01  0.7957747E-01            NaN
         13   -1    0    0    0    0  0.00000000000E+00  0.00000000000E+00  0.74505805969E-08  0.10566000000E+00  0.10566000000E+00 0.  1.
     999900   -1    0    0    0    0 -0.00000000000E+00 -0.00000000000E+00 -0.74505805969E-08  0.93827000000E+00  0.93827000000E+00 0. -1.
     999902    2    1    2    0    0  0.16386383417E-01 -0.15947237917E-01 -0.68291982355E-02  0.10200665152E+01  0.10197873452E+01 0.  0.
     999903    2    3    3    0    0  0.54203954036E-01 -0.11964049736E+00  0.66061726248E-04  0.13314486966E+00  0.21809051144E-01 0.  0.
         14    1    1    2    0    0 -0.16386383417E-01  0.15947237917E-01  0.68291982355E-02  0.23863484808E-01  0.00000000000E+00 0.  1.
     999901    1    3    3    0    0 -0.37817570619E-01  0.10369325944E+00 -0.68952599617E-02  0.88692164553E+00  0.88000000000E+00 0.  1.
        -11    1    4    4    0    0  0.73849994356E-02 -0.79055247430E-02 -0.49160781470E-02  0.11893884289E-01  0.51100000000E-03 0.  1.
         11    1    4    4    0    0  0.46818954600E-01 -0.11173497261E+00  0.49821398733E-02  0.12125098537E+00  0.51100000000E-03 0. -1.
</event>
<event>
 8    1  0.1060404E+005  0.1043930E+01  0.7957747E-01            NaN
         13   -1    0    0    0    0  0.00000000000E+00  0.00000000000E+00  0.74505805969E-08  0.10566000000E+00  0.10566000000E+00 0.  1.
     999900   -1    0    0    0    0 -0.00000000000E+00 -0.00000000000E+00 -0.74505805969E-08  0.93827000000E+00  0.93827000000E+00 0. -1.
     999902    2    1    2    0    0 -0.32491520531E-02  0.67210316800E-02  0.22148262517E-01  0.10205574779E+01  0.10202898073E+01 0.  0.
     999903    2    3    3    0    0 -0.52295839551E-01  0.89048840289E-01  0.81817461204E-01  0.13334619593E+00  0.20556269575E-01 0.  0.
         14    1    1    2    0    0  0.32491520531E-02 -0.67210316800E-02 -0.22148262517E-01  0.23372522081E-01  0.00000000000E+00 0. -1.
     999901    1    3    3    0    0  0.49046687497E-01 -0.82327808609E-01 -0.59669198687E-01  0.88721128199E+00  0.88000000000E+00 0. -1.
        -11    1    4    4    0    0 -0.29978793929E-01  0.31653483266E-01  0.30898908377E-01  0.53438513717E-01  0.51100000000E-03 0.  1.
         11    1    4    4    0    0 -0.22317045621E-01  0.57395357022E-01  0.50918552827E-01  0.79907682209E-01  0.51100000000E-03 0. -1.
</event>
<event>
 8    1  0.1060404E+005  0.1043930E+01  0.7957747E-01            NaN
         13   -1    0    0    0    0  0.00000000000E+00  0.00000000000E+00  0.74505805969E-08  0.10566000000E+00  0.10566000000E+00 0.  1.
     999900   -1    0    0    0    0 -0.00000000000E+00 -0.00000000000E+00 -0.74505805969E-08  0.93827000000E+00  0.93827000000E+00 0. -1.
     999902    2    1    2    0    0 -0.31320086584E-02  0.73509284631E-02  0.22414202728E-01  0.10201341577E+01  0.10198565868E+01 0.  0.
     999903    2    3    3    0    0  0.50782785356E-01 -0.10908632574E+00 -0.41859230394E-01  0.12850894865E+00  0.16841524935E-01 0.  0.
         14    1    1    2    0    0  0.31320086584E-02 -0.73509284631E-02 -0.22414202728E-01  0.23795842314E-01  0.00000000000E+00 0. -1.
     999901    1    3    3    0    0 -0.53914794015E-01  0.11643725420E+00  0.64273433123E-01  0.89162520903E+00  0.88000000000E+00 0.  1.
        -11    1    4    4    0    0  0.27223931124E-01 -0.57246535061E-01 -0.30890124730E-01  0.70517863901E-01  0.51100000000E-03 0.  1.
         11    1    4    4    0    0  0.23558854232E-01 -0.51839790680E-01 -0.10969105665E-01  0.57991084750E-01  0.51100000000E-03 0. -1.
</event>
<event>
 8    1  0.1060404E+005  0.1043930E+01  0.7957747E-01            NaN
         13   -1    0    0    0    0  0.00000000000E+00  0.00000000000E+00  0.74505805969E-08  0.10566000000E+00  0.10566000000E+00 0.  1.
     999900   -1    0    0    0    0 -0.00000000000E+00 -0.00000000000E+00 -0.74505805969E-08  0.93827000000E+00  0.93827000000E+00 0. -1.
     999902    2    1    2    0    0 -0.14587974430E-01 -0.16741999483E-01 -0.20448477541E-01  0.10137431854E+01  0.10132936406E+01 0.  0.
     999903    2    3    3    0    0  0.90027687140E-02  0.10248304824E+00  0.61601135514E-01  0.12160907314E+00  0.20254425508E-01 0.  0.
         14    1    1    2    0    0  0.14587974430E-01  0.16741999483E-01  0.20448477541E-01  0.30186814645E-01  0.00000000000E+00 0. -1.
     999901    1    3    3    0    0 -0.23590743144E-01 -0.11922504773E+00 -0.82049613055E-01  0.89213411221E+00  0.88000000000E+00 0. -1.
        -11    1    4    4    0    0  0.11169876897E-01  0.26183104022E-01  0.18409034876E-01  0.33903904970E-01  0.51100000000E-03 0. -1.
         11    1    4    4    0    0 -0.21671081829E-02  0.76299944221E-01  0.43192100638E-01  0.87705168175E-01  0.51100000000E-03 0.  1.
</event>
<event>
 8    1  0.1060404E+005  0.1043930E+01  0.7957747E-01            NaN
         13   -1    0    0    0    0  0.00000000000E+00  0.00000000000E+00  0.74505805969E-08  0.10566000000E+00  0.10566000000E+00 0. -1.
     999900   -1    0    0    0    0 -0.00000000000E+00 -0.00000000000E+00 -0.74505805969E-08  0.93827000000E+00  0.93827000000E+00 0. -1.
     999902    2    1    2    0    0 -0.12113816071E-01  0.15029575311E-02 -0.17517937894E-01  0.10225786167E+01  0.10223556846E+01 0.  0.
     999903    2    3    3    0    0 -0.47372228361E-01 -0.79883463387E-01  0.90322358323E-01  0.13156995532E+00  0.22957111916E-01 0.  0.
         14    1    1    2    0    0  0.12113816071E-01 -0.15029575311E-02  0.17517937894E-01  0.21351383309E-01  0.00000000000E+00 0. -1.
     999901    1    3    3    0    0  0.35258412290E-01  0.81386420918E-01 -0.10784029622E+00  0.89100866137E+00  0.88000000000E+00 0. -1.
        -11    1    4    4    0    0 -0.14494213333E-01 -0.32987178632E-01  0.21226284606E-01  0.41821674446E-01  0.51100000000E-03 0. -1.
         11    1    4    4    0    0 -0.32878015028E-01 -0.46896284755E-01  0.69096073717E-01  0.89748280875E-01  0.51100000000E-03 0.  1.
</event>
<event>
 8    1  0.1060404E+005  0.1043930E+01  0.7957747E-01            NaN
         13   -1    0    0    0    0  0.00000000000E+00  0.00000000000E+00  0.74505805969E-08  0.10566000000E+00  0.10566000000E+00 0.  1.
     999900   -1    0    0    0    0 -0.00000000000E+00 -0.00000000000E+00 -0.74505805969E-08  0.93827000000E+00  0.93827000000E+00 0. -1.
     999902    2    1    2    0    0  0.65047234989E-02  0.20395143653E-01 -0.97190062374E-02  0.10204197385E+01  0.10201488668E+01 0.  0.
     999903    2    3    3    0    0  0.17175881783E-01 -0.12402981370E+00 -0.22663704137E-01  0.12848924396E+00  0.17816754133E-01 0.  0.
         14    1    1    2    0    0 -0.65047234989E-02 -0.20395143653E-01  0.97190062374E-02  0.23510261476E-01  0.00000000000E+00 0.  1.
     999901    1    3    3    0    0 -0.10671158284E-01  0.14442495735E+00  0.12944697900E-01  0.89193049456E+00  0.88000000000E+00 0.  1.
        -11    1    4    4    0    0  0.15505414288E-01 -0.72646728431E-01 -0.20362287868E-01  0.77024988881E-01  0.51100000000E-03 0.  1.
         11    1    4    4    0    0  0.16704674957E-02 -0.51383085267E-01 -0.23014162695E-02  0.51464255081E-01  0.51100000000E-03 0. -1.
</event>
<event>
 8    1  0.1060404E+005  0.1043930E+01  0.7957747E-01            NaN
         13   -1    0    0    0    0  0.00000000000E+00  0.00000000000E+00  0.74505805969E-08  0.10566000000E+00  0.10566000000E+00 0. -1.
     999900   -1    0    0    0    0 -0.00000000000E+00 -0.00000000000E+00 -0.74505805969E-08  0.93827000000E+00  0.93827000000E+00 0.  1.
     999902    2    1    2    0    0 -0.16708335627E-01 -0.14627491904E-02  0.18519891595E-01  0.10189441140E+01  0.10186377241E+01 0.  0.
     999903    2    3    3    0    0 -0.93668079681E-01  0.42873433425E-01  0.80540910942E-01  0.13230151061E+00  0.20124883375E-01 0.  0.
         14    1    1    2    0    0  0.16708335627E-01  0.14627491904E-02 -0.18519891595E-01  0.24985886002E-01  0.00000000000E+00 0.  1.
     999901    1    3    3    0    0  0.76959744054E-01 -0.44336182616E-01 -0.62021019348E-01  0.88664260338E+00  0.88000000000E+00 0.  1.
        -11    1    4    4    0    0 -0.73418464249E-01  0.24340210513E-01  0.56210350402E-01  0.95616846601E-01  0.51100000000E-03 0.  1.
         11    1    4    4    0    0 -0.20249615431E-01  0.18533222912E-01  0.24330560540E-01  0.36684664014E-01  0.51100000000E-03 0. -1.
</event>
<event>
 8    1  0.1060404E+005  0.1043930E+01  0.7957747E-01            NaN
         13   -1    0    0    0    0  0.00000000000E+00  0.00000000000E+00  0.74505805969E-08  0.10566000000E+00  0.10566000000E+00 0. -1.
     999900   -1    0    0    0    0 -0.00000000000E+00 -0.00000000000E+00 -0.74505805969E-08  0.93827000000E+00  0.93827000000E+00 0. -1.
     999902    2    1    2    0    0 -0.15936212223E-01  0.10150132779E-01  0.89842551013E-02  0.10230086020E+01  0.10227946494E+01 0.  0.
     999903    2    3    3    0    0  0.81694978857E-01  0.73429621982E-01 -0.70087245116E-01  0.13183609041E+00  0.20063744717E-01 0.  0.
         14    1    1    2    0    0  0.15936212223E-01 -0.10150132779E-01 -0.89842551013E-02  0.20921398022E-01  0.00000000000E+00 0.  1.
     999901    1    3    3    0    0 -0.97631191081E-01 -0.63279489203E-01  0.79071500218E-01  0.89117251157E+00  0.88000000000E+00 0. -1.
        -11    1    4    4    0    0  0.21464893204E-01  0.32057754304E-01 -0.23538150729E-01  0.45196757760E-01  0.51100000000E-03 0. -1.
         11    1    4    4    0    0  0.60230085654E-01  0.41371867677E-01 -0.46549094387E-01  0.86639332651E-01  0.51100000000E-03 0.  1.
</event>
<event>
 8    1  0.1060404E+005  0.1043930E+01  0.7957747E-01            NaN
         13   -1    0    0    0    0  0.00000000000E+00  0.00000000000E+00  0.74505805969E-08  0.10566000000E+00  0.10566000000E+00 0. -1.
     999900   -1    0    0    0    0 -0.00000000000E+00 -0.00000000000E+00 -0.74505805969E-08  0.93827000000E+00  0.93827000000E+00 0. -1.
     999902    2    1    2    0    0 -0.20170618191E-01  0.10019617454E-01  0.40777225807E-02  0.10210416975E+01  0.10207851260E+01 0.  0.
     999903    2    3    3    0    0 -0.11219435140E+00  0.24194532794E-01  0.65701990979E-01  0.13398654350E+00  0.21510330472E-01 0.  0.
         14    1    1    2    0    0  0.20170618191E-01 -0.10019617454E-01 -0.40777225807E-02  0.22888302549E-01  0.00000000000E+00 0.  1.
     999901    1    3    3    0    0  0.92023733208E-01 -0.14174915340E-01 -0.61624268399E-01  0.88705515395E+00  0.88000000000E+00 0. -1.
        -11    1    4    4    0    0 -0.73849341114E-01  0.22382534030E-01  0.52728182134E-01  0.93462427342E-01  0.51100000000E-03 0.  1.
         11    1    4    4    0    0 -0.38345010285E-01  0.18119987646E-02  0.12973808846E-01  0.40524116156E-01  0.51100000000E-03 0. -1.
</event>
<event>
 8    1  0.1080720E+005  0.1043930E+01  0.7957747E-01            NaN
         13   -1    0    0    0    0  0.00000000000E+00  0.00000000000E+00  0.74505805969E-08  0.10566000000E+00  0.10566000000E+00 0.  1.
     999900   -1    0    0    0    0 -0.00000000000E+00 -0.00000000000E+00 -0.74505805969E-08  0.93827000000E+00  0.93827000000E+00 0.  1.
     999902    2    1    2    0    0  0.10672564138E-02 -0.55337718383E-03 -0.19124269994E-01  0.10247679812E+01  0.10245888113E+01 0.  0.
     999903    2    3    3    0    0 -0.11625157180E+00  0.43139211891E-01 -0.51402522109E-01  0.13532172909E+00  0.17156093275E-01 0.  0.
         14    1    1    2    0    0 -0.10672564138E-02  0.55337718383E-03  0.19124269994E-01  0.19162018823E-01  0.00000000000E+00 0.  1.
     999901    1    3    3    0    0  0.11731882821E+00 -0.43692589075E-01  0.32278252115E-01  0.88944625209E+00  0.88000000000E+00 0. -1.
        -11    1    4    4    0    0 -0.68291965593E-01  0.16477998325E-01 -0.30769580203E-01  0.76696448290E-01  0.51100000000E-03 0. -1.
         11    1    4    4    0    0 -0.47959606205E-01  0.26661213566E-01 -0.20632941906E-01  0.58625280800E-01  0.51100000000E-03 0.  1.
</event>
<event>
 8    1  0.1060404E+005  0.1043930E+01  0.7957747E-01            NaN
         13   -1    0    0    0    0  0.00000000000E+00  0.00000000000E+00  0.74505805969E-08  0.10566000000E+00  0.10566000000E+00 0. -1.
     999900   -1    0    0    0    0 -0.00000000000E+00 -0.00000000000E+00 -0.74505805969E-08  0.93827000000E+00  0.93827000000E+00 0.  1.
     999902    2    1    2    0    0  0.11256531463E-01  0.13437525057E-01 -0.15650772771E-01  0.10204305688E+01  0.10201599494E+01 0.  0.
     999903    2    3    3    0    0 -0.39499808290E-01 -0.92533823698E-01 -0.80401458201E-01  0.13026272838E+00  0.19525381975E-01 0.  0.
         14    1    1    2    0    0 -0.11256531463E-01 -0.13437525057E-01  0.15650772771E-01  0.23499431240E-01  0.00000000000E+00 0. -1.
     999901    1    3    3    0    0  0.50756339753E-01  0.10597134876E+00  0.64750685429E-01  0.89016784038E+00  0.88000000000E+00 0.  1.
        -11    1    4    4    0    0 -0.39983395490E-02 -0.25393490726E-01 -0.13455421835E-01  0.29019400203E-01  0.51100000000E-03 0. -1.
         11    1    4    4    0    0 -0.35501468741E-01 -0.67140332972E-01 -0.66946036366E-01  0.10124332818E+00  0.51100000000E-03 0.  1.
</event>
<event>
 8    1  0.1116715E+005  0.1043930E+01  0.7957747E-01            NaN
         13   -1    0    0    0    0  0.00000000000E+00  0.00000000000E+00  0.74505805969E-08  0.10566000000E+00  0.10566000000E+00 0. -1.
     999900   -1    0    0    0    0 -0.00000000000E+00 -0.00000000000E+00 -0.74505805969E-08  0.93827000000E+00  0.93827000000E+00 0.  1.
     999902    2    1    2    0    0  0.13040272874E-01  0.16963310165E-01  0.13089591580E-01  0.10188473363E+01  0.10185385387E+01 0.  0.
     999903    2    3    3    0    0  0.33321412376E-01  0.50395478129E-01 -0.11250727910E+00  0.12907005612E+00  0.18739551715E-01 0.  0.
         14    1    1    2    0    0 -0.13040272874E-01 -0.16963310165E-01 -0.13089591580E-01  0.25082663656E-01  0.00000000000E+00 0.  1.
     999901    1    3    3    0    0 -0.20281139503E-01 -0.33432167965E-01  0.12559687068E+00  0.88977728022E+00  0.88000000000E+00 0. -1.
        -11    1    4    4    0    0  0.19649607581E-01  0.14265157442E-01 -0.50012304596E-01  0.55597603607E-01  0.51100000000E-03 0.  1.
         11    1    4    4    0    0  0.13671804795E-01  0.36130320688E-01 -0.62494974503E-01  0.73472452515E-01  0.51100000000E-03 0. -1.
</event>
<event>
 8    1  0.1060404E+005  0.1043930E+01  0.7957747E-01            NaN
         13   -1    0    0    0    0  0.00000000000E+00  0.00000000000E+00  0.74505805969E-08  0.10566000000E+00  0.10566000000E+00 0.  1.
     999900   -1    0    0    0    0 -0.00000000000E+00 -0.00000000000E+00 -0.74505805969E-08  0.93827000000E+00  0.93827000000E+00 0.  1.
     999902    2    1    2    0    0  0.21040910599E-04 -0.22626746492E-01 -0.63440655168E-02  0.10204306965E+01  0.10201600801E+01 0.  0.
     999903    2    3    3    0    0 -0.65029892915E-01 -0.21658871147E-01  0.10926704282E+00  0.13048772686E+00  0.19742505956E-01 0.  0.
         14    1    1    2    0    0 -0.21040910599E-04  0.22626746492E-01  0.63440655168E-02  0.23499303539E-01  0.00000000000E+00 0.  1.
     999901    1    3    3    0    0  0.65050933826E-01 -0.96787534501E-03 -0.11561110834E+00  0.88994296960E+00  0.88000000000E+00 0.  1.
        -11    1    4    4    0    0 -0.39875989925E-01 -0.21026651854E-01  0.80510656646E-01  0.92273731990E-01  0.51100000000E-03 0. -1.
         11    1    4    4    0    0 -0.25153902990E-01 -0.63221929274E-03  0.28756386177E-01  0.38213994868E-01  0.51100000000E-03 0.  1.
</event>
<event>
 8    1  0.1060404E+005  0.1043930E+01  0.7957747E-01            NaN
         13   -1    0    0    0    0  0.00000000000E+00  0.00000000000E+00  0.74505805969E-08  0.10566000000E+00  0.10566000000E+00 0.  1.
     999900   -1    0    0    0    0 -0.00000000000E+00 -0.00000000000E+00 -0.74505805969E-08  0.93827000000E+00  0.93827000000E+00 0. -1.
     999902    2    1    2    0    0  0.17474869405E-02  0.19186104692E-01 -0.14277898489E-01  0.10199504523E+01  0.10196685277E+01 0.  0.
     999903    2    3    3    0    0  0.77078502219E-01  0.59126069595E-01  0.84045060185E-01  0.13037900103E+00  0.22318695282E-01 0.  0.
         14    1    1    2    0    0 -0.17474869405E-02 -0.19186104692E-01  0.14277898489E-01  0.23979547726E-01  0.00000000000E+00 0. -1.
     999901    1    3    3    0    0 -0.75331015278E-01 -0.39939964903E-01 -0.98322958674E-01  0.88957145124E+00  0.88000000000E+00 0. -1.
        -11    1    4    4    0    0  0.31085460194E-01  0.34094942226E-01  0.29498945844E-01  0.54765133505E-01  0.51100000000E-03 0. -1.
         11    1    4    4    0    0  0.45993042025E-01  0.25031127369E-01  0.54546114341E-01  0.75613867530E-01  0.51100000000E-03 0.  1.
</event>
<event>
 8    1  0.1060404E+005  0.1043930E+01  0.7957747E-01            NaN
         13   -1    0    0    0    0  0.00000000000E+00  0.00000000000E+00  0.74505805969E-08  0.10566000000E+00  0.10566000000E+00 0.  1.
     999900   -1    0    0    0    0 -0.00000000000E+00 -0.00000000000E+00 -0.74505805969E-08  0.93827000000E+00  0.93827000000E+00 0.  1.
     999902    2    1    2    0    0 -0.62342181265E-02 -0.21363001784E-01 -0.10324738257E-01  0.10193975003E+01  0.10191022618E+01 0.  0.
     999903    2    3    3    0    0  0.31714622978E-01 -0.65007682778E-01  0.10562432294E+00  0.12990935676E+00  0.22093601939E-01 0.  0.
         14    1    1    2    0    0  0.62342181265E-02  0.21363001784E-01  0.10324738257E-01  0.24532499688E-01  0.00000000000E+00 0.  1.
     999901    1    3    3    0    0 -0.37948841105E-01  0.43644680994E-01 -0.11594906120E+00  0.88948814355E+00  0.88000000000E+00 0.  1.
        -11    1    4    4    0    0  0.10235173239E-01 -0.28370489896E-01  0.62409397632E-01  0.69316935174E-01  0.51100000000E-03 0.  1.
         11    1    4    4    0    0  0.21479449740E-01 -0.36637192882E-01  0.43214925312E-01  0.60592421590E-01  0.51100000000E-03 0. -1.
</event>
<event>
 8    1  0.1060404E+005  0.1043930E+01  0.7957747E-01            NaN
         13   -1    0    0    0    0  0.00000000000E+00  0.00000000000E+00  0.74505805969E-08  0.10566000000E+00  0.10566000000E+00 0. -1.
     999900   -1    0    0    0    0 -0.00000000000E+00 -0.00000000000E+00 -0.74505805969E-08  0.93827000000E+00  0.93827000000E+00 0. -1.
     999902    2    1    2    0    0 -0.17516132212E-01 -0.47920371835E-03  0.19315714354E-01  0.10178504804E+01  0.10175163188E+01 0.  0.
     999903    2    3    3    0    0  0.95507317152E-01 -0.30102530981E-01 -0.72565262094E-01  0.12538537994E+00  0.20687344905E-01 0.  0.
         14    1    1    2    0    0  0.17516132212E-01  0.47920371835E-03 -0.19315714354E-01  0.26079519644E-01  0.00000000000E+00 0.  1.
     999901    1    3    3    0    0 -0.11302344936E+00  0.29623327263E-01  0.91880976448E-01  0.89246510041E+00  0.88000000000E+00 0.  1.
        -11    1    4    4    0    0  0.55027847842E-01 -0.14463432287E-01 -0.28885189404E-01  0.63811207477E-01  0.51100000000E-03 0. -1.
         11    1    4    4    0    0  0.40479469309E-01 -0.15639098694E-01 -0.43680072690E-01  0.61574172465E-01  0.51100000000E-03 0.  1.
</event>
<event>
 8    1  0.1060404E+005  0.1043930E+01  0.7957747E-01            NaN
         13   -1    0    0    0    0  0.00000000000E+00  0.00000000000E+00  0.74505805969E-08  0.10566000000E+00  0.10566000000E+00 0. -1.
     999900   -1    0    0    0    0 -0.00000000000E+00 -0.00000000000E+00 -0.74505805969E-08  0.93827000000E+00  0.93827000000E+00 0. -1.
     999902    2    1    2    0    0  0.78416839302E-02 -0.30615001320E-02  0.19223905880E-01  0.10229437343E+01  0.10227284391E+01 0.  0.
     999903    2    3    3    0    0  0.14122611465E-01 -0.11715445118E+00 -0.56326982039E-01  0.13234585189E+00  0.20447054085E-01 0.  0.
         14    1    1    2    0    0 -0.78416839302E-02  0.30615001320E-02 -0.19223905880E-01  0.20986265681E-01  0.00000000000E+00 0.  1.
     999901    1    3    3    0    0 -0.62809275351E-02  0.11409295104E+00  0.75550887919E-01  0.89059788243E+00  0.88000000000E+00 0.  1.
        -11    1    4    4    0    0  0.94341201107E-02 -0.73383260641E-01 -0.46012014648E-01  0.87129054727E-01  0.51100000000E-03 0. -1.
         11    1    4    4    0    0  0.46884913547E-02 -0.43771190536E-01 -0.10314967391E-01  0.45216797160E-01  0.51100000000E-03 0.  1.
</event>
<event>
 8    1  0.1060404E+005  0.1043930E+01  0.7957747E-01            NaN
         13   -1    0    0    0    0  0.00000000000E+00  0.00000000000E+00  0.74505805969E-08  0.10566000000E+00  0.10566000000E+00 0. -1.
     999900   -1    0    0    0    0 -0.00000000000E+00 -0.00000000000E+00 -0.74505805969E-08  0.93827000000E+00  0.93827000000E+00 0. -1.
     999902    2    1    2    0    0 -0.19685550497E-01 -0.69975788592E-03 -0.11735292241E-01  0.10210012485E+01  0.10207437592E+01 0.  0.
     999903    2    3    3    0    0  0.56026641333E-01  0.66240456585E-01 -0.96378012794E-01  0.13118232401E+00  0.19831746164E-01 0.  0.
         14    1    1    2    0    0  0.19685550497E-01  0.69975788592E-03  0.11735292241E-01  0.22928751459E-01  0.00000000000E+00 0. -1.
     999901    1    3    3    0    0 -0.75712191830E-01 -0.66940214471E-01  0.84642720553E-01  0.88981892453E+00  0.88000000000E+00 0.  1.
        -11    1    4    4    0    0  0.47141452291E-01  0.55833318243E-01 -0.68679185809E-01  0.10028343649E+00  0.51100000000E-03 0. -1.
         11    1    4    4    0    0  0.88851890426E-02  0.10407138342E-01 -0.27698826985E-01  0.30898887523E-01  0.51100000000E-03 0.  1.
</event>
<event>
 8    1  0.1060404E+005  0.1043930E+01  0.7957747E-01            NaN
         13   -1    0    0    0    0  0.00000000000E+00  0.00000000000E+00  0.74505805969E-08  0.10566000000E+00  0.10566000000E+00 0.  1.
     999900   -1    0    0    0    0 -0.00000000000E+00 -0.00000000000E+00 -0.74505805969E-08  0.93827000000E+00  0.93827000000E+00 0. -1.
     999902    2    1    2    0    0  0.11943797116E-02  0.11948858985E-01  0.20339836355E-01  0.10203098663E+01  0.10200364271E+01 0.  0.
     999903    2    3    3    0    0  0.10067563827E-01  0.95546713516E-01 -0.85299612748E-01  0.13001383243E+00  0.19925922413E-01 0.  0.
         14    1    1    2    0    0 -0.11943797116E-02 -0.11948858985E-01 -0.20339836355E-01  0.23620133718E-01  0.00000000000E+00 0. -1.
     999901    1    3    3    0    0 -0.88731841149E-02 -0.83597854531E-01  0.10563944910E+00  0.89029603385E+00  0.88000000000E+00 0.  1.
        -11    1    4    4    0    0  0.15834765627E-01  0.59794168101E-01 -0.51901040129E-01  0.80746897333E-01  0.51100000000E-03 0.  1.
         11    1    4    4    0    0 -0.57672018010E-02  0.35752545415E-01 -0.33398572619E-01  0.49266935101E-01  0.51100000000E-03 0. -1.
</event>
<event>
 8    1  0.1060404E+005  0.1043930E+01  0.7957747E-01            NaN
         13   -1    0    0    0    0  0.00000000000E+00  0.00000000000E+00  0.74505805969E-08  0.10566000000E+00  0.10566000000E+00 0.  1.
     999900   -1    0    0    0    0 -0.00000000000E+00 -0.00000000000E+00 -0.74505805969E-08  0.93827000000E+00  0.93827000000E+00 0. -1.
     999902    2    1    2    0    0 -0.89478173134E-02  0.10215024122E-01  0.19561487560E-01  0.10201169374E+01  0.10198389599E+01 0.  0.
     999903    2    3    3    0    0 -0.78387572193E-01 -0.99199013747E-01  0.28067952891E-01  0.13058578499E+00  0.16726669109E-01 0.  0.
         14    1    1    2    0    0  0.89478173134E-02 -0.10215024122E-01 -0.19561487560E-01  0.23813062551E-01  0.00000000000E+00 0. -1.
     999901    1    3    3    0    0  0.69439754879E-01  0.10941403787E+00 -0.85064653309E-02  0.88953115246E+00  0.88000000000E+00 0. -1.
        -11    1    4    4    0    0 -0.70452141720E-01 -0.81057637706E-01  0.27054749531E-01  0.11075227084E+00  0.51100000000E-03 0. -1.
         11    1    4    4    0    0 -0.79354304727E-02 -0.18141376041E-01  0.10132033602E-02  0.19833514149E-01  0.51100000000E-03 0.  1.
</event>
<event>
 8    1  0.1060404E+005  0.1043930E+01  0.7957747E-01            NaN
         13   -1    0    0    0    0  0.00000000000E+00  0.00000000000E+00  0.74505805969E-08  0.10566000000E+00  0.10566000000E+00 0. -1.
     999900   -1    0    0    0    0 -0.00000000000E+00 -0.00000000000E+00 -0.74505805969E-08  0.93827000000E+00  0.93827000000E+00 0.  1.
     999902    2    1    2    0    0 -0.17785100372E-01  0.14970642791E-01 -0.10459244904E-01  0.10184383201E+01  0.10181192396E+01 0.  0.
     999903    2    3    3    0    0 -0.15110270226E-01  0.10426552972E+00  0.73176698186E-01  0.12997014253E+00  0.20923380209E-01 0.  0.
         14    1    1    2    0    0  0.17785100372E-01 -0.14970642791E-01  0.10459244904E-01  0.25491679913E-01  0.00000000000E+00 0. -1.
     999901    1    3    3    0    0 -0.26748301462E-02 -0.89294886927E-01 -0.83635943089E-01  0.88846817755E+00  0.88000000000E+00 0.  1.
        -11    1    4    4    0    0 -0.35608932790E-02  0.76787567506E-01  0.45712590638E-01  0.89436639853E-01  0.51100000000E-03 0. -1.
         11    1    4    4    0    0 -0.11549376947E-01  0.27477962212E-01  0.27464107548E-01  0.40533502681E-01  0.51100000000E-03 0.  1.
</event>
<event>
 8    1  0.1060404E+005  0.1043930E+01  0.7957747E-01            NaN
         13   -1    0    0    0    0  0.00000000000E+00  0.00000000000E+00  0.74505805969E-08  0.10566000000E+00  0.10566000000E+00 0. -1.
     999900   -1    0    0    0    0 -0.00000000000E+00 -0.00000000000E+00 -0.74505805969E-08  0.93827000000E+00  0.93827000000E+00 0. -1.
     999902    2    1    2    0    0  0.55755919127E-03  0.20763094327E-01  0.10134077221E-01  0.10208190398E+01  0.10205573946E+01 0.  0.
     999903    2    3    3    0    0 -0.20641848558E-01 -0.12131502389E+00  0.25007571768E-01  0.12904730481E+00  0.29738986177E-01 0.  0.
         14    1    1    2    0    0 -0.55755919127E-03 -0.20763094327E-01 -0.10134077221E-01  0.23110960158E-01  0.00000000000E+00 0.  1.
     999901    1    3    3    0    0  0.21199407749E-01  0.14207811822E+00 -0.14873494547E-01  0.89177173503E+00  0.88000000000E+00 0.  1.
        -11    1    4    4    0    0 -0.28979810717E-02 -0.26163028277E-01  0.18216578533E-01  0.32015733590E-01  0.51100000000E-03 0.  1.
         11    1    4    4    0    0 -0.17743867487E-01 -0.95151995615E-01  0.67909932357E-02  0.97031571218E-01  0.51100000000E-03 0. -1.
</event>
<event>
 8    1  0.1116603E+005  0.1043930E+01  0.7957747E-01            NaN
         13   -1    0    0    0    0  0.00000000000E+00  0.00000000000E+00  0.74505805969E-08  0.10566000000E+00  0.10566000000E+00 0. -1.
     999900   -1    0    0    0    0 -0.00000000000E+00 -0.00000000000E+00 -0.74505805969E-08  0.93827000000E+00  0.93827000000E+00 0.  1.
     999902    2    1    2    0    0 -0.10136634388E-01 -0.36110600999E-02  0.20944362470E-01  0.10203830802E+01  0.10201113532E+01 0.  0.
     999903    2    3    3    0    0  0.31018260885E-01  0.48483123108E-01  0.11780732709E+00  0.13258244762E+00  0.19667062978E-01 0.  0.
         14    1    1    2    0    0  0.10136634388E-01  0.36110600999E-02 -0.20944362470E-01  0.23546919778E-01  0.00000000000E+00 0. -1.
     999901    1    3    3    0    0 -0.41154895272E-01 -0.52094183208E-01 -0.96862964622E-01  0.88780063260E+00  0.88000000000E+00 0.  1.
        -11    1    4    4    0    0  0.51112341518E-03  0.12850244320E-01  0.36629019096E-01  0.38824427712E-01  0.51100000000E-03 0.  1.
         11    1    4    4    0    0  0.30507137469E-01  0.35632878788E-01  0.81178307997E-01  0.93758019910E-01  0.51100000000E-03 0. -1.
</event>
<event>
 8    1  0.1060404E+005  0.1043930E+01  0.7957747E-01            NaN
         13   -1    0    0    0    0  0.00000000000E+00  0.00000000000E+00  0.74505805969E-08  0.10566000000E+00  0.10566000000E+00 0. -1.
     999900   -1    0    0    0    0 -0.00000000000E+00 -0.00000000000E+00 -0.74505805969E-08  0.93827000000E+00  0.93827000000E+00 0. -1.
     999902    2    1    2    0    0 -0.13209607718E-01  0.16547020076E-01  0.10741380596E-01  0.10201881621E+01  0.10199118644E+01 0.  0.
     999903    2    3    3    0    0  0.23780251018E-01  0.12678608924E+00 -0.19933502207E-01  0.13200921029E+00  0.19719896708E-01 0.  0.
         14    1    1    2    0    0  0.13209607718E-01 -0.16547020076E-01 -0.10741380596E-01  0.23741837893E-01  0.00000000000E+00 0. -1.
     999901    1    3    3    0    0 -0.36989858736E-01 -0.11023906917E+00  0.30674882803E-01  0.88817895182E+00  0.88000000000E+00 0. -1.
        -11    1    4    4    0    0  0.13636884305E-01  0.10966150443E+00 -0.15235609872E-01  0.11155265616E+00  0.51100000000E-03 0. -1.
         11    1    4    4    0    0  0.10143366713E-01  0.17124584814E-01 -0.46978923348E-02  0.20456554126E-01  0.51100000000E-03 0.  1.
</event>
<event>
 8    1  0.1060404E+005  0.1043930E+01  0.7957747E-01            NaN
         13   -1    0    0    0    0  0.00000000000E+00  0.00000000000E+00  0.74505805969E-08  0.10566000000E+00  0.10566000000E+00 0.  1.
     999900   -1    0    0    0    0 -0.00000000000E+00 -0.00000000000E+00 -0.74505805969E-08  0.93827000000E+00  0.93827000000E+00 0. -1.
     999902    2    1    2    0    0 -0.11970757390E-01 -0.16685723933E-01 -0.11258011376E-01  0.10205108788E+01  0.10202421274E+01 0.  0.
     999903    2    3    3    0    0  0.11239926187E+00 -0.61933023623E-01 -0.12526721885E-01  0.13061378960E+00  0.20826660532E-01 0.  0.
         14    1    1    2    0    0  0.11970757390E-01  0.16685723933E-01  0.11258011376E-01  0.23419121158E-01  0.00000000000E+00 0.  1.
     999901    1    3    3    0    0 -0.12437001926E+00  0.45247299691E-01  0.12687105092E-02  0.88989708924E+00  0.88000000000E+00 0. -1.
        -11    1    4    4    0    0  0.89614208218E-01 -0.39797355314E-01 -0.64522876843E-02  0.98267130527E-01  0.51100000000E-03 0.  1.
         11    1    4    4    0    0  0.22785053647E-01 -0.22135668309E-01 -0.60744342009E-02  0.32346659071E-01  0.51100000000E-03 0. -1.
</event>
<event>
 8    1  0.1216237E+005  0.1043930E+01  0.7957747E-01            NaN
         13   -1    0    0    0    0  0.00000000000E+00  0.00000000000E+00  0.74505805969E-08  0.10566000000E+00  0.10566000000E+00 0. -1.
     999900   -1    0    0    0    0 -0.00000000000E+00 -0.00000000000E+00 -0.74505805969E-08  0.93827000000E+00  0.93827000000E+00 0.  1.
     999902    2    1    2    0    0  0.24223095219E-03 -0.12727868958E-01 -0.20839133292E-01  0.10195101966E+01  0.10192176971E+01 0.  0.
     999903    2    3    3    0    0  0.63981196699E-01  0.56343372382E-01  0.92906794718E-01  0.12722569693E+00  0.16927383475E-01 0.  0.
         14    1    1    2    0    0 -0.24223095219E-03  0.12727868958E-01  0.20839133292E-01  0.24419803447E-01  0.00000000000E+00 0. -1.
     999901    1    3    3    0    0 -0.63738965747E-01 -0.69071241340E-01 -0.11374592801E+00  0.89228449963E+00  0.88000000000E+00 0.  1.
        -11    1    4    4    0    0  0.14206783334E-01  0.19127751563E-01  0.34545099860E-01  0.41968185783E-01  0.51100000000E-03 0.  1.
         11    1    4    4    0    0  0.49774413365E-01  0.37215620819E-01  0.58361694858E-01  0.85257511144E-01  0.51100000000E-03 0. -1.
</event>
<event>
 8    1  0.1060404E+005  0.1043930E+01  0.7957747E-01            NaN
         13   -1    0    0    0    0  0.00000000000E+00  0.00000000000E+00  0.74505805969E-08  0.10566000000E+00  0.10566000000E+00 0. -1.
     999900   -1    0    0    0    0 -0.00000000000E+00 -0.00000000000E+00 -0.74505805969E-08  0.93827000000E+00  0.93827000000E+00 0.  1.
     999902    2    1    2    0    0 -0.76179309768E-02  0.15045555326E-01 -0.17955101596E-01  0.10192969474E+01  0.10189992540E+01 0.  0.
     999903    2    3    3    0    0 -0.20037021353E-01 -0.82922031971E-01 -0.96566731437E-01  0.13029094611E+00  0.19314538762E-01 0.  0.
         14    1    1    2    0    0  0.76179309768E-02 -0.15045555326E-01  0.17955101596E-01  0.24633052607E-01  0.00000000000E+00 0. -1.
     999901    1    3    3    0    0  0.12419090376E-01  0.97967587297E-01  0.78611629841E-01  0.88900600128E+00  0.88000000000E+00 0. -1.
        -11    1    4    4    0    0 -0.45320431664E-02 -0.54719329218E-01 -0.66558872528E-01  0.86284929383E-01  0.51100000000E-03 0. -1.
         11    1    4    4    0    0 -0.15504978187E-01 -0.28202702752E-01 -0.30007858908E-01  0.44006016729E-01  0.51100000000E-03 0.  1.
</event>
<event>
 8    1  0.1060404E+005  0.1043930E+01  0.7957747E-01            NaN
         13   -1    0    0    0    0  0.00000000000E+00  0.00000000000E+00  0.74505805969E-08  0.10566000000E+00  0.10566000000E+00 0.  1.
     999900   -1    0    0    0    0 -0.00000000000E+00 -0.00000000000E+00 -0.74505805969E-08  0.93827000000E+00  0.93827000000E+00 0.  1.
     999902    2    1    2    0    0  0.11910634809E-01 -0.88805891083E-02 -0.18699059584E-01  0.10200473093E+01  0.10197676845E+01 0.  0.
     999903    2    3    3    0    0  0.10111842634E+00 -0.35865729786E-02  0.79299787546E-01  0.13010920433E+00  0.20053655425E-01 0.  0.
         14    1    1    2    0    0 -0.11910634809E-01  0.88805891083E-02  0.18699059584E-01  0.23882690673E-01  0.00000000000E+00 0.  1.
     999901    1    3    3    0    0 -0.89207791534E-01 -0.52940161297E-02 -0.97998847130E-01  0.88993810499E+00  0.88000000000E+00 0.  1.
        -11    1    4    4    0    0  0.25931129005E-01  0.40234903407E-02  0.11786526906E-01  0.28771431377E-01  0.51100000000E-03 0.  1.
         11    1    4    4    0    0  0.75187297339E-01 -0.76100633193E-02  0.67513260640E-01  0.10133777296E+00  0.51100000000E-03 0. -1.
</event>
<event>
 8    1  0.1060404E+005  0.1043930E+01  0.7957747E-01            NaN
         13   -1    0    0    0    0  0.00000000000E+00  0.00000000000E+00  0.74505805969E-08  0.10566000000E+00  0.10566000000E+00 0.  1.
     999900   -1    0    0    0    0 -0.00000000000E+00 -0.00000000000E+00 -0.74505805969E-08  0.93827000000E+00  0.93827000000E+00 0.  1.
     999902    2    1    2    0    0 -0.18293976712E-01 -0.25801037456E-02  0.14602826944E-01  0.10203807097E+01  0.10201089273E+01 0.  0.
     999903    2    3    3    0    0 -0.31243764320E-01  0.11033574413E-01  0.12723074489E+00  0.13300363249E+00  0.20109481282E-01 0.  0.
         14    1    1    2    0    0  0.18293976712E-01  0.25801037456E-02 -0.14602826944E-01  0.23549290309E-01  0.00000000000E+00 0. -1.
     999901    1    3    3    0    0  0.12949787608E-01 -0.13613678159E-01 -0.11262791795E+00  0.88737707720E+00  0.88000000000E+00 0.  1.
        -11    1    4    4    0    0 -0.14057886255E-02  0.85880900289E-02  0.24878213858E-01  0.26361300760E-01  0.51100000000E-03 0.  1.
         11    1    4    4    0    0 -0.29837975694E-01  0.24454843842E-02  0.10235253104E+00  0.10664233173E+00  0.51100000000E-03 0. -1.
</event>
<event>
 8    1  0.1060404E+005  0.1043930E+01  0.7957747E-01            NaN
         13   -1    0    0    0    0  0.00000000000E+00  0.00000000000E+00  0.74505805969E-08  0.10566000000E+00  0.10566000000E+00 0.  1.
     999900   -1    0    0    0    0 -0.00000000000E+00 -0.00000000000E+00 -0.74505805969E-08  0.93827000000E+00  0.93827000000E+00 0.  1.
     999902    2    1    2    0    0 -0.78785658691E-02  0.19477170004E-01 -0.80294887469E-02  0.10214376760E+01  0.10211900025E+01 0.  0.
     999903    2    3    3    0    0 -0.11090468377E+00 -0.17812129895E-02 -0.70422167968E-01  0.13297881577E+00  0.20519797744E-01 0.  0.
         14    1    1    2    0    0  0.78785658691E-02 -0.19477170004E-01  0.80294887469E-02  0.22492324047E-01  0.00000000000E+00 0.  1.
     999901    1    3    3    0    0  0.10302611791E+00  0.21258382993E-01  0.62392679221E-01  0.88845886018E+00  0.88000000000E+00 0. -1.
        -11    1    4    4    0    0 -0.57923718980E-01  0.92568085734E-02 -0.37851833749E-01  0.69813094507E-01  0.51100000000E-03 0.  1.
         11    1    4    4    0    0 -0.52980964794E-01 -0.11038021563E-01 -0.32570334219E-01  0.63165721262E-01  0.51100000000E-03 0. -1.
</event>
<event>
 8    1  0.1060404E+005  0.1043930E+01  0.7957747E-01            NaN
         13   -1    0    0    0    0  0.00000000000E+00  0.00000000000E+00  0.74505805969E-08  0.10566000000E+00  0.10566000000E+00 0.  1.
     999900   -1    0    0    0    0 -0.00000000000E+00 -0.00000000000E+00 -0.74505805969E-08  0.93827000000E+00  0.93827000000E+00 0. -1.
     999902    2    1    2    0    0  0.16263388109E-01  0.13886950308E-01 -0.19479349872E-01  0.10150026729E+01  0.10145903783E+01 0.  0.
     999903    2    3    3    0    0 -0.43409471381E-01  0.26300198845E-01 -0.11545543438E+00  0.12768855282E+00  0.19958119363E-01 0.  0.
         14    1    1    2    0    0 -0.16263388109E-01 -0.13886950308E-01  0.19479349872E-01  0.28927327099E-01  0.00000000000E+00 0.  1.
     999901    1    3    3    0    0  0.59672859491E-01 -0.12413248537E-01  0.95976084507E-01  0.88731412008E+00  0.88000000000E+00 0.  1.
        -11    1    4    4    0    0 -0.33372602538E-01  0.24508534796E-01 -0.72075097911E-01  0.83123280360E-01  0.51100000000E-03 0. -1.
         11    1    4    4    0    0 -0.10036868844E-01  0.17916640489E-02 -0.43380336468E-01  0.44565272459E-01  0.51100000000E-03 0.  1.
</event>
<event>
 8    1  0.1060404E+005  0.1043930E+01  0.7957747E-01            NaN
         13   -1    0    0    0    0  0.00000000000E+00  0.00000000000E+00  0.74505805969E-08  0.10566000000E+00  0.10566000000E+00 0. -1.
     999900   -1    0    0    0    0 -0.00000000000E+00 -0.00000000000E+00 -0.74505805969E-08  0.93827000000E+00  0.93827000000E+00 0. -1.
     999902    2    1    2    0    0 -0.13969798735E-01 -0.19441692902E-01 -0.73650157185E-02  0.10188824820E+01  0.10185745599E+01 0.  0.
     999903    2    3    3    0    0  0.11715021818E+00  0.40458434617E-01 -0.19180990999E-01  0.12707527115E+00  0.20473289200E-01 0.  0.
         14    1    1    2    0    0  0.13969798735E-01  0.19441692902E-01  0.73650157185E-02  0.25047517963E-01  0.00000000000E+00 0. -1.
     999901    1    3    3    0    0 -0.13112001692E+00 -0.59900127518E-01  0.11815975281E-01  0.89180721088E+00  0.88000000000E+00 0. -1.
        -11    1    4    4    0    0  0.57858684644E-01  0.10610269760E-01 -0.14141118593E-01  0.60501550138E-01  0.51100000000E-03 0. -1.
         11    1    4    4    0    0  0.59291533540E-01  0.29848164856E-01 -0.50398724066E-02  0.66573721014E-01  0.51100000000E-03 0.  1.
</event>
<event>
 8    1  0.1060404E+005  0.1043930E+01  0.7957747E-01            NaN
         13   -1    0    0    0    0  0.00000000000E+00  0.00000000000E+00  0.74505805969E-08  0.10566000000E+00  0.10566000000E+00 0.  1.
     999900   -1    0    0    0    0 -0.00000000000E+00 -0.00000000000E+00 -0.74505805969E-08  0.93827000000E+00  0.93827000000E+00 0. -1.
     999902    2    1    2    0    0  0.12884734888E-01 -0.15438054425E-01 -0.12714381401E-01  0.10201391318E+01  0.10198616782E+01 0.  0.
     999903    2    3    3    0    0  0.11297113209E+00  0.62614464918E-01  0.61050649574E-02  0.13083397927E+00  0.19930138242E-01 0.  0.
         14    1    1    2    0    0 -0.12884734888E-01  0.15438054425E-01  0.12714381401E-01  0.23790868247E-01  0.00000000000E+00 0.  1.
     999901    1    3    3    0    0 -0.10008639720E+00 -0.78052519343E-01 -0.18819446358E-01  0.88930515249E+00  0.88000000000E+00 0.  1.
        -11    1    4    4    0    0  0.98299893345E-01  0.61532609604E-01  0.54089217899E-02  0.11609758237E+00  0.51100000000E-03 0.  1.
         11    1    4    4    0    0  0.14671238742E-01  0.10818553139E-02  0.69614316745E-03  0.14736396895E-01  0.51100000000E-03 0. -1.
</event>
<event>
 8    1  0.1060404E+005  0.1043930E+01  0.7957747E-01            NaN
         13   -1    0    0    0    0  0.00000000000E+00  0.00000000000E+00  0.74505805969E-08  0.10566000000E+00  0.10566000000E+00 0.  1.
     999900   -1    0    0    0    0 -0.00000000000E+00 -0.00000000000E+00 -0.74505805969E-08  0.93827000000E+00  0.93827000000E+00 0. -1.
     999902    2    1    2    0    0  0.18589908047E-01 -0.13773169792E-01  0.43102986514E-02  0.10203956939E+01  0.10201242614E+01 0.  0.
     999903    2    3    3    0    0  0.59992021499E-01 -0.10015312491E-01 -0.11482084034E+00  0.13139598372E+00  0.19537912756E-01 0.  0.
         14    1    1    2    0    0 -0.18589908047E-01  0.13773169792E-01 -0.43102986514E-02  0.23534306061E-01  0.00000000000E+00 0.  1.
     999901    1    3    3    0    0 -0.41402113452E-01 -0.37578573008E-02  0.11913113899E+00  0.88899971022E+00  0.88000000000E+00 0.  1.
        -11    1    4    4    0    0  0.55313667278E-01 -0.14707057843E-01 -0.10298340226E+00  0.11782080291E+00  0.51100000000E-03 0. -1.
         11    1    4    4    0    0  0.46783542210E-02  0.46917453511E-02 -0.11837438080E-01  0.13575180807E-01  0.51100000000E-03 0.  1.
</event>
<event>
 8    1  0.1060404E+005  0.1043930E+01  0.7957747E-01            NaN
         13   -1    0    0    0    0  0.00000000000E+00  0.00000000000E+00  0.74505805969E-08  0.10566000000E+00  0.10566000000E+00 0. -1.
     999900   -1    0    0    0    0 -0.00000000000E+00 -0.00000000000E+00 -0.74505805969E-08  0.93827000000E+00  0.93827000000E+00 0. -1.
     999902    2    1    2    0    0 -0.18347700309E-02  0.90602731888E-02  0.21043768647E-01  0.10209453284E+01  0.10206865672E+01 0.  0.
     999903    2    3    3    0    0  0.11336872334E+00  0.23141185406E-01  0.61706051320E-01  0.13239395776E+00  0.18235717355E-01 0.  0.
         14    1    1    2    0    0  0.18347700309E-02 -0.90602731888E-02 -0.21043768647E-01  0.22984671636E-01  0.00000000000E+00 0.  1.
     999901    1    3    3    0    0 -0.11520349337E+00 -0.14080912217E-01 -0.40662282673E-01  0.88855137061E+00  0.88000000000E+00 0. -1.
        -11    1    4    4    0    0  0.79544683581E-01  0.19518670808E-01  0.34684303311E-01  0.88947159669E-01  0.51100000000E-03 0. -1.
         11    1    4    4    0    0  0.33824039760E-01  0.36225145978E-02  0.27021748009E-01  0.43446798089E-01  0.51100000000E-03 0.  1.
</event>
<event>
 8    1  0.1060404E+005  0.1043930E+01  0.7957747E-01            NaN
         13   -1    0    0    0    0  0.00000000000E+00  0.00000000000E+00  0.74505805969E-08  0.10566000000E+00  0.10566000000E+00 0.  1.
     999900   -1    0    0    0    0 -0.00000000000E+00 -0.00000000000E+00 -0.74505805969E-08  0.93827000000E+00  0.93827000000E+00 0. -1.
     999902    2    1    2    0    0  0.21861042658E-01  0.26257677158E-02 -0.80262697164E-02  0.10204945387E+01  0.10202254077E+01 0.  0.
     999903    2    3    3    0    0 -0.94481287854E-01 -0.79503450382E-01  0.29072733442E-01  0.12827422823E+00  0.19014242552E-01 0.  0.
         14    1    1    2    0    0 -0.21861042658E-01 -0.26257677158E-02  0.80262697164E-02  0.23435461330E-01  0.00000000000E+00 0. -1.
     999901    1    3    3    0    0  0.11634233051E+00  0.82129218098E-01 -0.37099003158E-01  0.89222031044E+00  0.88000000000E+00 0. -1.
        -11    1    4    4    0    0 -0.68546420630E-01 -0.46667625083E-01  0.16204446370E-01  0.84494521806E-01  0.51100000000E-03 0.  1.
         11    1    4    4    0    0 -0.25934867224E-01 -0.32835825299E-01  0.12868287072E-01  0.43779706419E-01  0.51100000000E-03 0. -1.
</event>
<event>
 8    1  0.1060404E+005  0.1043930E+01  0.7957747E-01            NaN
         13   -1    0    0    0    0  0.00000000000E+00  0.00000000000E+00  0.74505805969E-08  0.10566000000E+00  0.10566000000E+00 0.  1.
     999900   -1    0    0    0    0 -0.00000000000E+00 -0.00000000000E+00 -0.74505805969E-08  0.93827000000E+00  0.93827000000E+00 0.  1.
     999902    2    1    2    0    0 -0.92604328562E-02  0.25530074101E-02  0.21242339506E-01  0.10206166894E+01  0.10203503889E+01 0.  0.
     999903    2    3    3    0    0  0.72508114010E-01  0.94263604430E-02 -0.10342552817E+00  0.12804993253E+00  0.18805915930E-01 0.  0.
         14    1    1    2    0    0  0.92604328562E-02 -0.25530074101E-02 -0.21242339506E-01  0.23313310602E-01  0.00000000000E+00 0. -1.
     999901    1    3    3    0    0 -0.81768546866E-01 -0.68733530329E-02  0.12466786768E+00  0.89256675687E+00  0.88000000000E+00 0. -1.
        -11    1    4    4    0    0  0.57831606968E-01  0.11233349091E-02 -0.71762371910E-01  0.92172966692E-01  0.51100000000E-03 0.  1.
         11    1    4    4    0    0  0.14676507042E-01  0.83030255339E-02 -0.31663156264E-01  0.35876965835E-01  0.51100000000E-03 0. -1.
</event>
<event>
 8    1  0.1060404E+005  0.1043930E+01  0.7957747E-01            NaN
         13   -1    0    0    0    0  0.00000000000E+00  0.00000000000E+00  0.74505805969E-08  0.10566000000E+00  0.10566000000E+00 0.  1.
     999900   -1    0    0    0    0 -0.00000000000E+00 -0.00000000000E+00 -0.74505805969E-08  0.93827000000E+00  0.93827000000E+00 0.  1.
     999902    2    1    2    0    0  0.44702200764E-02 -0.79886396209E-03 -0.22105461787E-01  0.10213629335E+01  0.10211135928E+01 0.  0.
     999903    2    3    3    0    0 -0.74218551157E-01 -0.86045360367E-01 -0.66342465029E-01  0.13264711819E+00  0.16785050520E-01 0.  0.
         14    1    1    2    0    0 -0.44702200764E-02  0.79886396209E-03  0.22105461787E-01  0.22567066535E-01  0.00000000000E+00 0.  1.
     999901    1    3    3    0    0  0.78688771233E-01  0.85246496405E-01  0.44237003242E-01  0.88871581528E+00  0.88000000000E+00 0. -1.
        -11    1    4    4    0    0 -0.20589561335E-01 -0.25940039120E-01 -0.28282270993E-01  0.43554146060E-01  0.51100000000E-03 0. -1.
         11    1    4    4    0    0 -0.53628989822E-01 -0.60105321247E-01 -0.38060194037E-01  0.89092972128E-01  0.51100000000E-03 0.  1.
</event>
<event>
 8    1  0.1060404E+005  0.1043930E+01  0.7957747E-01            NaN
         13   -1    0    0    0    0  0.00000000000E+00  0.00000000000E+00  0.74505805969E-08  0.10566000000E+00  0.10566000000E+00 0.  1.
     999900   -1    0    0    0    0 -0.00000000000E+00 -0.00000000000E+00 -0.74505805969E-08  0.93827000000E+00  0.93827000000E+00 0. -1.
     999902    2    1    2    0    0 -0.89657938478E-02  0.64762413832E-02  0.21879342344E-01  0.10194140300E+01  0.10191191941E+01 0.  0.
     999903    2    3    3    0    0 -0.12638770414E+00  0.24389390752E-01 -0.11620276744E-01  0.13080218541E+00  0.20136701227E-01 0.  0.
         14    1    1    2    0    0  0.89657938478E-02 -0.64762413832E-02 -0.21879342344E-01  0.24515969962E-01  0.00000000000E+00 0. -1.
     999901    1    3    3    0    0  0.11742191029E+00 -0.17913149368E-01  0.33499619088E-01  0.88861184463E+00  0.88000000000E+00 0.  1.
        -11    1    4    4    0    0 -0.92654136388E-01  0.24976339154E-01 -0.13986632881E-01  0.96976767979E-01  0.51100000000E-03 0. -1.
         11    1    4    4    0    0 -0.33733567754E-01 -0.58694840258E-03  0.23663561370E-02  0.33825417429E-01  0.51100000000E-03 0.  1.
</event>
<event>
 8    1  0.1060404E+005  0.1043930E+01  0.7957747E-01            NaN
         13   -1    0    0    0    0  0.00000000000E+00  0.00000000000E+00  0.74505805969E-08  0.10566000000E+00  0.10566000000E+00 0. -1.
     999900   -1    0    0    0    0 -0.00000000000E+00 -0.00000000000E+00 -0.74505805969E-08  0.93827000000E+00  0.93827000000E+00 0. -1.
     999902    2    1    2    0    0 -0.21011465158E-01  0.64945629634E-02  0.93518390617E-02  0.10200319266E+01  0.10197519372E+01 0.  0.
     999903    2    3    3    0    0 -0.66737833558E-01  0.10580645495E+00  0.39575377747E-01  0.13275112839E+00  0.20191761437E-01 0.  0.
         14    1    1    2    0    0  0.21011465158E-01 -0.64945629634E-02 -0.93518390617E-02  0.23898073353E-01  0.00000000000E+00 0. -1.
     999901    1    3    3    0    0  0.45726368401E-01 -0.99311891982E-01 -0.30223538685E-01  0.88728079825E+00  0.88000000000E+00 0. -1.
        -11    1    4    4    0    0 -0.52899766560E-01  0.80143062257E-01  0.21383409389E-01  0.98380928275E-01  0.51100000000E-03 0. -1.
         11    1    4    4    0    0 -0.13838066998E-01  0.25663392689E-01  0.18191968358E-01  0.34370200120E-01  0.51100000000E-03 0.  1.
</event>
<event>
 8    1  0.1060404E+005  0.1043930E+01  0.7957747E-01            NaN
         13   -1    0    0    0    0  0.00000000000E+00  0.00000000000E+00  0.74505805969E-08  0.10566000000E+00  0.10566000000E+00 0.  1.
     999900   -1    0    0    0    0 -0.00000000000E+00 -0.00000000000E+00 -0.74505805969E-08  0.93827000000E+00  0.93827000000E+00 0. -1.
     999902    2    1    2    0    0 -0.19565674952E-01  0.34786614026E-02 -0.61855886686E-02  0.10231170658E+01  0.10229053486E+01 0.  0.
     999903    2    3    3    0    0  0.23407089859E-01  0.88148825687E-01  0.93825478945E-01  0.13237697530E+00  0.20058309119E-01 0.  0.
         14    1    1    2    0    0  0.19565674952E-01 -0.34786614026E-02  0.61855886686E-02  0.20812934168E-01  0.00000000000E+00 0. -1.
     999901    1    3    3    0    0 -0.42972764811E-01 -0.84670164285E-01 -0.10001106761E+00  0.89074009053E+00  0.88000000000E+00 0. -1.
        -11    1    4    4    0    0  0.19094691056E-01  0.58215919188E-01  0.49763585979E-01  0.78932731385E-01  0.51100000000E-03 0.  1.
         11    1    4    4    0    0  0.43123988033E-02  0.29932906499E-01  0.44061892966E-01  0.53444243915E-01  0.51100000000E-03 0. -1.
</event>
<event>
 8    1  0.1060404E+005  0.1043930E+01  0.7957747E-01            NaN
         13   -1    0    0    0    0  0.00000000000E+00  0.00000000000E+00  0.74505805969E-08  0.10566000000E+00  0.10566000000E+00 0. -1.
     999900   -1    0    0    0    0 -0.00000000000E+00 -0.00000000000E+00 -0.74505805969E-08  0.93827000000E+00  0.93827000000E+00 0. -1.
     999902    2    1    2    0    0 -0.20114306950E-01  0.13581348294E-01 -0.62541229907E-02  0.10188670309E+01  0.10185587240E+01 0.  0.
     999903    2    3    3    0    0  0.95140197437E-01  0.65055705588E-01  0.51997130994E-01  0.12795378101E+00  0.19610365777E-01 0.  0.
         14    1    1    2    0    0  0.20114306950E-01 -0.13581348294E-01  0.62541229907E-02  0.25062969097E-01  0.00000000000E+00 0. -1.
     999901    1    3    3    0    0 -0.11525450439E+00 -0.51474357294E-01 -0.58251253985E-01  0.89091324989E+00  0.88000000000E+00 0. -1.
        -11    1    4    4    0    0  0.47503242154E-01  0.29508257007E-01  0.14857714152E-01  0.57864566338E-01  0.51100000000E-03 0. -1.
         11    1    4    4    0    0  0.47636955283E-01  0.35547448581E-01  0.37139416842E-01  0.70089214674E-01  0.51100000000E-03 0.  1.
</event>
<event>
 8    1  0.1060404E+005  0.1043930E+01  0.7957747E-01            NaN
         13   -1    0    0    0    0  0.00000000000E+00  0.00000000000E+00  0.74505805969E-08  0.10566000000E+00  0.10566000000E+00 0. -1.
     999900   -1    0    0    0    0 -0.00000000000E+00 -0.00000000000E+00 -0.74505805969E-08  0.93827000000E+00  0.93827000000E+00 0.  1.
     999902    2    1    2    0    0  0.53232961657E-02 -0.14027160579E-02  0.24393608616E-01  0.10189229363E+01  0.10186160203E+01 0.  0.
     999903    2    3    3    0    0  0.10440563138E+00  0.33326575900E-01  0.69788967748E-01  0.13151988721E+00  0.20390786834E-01 0.  0.
         14    1    1    2    0    0 -0.53232961657E-02  0.14027160579E-02 -0.24393608616E-01  0.25007063716E-01  0.00000000000E+00 0.  1.
     999901    1    3    3    0    0 -0.99082335215E-01 -0.34729291958E-01 -0.45395359132E-01  0.88740304907E+00  0.88000000000E+00 0.  1.
        -11    1    4    4    0    0  0.23051260498E-01  0.58141371108E-02  0.59554492146E-02  0.24513125000E-01  0.51100000000E-03 0. -1.
         11    1    4    4    0    0  0.81354370882E-01  0.27512438789E-01  0.63833518533E-01  0.10700676221E+00  0.51100000000E-03 0.  1.
</event>
<event>
 8    1  0.1060404E+005  0.1043930E+01  0.7957747E-01            NaN
         13   -1    0    0    0    0  0.00000000000E+00  0.00000000000E+00  0.74505805969E-08  0.10566000000E+00  0.10566000000E+00 0. -1.
     999900   -1    0    0    0    0 -0.00000000000E+00 -0.00000000000E+00 -0.74505805969E-08  0.93827000000E+00  0.93827000000E+00 0. -1.
     999902    2    1    2    0    0  0.83164520415E-02 -0.19830318907E-01 -0.74592551266E-02  0.10211693891E+01  0.10209157045E+01 0.  0.
     999903    2    3    3    0    0  0.83920499471E-01 -0.93398865571E-01  0.40362621815E-01  0.13357982461E+00  0.21176165381E-01 0.  0.
         14    1    1    2    0    0 -0.83164520415E-02  0.19830318907E-01  0.74592551266E-02  0.22760610923E-01  0.00000000000E+00 0. -1.
     999901    1    3    3    0    0 -0.75604047430E-01  0.73568546664E-01 -0.47821876942E-01  0.88758956447E+00  0.88000000000E+00 0. -1.
        -11    1    4    4    0    0  0.29411136443E-01 -0.38583301167E-01  0.25669104875E-01  0.54889435613E-01  0.51100000000E-03 0.  1.
         11    1    4    4    0    0  0.54509363028E-01 -0.54815564404E-01  0.14693516940E-01  0.78690388992E-01  0.51100000000E-03 0. -1.
</event>
<event>
 8    1  0.1060404E+005  0.1043930E+01  0.7957747E-01            NaN
         13   -1    0    0    0    0  0.00000000000E+00  0.00000000000E+00  0.74505805969E-08  0.10566000000E+00  0.10566000000E+00 0. -1.
     999900   -1    0    0    0    0 -0.00000000000E+00 -0.00000000000E+00 -0.74505805969E-08  0.93827000000E+00  0.93827000000E+00 0.  1.
     999902    2    1    2    0    0 -0.20044543247E-01  0.10734432662E-01  0.71171831288E-02  0.10201042565E+01  0.10198259793E+01 0.  0.
     999903    2    3    3    0    0 -0.14138908886E-02 -0.57646540767E-01 -0.11377763718E+00  0.12901581176E+00  0.19354746540E-01 0.  0.
         14    1    1    2    0    0  0.20044543247E-01 -0.10734432662E-01 -0.71171831288E-02  0.23825743519E-01  0.00000000000E+00 0.  1.
     999901    1    3    3    0    0 -0.18630652359E-01  0.68380973428E-01  0.12089482030E+00  0.89108844472E+00  0.88000000000E+00 0. -1.
        -11    1    4    4    0    0 -0.93416306444E-02 -0.23251403514E-01 -0.39566318515E-01  0.46836401552E-01  0.51100000000E-03 0. -1.
         11    1    4    4    0    0  0.79277397557E-02 -0.34395137253E-01 -0.74211318660E-01  0.82179410211E-01  0.51100000000E-03 0.  1.
</event>
<event>
 8    1  0.1060404E+005  0.1043930E+01  0.7957747E-01            NaN
         13   -1    0    0    0    0  0.00000000000E+00  0.00000000000E+00  0.74505805969E-08  0.10566000000E+00  0.10566000000E+00 0.  1.
     999900   -1    0    0    0    0 -0.00000000000E+00 -0.00000000000E+00 -0.74505805969E-08  0.93827000000E+00  0.93827000000E+00 0. -1.
     999902    2    1    2    0    0  0.29359203491E-02  0.18358622198E-01  0.12269932597E-01  0.10216542310E+01  0.10214113559E+01 0.  0.
     999903    2    3    3    0    0 -0.10058401556E+00 -0.77477102962E-01  0.21513859157E-01  0.13037071075E+00  0.20342822218E-01 0.  0.
         14    1    1    2    0    0 -0.29359203491E-02 -0.18358622198E-01 -0.12269932597E-01  0.22275768970E-01  0.00000000000E+00 0. -1.
     999901    1    3    3    0    0  0.10351993591E+00  0.95835725160E-01 -0.92439265603E-02  0.89128352028E+00  0.88000000000E+00 0. -1.
        -11    1    4    4    0    0 -0.73921667270E-01 -0.48254820191E-01  0.83328532258E-02  0.88671518130E-01  0.51100000000E-03 0. -1.
         11    1    4    4    0    0 -0.26662348289E-01 -0.29222282771E-01  0.13181005931E-01  0.41699192618E-01  0.51100000000E-03 0.  1.
</event>
<event>
 8    1  0.1060404E+005  0.1043930E+01  0.7957747E-01            NaN
         13   -1    0    0    0    0  0.00000000000E+00  0.00000000000E+00  0.74505805969E-08  0.10566000000E+00  0.10566000000E+00 0. -1.
     999900   -1    0    0    0    0 -0.00000000000E+00 -0.00000000000E+00 -0.74505805969E-08  0.93827000000E+00  0.93827000000E+00 0.  1.
     999902    2    1    2    0    0  0.18852767576E-01 -0.29033113326E-02  0.14498254406E-01  0.10199705459E+01  0.10196890992E+01 0.  0.
     999903    2    3    3    0    0 -0.82304036941E-01 -0.84456157024E-01 -0.46468949492E-01  0.12834250363E+00  0.20140457158E-01 0.  0.
         14    1    1    2    0    0 -0.18852767576E-01  0.29033113326E-02 -0.14498254406E-01  0.23959454142E-01  0.00000000000E+00 0. -1.
     999901    1    3    3    0    0  0.10115680452E+00  0.81552845691E-01  0.60967203898E-01  0.89162804223E+00  0.88000000000E+00 0.  1.
        -11    1    4    4    0    0 -0.74508166246E-01 -0.68229287403E-01 -0.34673612320E-01  0.10681396449E+00  0.51100000000E-03 0.  1.
         11    1    4    4    0    0 -0.77958706949E-02 -0.16226869620E-01 -0.11795337172E-01  0.21528539141E-01  0.51100000000E-03 0. -1.
</event>
<event>
 8    1  0.1060404E+005  0.1043930E+01  0.7957747E-01            NaN
         13   -1    0    0    0    0  0.00000000000E+00  0.00000000000E+00  0.74505805969E-08  0.10566000000E+00  0.10566000000E+00 0.  1.
     999900   -1    0    0    0    0 -0.00000000000E+00 -0.00000000000E+00 -0.74505805969E-08  0.93827000000E+00  0.93827000000E+00 0.  1.
     999902    2    1    2    0    0  0.99375422543E-02  0.19046018448E-01  0.85602668516E-02  0.10208046085E+01  0.10205426326E+01 0.  0.
     999903    2    3    3    0    0 -0.10729117718E+00  0.35400979475E-01  0.63630037815E-01  0.13117393393E+00  0.19829099360E-01 0.  0.
         14    1    1    2    0    0 -0.99375422543E-02 -0.19046018448E-01 -0.85602668516E-02  0.23125391529E-01  0.00000000000E+00 0.  1.
     999901    1    3    3    0    0  0.11722871944E+00 -0.16354961027E-01 -0.55069770964E-01  0.88963067454E+00  0.88000000000E+00 0.  1.
        -11    1    4    4    0    0 -0.83512824785E-01  0.33970084262E-01  0.44103469967E-01  0.10036800144E+00  0.51100000000E-03 0.  1.
         11    1    4    4    0    0 -0.23778352396E-01  0.14308952129E-02  0.19526567849E-01  0.30805932493E-01  0.51100000000E-03 0. -1.
</event>
<event>
 8    1  0.1060404E+005  0.1043930E+01  0.7957747E-01            NaN
         13   -1    0    0    0    0  0.00000000000E+00  0.00000000000E+00  0.74505805969E-08  0.10566000000E+00  0.10566000000E+00 0. -1.
     999900   -1    0    0    0    0 -0.00000000000E+00 -0.00000000000E+00 -0.74505805969E-08  0.93827000000E+00  0.93827000000E+00 0.  1.
     999902    2    1    2    0    0 -0.22032728800E-01  0.27418643123E-02  0.85759578435E-02  0.10201286133E+01  0.10198509114E+01 0.  0.
     999903    2    3    3    0    0  0.83397032967E-01  0.75573004865E-01  0.60189609778E-01  0.12935154868E+00  0.21040196016E-01 0.  0.
         14    1    1    2    0    0  0.22032728800E-01 -0.27418643123E-02 -0.85759578435E-02  0.23801386749E-01  0.00000000000E+00 0.  1.
     999901    1    3    3    0    0 -0.10542976177E+00 -0.72831140553E-01 -0.51613651934E-01  0.89077706457E+00  0.88000000000E+00 0.  1.
        -11    1    4    4    0    0  0.29530272144E-01  0.14476615158E-01  0.14355180318E-01  0.35887904401E-01  0.51100000000E-03 0. -1.
         11    1    4    4    0    0  0.53866760823E-01  0.61096389707E-01  0.45834429460E-01  0.93463644278E-01  0.51100000000E-03 0.  1.
</event>
<event>
 8    1  0.1060404E+005  0.1043930E+01  0.7957747E-01            NaN
         13   -1    0    0    0    0  0.00000000000E+00  0.00000000000E+00  0.74505805969E-08  0.10566000000E+00  0.10566000000E+00 0.  1.
     999900   -1    0    0    0    0 -0.00000000000E+00 -0.00000000000E+00 -0.74505805969E-08  0.93827000000E+00  0.93827000000E+00 0.  1.
     999902    2    1    2    0    0 -0.18526280362E-01 -0.90088467100E-02 -0.10951857890E-01  0.10205992140E+01  0.10203325096E+01 0.  0.
     999903    2    3    3    0    0 -0.32977191687E-01 -0.72753329849E-01 -0.10466739390E+00  0.13321272006E+00  0.20244092086E-01 0.  0.
         14    1    1    2    0    0  0.18526280362E-01  0.90088467100E-02  0.10951857890E-01  0.23330785978E-01  0.00000000000E+00 0. -1.
     999901    1    3    3    0    0  0.14450911325E-01  0.63744483139E-01  0.93715536013E-01  0.88738649396E+00  0.88000000000E+00 0. -1.
        -11    1    4    4    0    0 -0.74687855855E-02 -0.30865200489E-01 -0.28808494503E-01  0.42879293789E-01  0.51100000000E-03 0. -1.
         11    1    4    4    0    0 -0.25508406102E-01 -0.41888129361E-01 -0.75858899400E-01  0.90333426274E-01  0.51100000000E-03 0.  1.
</event>
<event>
 8    1  0.1077695E+005  0.1043930E+01  0.7957747E-01            NaN
         13   -1    0    0    0    0  0.00000000000E+00  0.00000000000E+00  0.74505805969E-08  0.10566000000E+00  0.10566000000E+00 0. -1.
     999900   -1    0    0    0    0 -0.00000000000E+00 -0.00000000000E+00 -0.74505805969E-08  0.93827000000E+00  0.93827000000E+00 0.  1.
     999902    2    1    2    0    0 -0.19247284038E-01 -0.13531713054E-01  0.45092941113E-02  0.10199738122E+01  0.10196924432E+01 0.  0.
     999903    2    3    3    0    0 -0.25828010510E-01  0.49061478630E-02 -0.12575346942E+00  0.13016953695E+00  0.20952729250E-01 0.  0.
         14    1    1    2    0    0  0.19247284038E-01  0.13531713054E-01 -0.45092941113E-02  0.23956187811E-01  0.00000000000E+00 0.  1.
     999901    1    3    3    0    0  0.65807264714E-02 -0.18437860917E-01  0.13026276354E+00  0.88980427524E+00  0.88000000000E+00 0. -1.
        -11    1    4    4    0    0 -0.40678248465E-02 -0.75001586623E-02 -0.30223588836E-01  0.31409011797E-01  0.51100000000E-03 0. -1.
         11    1    4    4    0    0 -0.21760185663E-01  0.12406306525E-01 -0.95529880588E-01  0.98760525149E-01  0.51100000000E-03 0.  1.
</event>
<event>
 8    1  0.1060404E+005  0.1043930E+01  0.7957747E-01            NaN
         13   -1    0    0    0    0  0.00000000000E+00  0.00000000000E+00  0.74505805969E-08  0.10566000000E+00  0.10566000000E+00 0. -1.
     999900   -1    0    0    0    0 -0.00000000000E+00 -0.00000000000E+00 -0.74505805969E-08  0.93827000000E+00  0.93827000000E+00 0. -1.
     999902    2    1    2    0    0  0.92016581339E-02  0.22156795690E-01 -0.55796256911E-03  0.10199319703E+01  0.10196496058E+01 0.  0.
     999903    2    3    3    0    0 -0.17964571473E-01 -0.10504436375E+00  0.67901873492E-01  0.12774090995E+00  0.18709127902E-01 0.  0.
         14    1    1    2    0    0 -0.92016581339E-02 -0.22156795690E-01  0.55796256911E-03  0.23998029709E-01  0.00000000000E+00 0. -1.
     999901    1    3    3    0    0  0.27166229607E-01  0.12720115945E+00 -0.68459836061E-01  0.89219106034E+00  0.88000000000E+00 0. -1.
        -11    1    4    4    0    0 -0.17142822102E-01 -0.51389230892E-01  0.39315535795E-01  0.66938045065E-01  0.51100000000E-03 0.  1.
         11    1    4    4    0    0 -0.82174937068E-03 -0.53655132862E-01  0.28586337697E-01  0.60802864887E-01  0.51100000000E-03 0. -1.
</event>
<event>
 8    1  0.1060404E+005  0.1043930E+01  0.7957747E-01            NaN
         13   -1    0    0    0    0  0.00000000000E+00  0.00000000000E+00  0.74505805969E-08  0.10566000000E+00  0.10566000000E+00 0.  1.
     999900   -1    0    0    0    0 -0.00000000000E+00 -0.00000000000E+00 -0.74505805969E-08  0.93827000000E+00  0.93827000000E+00 0.  1.
     999902    2    1    2    0    0  0.67268382919E-02 -0.17572907316E-01 -0.13776418316E-01  0.10206094698E+01  0.10203430025E+01 0.  0.
     999903    2    3    3    0    0  0.54579137829E-01 -0.11923351310E+00  0.10613081865E-01  0.13313013541E+00  0.20383388223E-01 0.  0.
         14    1    1    2    0    0 -0.67268382919E-02  0.17572907316E-01  0.13776418316E-01  0.23320530151E-01  0.00000000000E+00 0.  1.
     999901    1    3    3    0    0 -0.47852299537E-01  0.10166060578E+00 -0.24389500180E-01  0.88747933444E+00  0.88000000000E+00 0.  1.
        -11    1    4    4    0    0  0.51558712911E-01 -0.99668257886E-01  0.13838442706E-01  0.11306558329E+00  0.51100000000E-03 0.  1.
         11    1    4    4    0    0  0.30204249185E-02 -0.19565255212E-01 -0.32253608414E-02  0.20064552119E-01  0.51100000000E-03 0. -1.
</event>
<event>
 8    1  0.1060404E+005  0.1043930E+01  0.7957747E-01            NaN
         13   -1    0    0    0    0  0.00000000000E+00  0.00000000000E+00  0.74505805969E-08  0.10566000000E+00  0.10566000000E+00 0. -1.
     999900   -1    0    0    0    0 -0.00000000000E+00 -0.00000000000E+00 -0.74505805969E-08  0.93827000000E+00  0.93827000000E+00 0.  1.
     999902    2    1    2    0    0  0.10865370651E-01 -0.12224684914E-01 -0.16873207582E-01  0.10204309716E+01  0.10201603617E+01 0.  0.
     999903    2    3    3    0    0  0.18772671934E-01 -0.93099751860E-01 -0.91648040220E-01  0.13352929868E+00  0.20266556742E-01 0.  0.
         14    1    1    2    0    0 -0.10865370651E-01  0.12224684914E-01  0.16873207582E-01  0.23499028379E-01  0.00000000000E+00 0. -1.
     999901    1    3    3    0    0 -0.79073012830E-02  0.80875066946E-01  0.74774832637E-01  0.88690167294E+00  0.88000000000E+00 0. -1.
        -11    1    4    4    0    0  0.91323901914E-02 -0.51412354217E-01 -0.36427697636E-01  0.63670000729E-01  0.51100000000E-03 0.  1.
         11    1    4    4    0    0  0.96402817430E-02 -0.41687397644E-01 -0.55220342583E-01  0.69859297952E-01  0.51100000000E-03 0. -1.
</event>
<event>
 8    1  0.1060404E+005  0.1043930E+01  0.7957747E-01            NaN
         13   -1    0    0    0    0  0.00000000000E+00  0.00000000000E+00  0.74505805969E-08  0.10566000000E+00  0.10566000000E+00 0. -1.
     999900   -1    0    0    0    0 -0.00000000000E+00 -0.00000000000E+00 -0.74505805969E-08  0.93827000000E+00  0.93827000000E+00 0.  1.
     999902    2    1    2    0    0 -0.12428248663E-01  0.13693336425E-01  0.87093684487E-02  0.10234893071E+01  0.10232851703E+01 0.  0.
     999903    2    3    3    0    0 -0.12511776334E+00 -0.28583742288E-01  0.36064101406E-01  0.13487546548E+00  0.20476492667E-01 0.  0.
         14    1    1    2    0    0  0.12428248663E-01 -0.13693336425E-01 -0.87093684487E-02  0.20440692896E-01  0.00000000000E+00 0.  1.
     999901    1    3    3    0    0  0.11268951468E+00  0.42277078713E-01 -0.27354732957E-01  0.88861384162E+00  0.88000000000E+00 0.  1.
        -11    1    4    4    0    0 -0.94715265458E-01 -0.15713260826E-01  0.19647079185E-01  0.98000800599E-01  0.51100000000E-03 0. -1.
         11    1    4    4    0    0 -0.30402497886E-01 -0.12870481462E-01  0.16417022221E-01  0.36874664885E-01  0.51100000000E-03 0.  1.
</event>
<event>
 8    1  0.1060404E+005  0.1043930E+01  0.7957747E-01            NaN
         13   -1    0    0    0    0  0.00000000000E+00  0.00000000000E+00  0.74505805969E-08  0.10566000000E+00  0.10566000000E+00 0.  1.
     999900   -1    0    0    0    0 -0.00000000000E+00 -0.00000000000E+00 -0.74505805969E-08  0.93827000000E+00  0.93827000000E+00 0.  1.
     999902    2    1    2    0    0 -0.18184053240E-01 -0.15094471317E-01 -0.14647080171E-02  0.10202519886E+01  0.10199771919E+01 0.  0.
     999903    2    3    3    0    0 -0.12662050674E+00  0.30577581274E-01 -0.12007711685E-01  0.13235810088E+00  0.20167809148E-01 0.  0.
         14    1    1    2    0    0  0.18184053240E-01  0.15094471317E-01  0.14647080171E-02  0.23678011448E-01  0.00000000000E+00 0. -1.
     999901    1    3    3    0    0  0.10843645350E+00 -0.45672052590E-01  0.10543003668E-01  0.88789388767E+00  0.88000000000E+00 0. -1.
        -11    1    4    4    0    0 -0.87679887982E-01  0.27517842522E-01 -0.15194907572E-02  0.91910632610E-01  0.51100000000E-03 0. -1.
         11    1    4    4    0    0 -0.38940618756E-01  0.30597387516E-02 -0.10488220927E-01  0.40447468272E-01  0.51100000000E-03 0.  1.
</event>
<event>
 7    1  0.1060404E+005  0.1043930E+01  0.7957747E-01            NaN
         13   -1    0    0    0    0  0.00000000000E+00  0.00000000000E+00  0.74505805969E-08  0.10566000000E+00  0.10566000000E+00 0. -1.
     999900   -1    0    0    0    0 -0.00000000000E+00 -0.00000000000E+00 -0.74505805969E-08  0.93827000000E+00  0.93827000000E+00 0.  1.
     999903    2    1    2    0    0  0.51045604459E-01 -0.22927179121E-01  0.54808076991E-01  0.80848283888E-01  0.20030237820E-01 0.  0.
         14    1    1    2    0    0 -0.35925404317E-01 -0.30046834349E-01  0.57583536300E-01  0.74224730262E-01  0.00000000000E+00 0. -1.
     999901    1    1    2    0    0 -0.15120200142E-01  0.52974013470E-01 -0.11239161329E+00  0.88885698585E+00  0.88000000000E+00 0.  1.
        -11    1    3    3    0    0  0.26410408865E-01 -0.14240974453E-01  0.15843437127E-01  0.33935094972E-01  0.51100000000E-03 0. -1.
         11    1    3    3    0    0  0.24635195594E-01 -0.86862046689E-02  0.38964639864E-01  0.46913188916E-01  0.51100000000E-03 0.  1.
</event>
<event>
 8    1  0.1060404E+005  0.1043930E+01  0.7957747E-01            NaN
         13   -1    0    0    0    0  0.00000000000E+00  0.00000000000E+00  0.74505805969E-08  0.10566000000E+00  0.10566000000E+00 0.  1.
     999900   -1    0    0    0    0 -0.00000000000E+00 -0.00000000000E+00 -0.74505805969E-08  0.93827000000E+00  0.93827000000E+00 0.  1.
     999902    2    1    2    0    0  0.20292103145E-01 -0.12278308971E-01  0.22688099708E-02  0.10201040935E+01  0.10198258125E+01 0.  0.
     999903    2    3    3    0    0  0.12640016205E+00  0.92928461948E-02  0.34953736298E-01  0.13286537743E+00  0.19185590471E-01 0.  0.
         14    1    1    2    0    0 -0.20292103145E-01  0.12278308971E-01 -0.22688099708E-02  0.23825906486E-01  0.00000000000E+00 0. -1.
     999901    1    3    3    0    0 -0.10610805891E+00 -0.21571155166E-01 -0.32684926327E-01  0.88723871608E+00  0.88000000000E+00 0.  1.
        -11    1    4    4    0    0  0.91146091149E-01  0.13509487924E-01  0.30595136599E-01  0.97089853745E-01  0.51100000000E-03 0.  1.
         11    1    4    4    0    0  0.35254070906E-01 -0.42166417294E-02  0.43585996986E-02  0.35775523689E-01  0.51100000000E-03 0. -1.
</event>
<event>
 8    1  0.1060404E+005  0.1043930E+01  0.7957747E-01            NaN
         13   -1    0    0    0    0  0.00000000000E+00  0.00000000000E+00  0.74505805969E-08  0.10566000000E+00  0.10566000000E+00 0.  1.
     999900   -1    0    0    0    0 -0.00000000000E+00 -0.00000000000E+00 -0.74505805969E-08  0.93827000000E+00  0.93827000000E+00 0. -1.
     999902    2    1    2    0    0 -0.19386357006E-02  0.23180368979E-01 -0.11024514719E-02  0.10206425954E+01  0.10203768933E+01 0.  0.
     999903    2    3    3    0    0  0.41263461762E-01 -0.11920468612E+00  0.98029015323E-02  0.12808511720E+00  0.19931630654E-01 0.  0.
         14    1    1    2    0    0  0.19386357006E-02 -0.23180368979E-01  0.11024514719E-02  0.23287404613E-01  0.00000000000E+00 0. -1.
     999901    1    3    3    0    0 -0.43202097462E-01  0.14238505510E+00 -0.10905353004E-01  0.89255747819E+00  0.88000000000E+00 0. -1.
        -11    1    4    4    0    0  0.36471085965E-01 -0.87335610870E-01  0.13647750773E-01  0.95625160181E-01  0.51100000000E-03 0. -1.
         11    1    4    4    0    0  0.47923757966E-02 -0.31869075250E-01 -0.38448492412E-02  0.32459957020E-01  0.51100000000E-03 0.  1.
</event>
<event>
 8    1  0.1060404E+005  0.1043930E+01  0.7957747E-01            NaN
         13   -1    0    0    0    0  0.00000000000E+00  0.00000000000E+00  0.74505805969E-08  0.10566000000E+00  0.10566000000E+00 0. -1.
     999900   -1    0    0    0    0 -0.00000000000E+00 -0.00000000000E+00 -0.74505805969E-08  0.93827000000E+00  0.93827000000E+00 0. -1.
     999902    2    1    2    0    0  0.18327755907E-01 -0.13335320974E-01 -0.38618899330E-02  0.10209375748E+01  0.10206786370E+01 0.  0.
     999903    2    3    3    0    0 -0.22969728500E-01  0.12494539361E+00  0.12881097748E-01  0.12902537853E+00  0.18511234796E-01 0.  0.
         14    1    1    2    0    0 -0.18327755907E-01  0.13335320974E-01  0.38618899330E-02  0.22992425186E-01  0.00000000000E+00 0.  1.
     999901    1    3    3    0    0  0.41297484407E-01 -0.13828071459E+00 -0.16742987681E-01  0.89191219628E+00  0.88000000000E+00 0. -1.
        -11    1    4    4    0    0 -0.23447164905E-01  0.81811307948E-01  0.11333832289E-01  0.85857885635E-01  0.51100000000E-03 0.  1.
         11    1    4    4    0    0  0.47743640505E-03  0.43134085663E-01  0.15472654594E-02  0.43167492895E-01  0.51100000000E-03 0. -1.
</event>
<event>
 8    1  0.1060404E+005  0.1043930E+01  0.7957747E-01            NaN
         13   -1    0    0    0    0  0.00000000000E+00  0.00000000000E+00  0.74505805969E-08  0.10566000000E+00  0.10566000000E+00 0. -1.
     999900   -1    0    0    0    0 -0.00000000000E+00 -0.00000000000E+00 -0.74505805969E-08  0.93827000000E+00  0.93827000000E+00 0. -1.
     999902    2    1    2    0    0 -0.16637619515E-01 -0.13962552085E-01 -0.12266672213E-01  0.10189853715E+01  0.10186800051E+01 0.  0.
     999903    2    3    3    0    0 -0.50001516200E-02 -0.36588790794E-01  0.12159567049E+00  0.12849870448E+00  0.19043866306E-01 0.  0.
         14    1    1    2    0    0  0.16637619515E-01  0.13962552085E-01  0.12266672213E-01  0.24944628501E-01  0.00000000000E+00 0. -1.
     999901    1    3    3    0    0 -0.11637467895E-01  0.22626238709E-01 -0.13386234270E+00  0.89048666701E+00  0.88000000000E+00 0. -1.
        -11    1    4    4    0    0  0.28352455763E-02 -0.32460449386E-01  0.98912534228E-01  0.10414254625E+00  0.51100000000E-03 0. -1.
         11    1    4    4    0    0 -0.78353971962E-02 -0.41283414084E-02  0.22683136264E-01  0.24356158231E-01  0.51100000000E-03 0.  1.
</event>
<event>
 8    1  0.1060404E+005  0.1043930E+01  0.7957747E-01            NaN
         13   -1    0    0    0    0  0.00000000000E+00  0.00000000000E+00  0.74505805969E-08  0.10566000000E+00  0.10566000000E+00 0.  1.
     999900   -1    0    0    0    0 -0.00000000000E+00 -0.00000000000E+00 -0.74505805969E-08  0.93827000000E+00  0.93827000000E+00 0. -1.
     999902    2    1    2    0    0  0.21184730370E-01 -0.58901788084E-02  0.13951458801E-02  0.10218974459E+01  0.10216599026E+01 0.  0.
     999903    2    3    3    0    0 -0.60222454960E-01 -0.64687292329E-01 -0.94265604628E-01  0.13103538613E+00  0.21750363968E-01 0.  0.
         14    1    1    2    0    0 -0.21184730370E-01  0.58901788084E-02 -0.13951458801E-02  0.22032554080E-01  0.00000000000E+00 0.  1.
     999901    1    3    3    0    0  0.81407185329E-01  0.58797113521E-01  0.95660750508E-01  0.89086205979E+00  0.88000000000E+00 0.  1.
        -11    1    4    4    0    0 -0.18780541019E-01 -0.12183034742E-01 -0.13421912606E-01  0.26106396065E-01  0.51100000000E-03 0.  1.
         11    1    4    4    0    0 -0.41441913940E-01 -0.52504257587E-01 -0.80843692022E-01  0.10492899007E+00  0.51100000000E-03 0. -1.
</event>
<event>
 8    1  0.1060404E+005  0.1043930E+01  0.7957747E-01            NaN
         13   -1    0    0    0    0  0.00000000000E+00  0.00000000000E+00  0.74505805969E-08  0.10566000000E+00  0.10566000000E+00 0.  1.
     999900   -1    0    0    0    0 -0.00000000000E+00 -0.00000000000E+00 -0.74505805969E-08  0.93827000000E+00  0.93827000000E+00 0.  1.
     999902    2    1    2    0    0  0.13007694917E-04 -0.12821139074E-03  0.23089177720E-01  0.10208404626E+01  0.10205793078E+01 0.  0.
     999903    2    3    3    0    0  0.75784692068E-02  0.11464241964E+00  0.61481621240E-01  0.13252547703E+00  0.24139070708E-01 0.  0.
         14    1    1    2    0    0 -0.13007694917E-04  0.12821139074E-03 -0.23089177720E-01  0.23089537352E-01  0.00000000000E+00 0. -1.
     999901    1    3    3    0    0 -0.75654615119E-02 -0.11477063103E+00 -0.38392443520E-01  0.88831498562E+00  0.88000000000E+00 0.  1.
        -11    1    4    4    0    0 -0.50831833956E-02  0.22181425587E-01  0.20370992266E-01  0.30546568407E-01  0.51100000000E-03 0.  1.
         11    1    4    4    0    0  0.12661652602E-01  0.92460994055E-01  0.41110628974E-01  0.10197890862E+00  0.51100000000E-03 0. -1.
</event>
<event>
 8    1  0.1060404E+005  0.1043930E+01  0.7957747E-01            NaN
         13   -1    0    0    0    0  0.00000000000E+00  0.00000000000E+00  0.74505805969E-08  0.10566000000E+00  0.10566000000E+00 0. -1.
     999900   -1    0    0    0    0 -0.00000000000E+00 -0.00000000000E+00 -0.74505805969E-08  0.93827000000E+00  0.93827000000E+00 0. -1.
     999902    2    1    2    0    0 -0.46831961264E-02  0.17534221444E-01  0.15873906641E-01  0.10198185471E+01  0.10195334751E+01 0.  0.
     999903    2    3    3    0    0 -0.64407517925E-01 -0.42447941570E-01 -0.10040344865E+00  0.12814300196E+00  0.19738802939E-01 0.  0.
         14    1    1    2    0    0  0.46831961264E-02 -0.17534221444E-01 -0.15873906641E-01  0.24111452873E-01  0.00000000000E+00 0.  1.
     999901    1    3    3    0    0  0.59724321799E-01  0.59982163014E-01  0.11627735529E+00  0.89167554517E+00  0.88000000000E+00 0.  1.
        -11    1    4    4    0    0 -0.31754629504E-01 -0.29906385529E-01 -0.65727306835E-01  0.78886553830E-01  0.51100000000E-03 0. -1.
         11    1    4    4    0    0 -0.32652888421E-01 -0.12541556041E-01 -0.34676141817E-01  0.49256448131E-01  0.51100000000E-03 0.  1.
</event>
<event>
 8    1  0.1060404E+005  0.1043930E+01  0.7957747E-01            NaN
         13   -1    0    0    0    0  0.00000000000E+00  0.00000000000E+00  0.74505805969E-08  0.10566000000E+00  0.10566000000E+00 0.  1.
     999900   -1    0    0    0    0 -0.00000000000E+00 -0.00000000000E+00 -0.74505805969E-08  0.93827000000E+00  0.93827000000E+00 0. -1.
     999902    2    1    2    0    0  0.17816545241E-01  0.11694493572E-02 -0.16002288022E-01  0.10199535508E+01  0.10196716999E+01 0.  0.
     999903    2    3    3    0    0 -0.94893780704E-01 -0.53167868970E-01  0.63391079808E-01  0.12756379926E+00  0.20553393249E-01 0.  0.
         14    1    1    2    0    0 -0.17816545241E-01 -0.11694493572E-02  0.16002288022E-01  0.23976449238E-01  0.00000000000E+00 0.  1.
     999901    1    3    3    0    0  0.11271032595E+00  0.54337318327E-01 -0.79393367831E-01  0.89238975151E+00  0.88000000000E+00 0. -1.
        -11    1    4    4    0    0 -0.59203229903E-01 -0.43819053267E-01  0.39152636265E-01  0.83416556556E-01  0.51100000000E-03 0. -1.
         11    1    4    4    0    0 -0.35690550801E-01 -0.93488157028E-02  0.24238443543E-01  0.44147242699E-01  0.51100000000E-03 0.  1.
</event>
<event>
 8    1  0.1060404E+005  0.1043930E+01  0.7957747E-01            NaN
         13   -1    0    0    0    0  0.00000000000E+00  0.00000000000E+00  0.74505805969E-08  0.10566000000E+00  0.10566000000E+00 0.  1.
     999900   -1    0    0    0    0 -0.00000000000E+00 -0.00000000000E+00 -0.74505805969E-08  0.93827000000E+00  0.93827000000E+00 0. -1.
     999902    2    1    2    0    0 -0.22299540520E-01  0.49231757267E-02 -0.69534253387E-02  0.10200583161E+01  0.10197789520E+01 0.  0.
     999903    2    3    3    0    0 -0.21393865485E-01 -0.10762016603E+00  0.66430324989E-01  0.12986058595E+00  0.20272791820E-01 0.  0.
         14    1    1    2    0    0  0.22299540520E-01 -0.49231757267E-02  0.69534253387E-02  0.23871683866E-01  0.00000000000E+00 0. -1.
     999901    1    3    3    0    0 -0.90567503512E-03  0.11254334175E+00 -0.73383750328E-01  0.89019773019E+00  0.88000000000E+00 0. -1.
        -11    1    4    4    0    0 -0.47681816617E-02 -0.41654075300E-01  0.14830471153E-01  0.44474729241E-01  0.51100000000E-03 0. -1.
         11    1    4    4    0    0 -0.16625683824E-01 -0.65966090726E-01  0.51599853836E-01  0.85385856704E-01  0.51100000000E-03 0.  1.
</event>
<event>
 8    1  0.1060404E+005  0.1043930E+01  0.7957747E-01            NaN
         13   -1    0    0    0    0  0.00000000000E+00  0.00000000000E+00  0.74505805969E-08  0.10566000000E+00  0.10566000000E+00 0. -1.
     999900   -1    0    0    0    0 -0.00000000000E+00 -0.00000000000E+00 -0.74505805969E-08  0.93827000000E+00  0.93827000000E+00 0. -1.
     999902    2    1    2    0    0 -0.15509036581E-01 -0.12361281199E-01  0.14388505265E-01  0.10194277435E+01  0.10191332414E+01 0.  0.
     999903    2    3    3    0    0  0.34116597072E-01  0.12149221145E+00  0.46310358780E-02  0.12787030330E+00  0.20126309519E-01 0.  0.
         14    1    1    2    0    0  0.15509036581E-01  0.12361281199E-01 -0.14388505265E-01  0.24502256474E-01  0.00000000000E+00 0.  1.
     999901    1    3    3    0    0 -0.49625633653E-01 -0.13385349265E+00  0.97574693868E-02  0.89155744022E+00  0.88000000000E+00 0. -1.
        -11    1    4    4    0    0  0.43617976120E-02  0.18671275368E-01  0.79858818462E-02  0.20776843652E-01  0.51100000000E-03 0.  1.
         11    1    4    4    0    0  0.29754799460E-01  0.10282093608E+00 -0.33548459683E-02  0.10709345965E+00  0.51100000000E-03 0. -1.
</event>
<event>
 8    1  0.1060404E+005  0.1043930E+01  0.7957747E-01            NaN
         13   -1    0    0    0    0  0.00000000000E+00  0.00000000000E+00  0.74505805969E-08  0.10566000000E+00  0.10566000000E+00 0.  1.
     999900   -1    0    0    0    0 -0.00000000000E+00 -0.00000000000E+00 -0.74505805969E-08  0.93827000000E+00  0.93827000000E+00 0.  1.
     999902    2    1    2    0    0 -0.12857167667E-01 -0.19887951602E-01 -0.78771592182E-02  0.10189722954E+01  0.10186666049E+01 0.  0.
     999903    2    3    3    0    0  0.43184670289E-01 -0.99537469651E-01  0.69364987492E-01  0.13023663027E+00  0.19428195012E-01 0.  0.
         14    1    1    2    0    0  0.12857167667E-01  0.19887951602E-01  0.78771592182E-02  0.24957704556E-01  0.00000000000E+00 0.  1.
     999901    1    3    3    0    0 -0.56041837956E-01  0.79649518049E-01 -0.77242146710E-01  0.88873566518E+00  0.88000000000E+00 0.  1.
        -11    1    4    4    0    0  0.43244799378E-02 -0.28245980282E-01  0.23367548974E-01  0.36916662835E-01  0.51100000000E-03 0. -1.
         11    1    4    4    0    0  0.38860190351E-01 -0.71291489369E-01  0.45997438519E-01  0.93319967434E-01  0.51100000000E-03 0.  1.
</event>
<event>
 8    1  0.1060404E+005  0.1043930E+01  0.7957747E-01            NaN
         13   -1    0    0    0    0  0.00000000000E+00  0.00000000000E+00  0.74505805969E-08  0.10566000000E+00  0.10566000000E+00 0.  1.
     999900   -1    0    0    0    0 -0.00000000000E+00 -0.00000000000E+00 -0.74505805969E-08  0.93827000000E+00  0.93827000000E+00 0. -1.
     999902    2    1    2    0    0 -0.14027306056E-01  0.19741407935E-01 -0.18258707780E-02  0.10196437424E+01  0.10193544718E+01 0.  0.
     999903    2    3    3    0    0  0.11592004461E-01  0.83359878503E-01  0.98751989603E-01  0.13126343825E+00  0.19871860970E-01 0.  0.
         14    1    1    2    0    0  0.14027306056E-01 -0.19741407935E-01  0.18258707780E-02  0.24286257566E-01  0.00000000000E+00 0. -1.
     999901    1    3    3    0    0 -0.25619310517E-01 -0.63618470567E-01 -0.10057786038E+00  0.88838030419E+00  0.88000000000E+00 0. -1.
        -11    1    4    4    0    0 -0.25991748589E-02  0.37804145666E-01  0.53006814684E-01  0.65160514604E-01  0.51100000000E-03 0. -1.
         11    1    4    4    0    0  0.14191179320E-01  0.45555732837E-01  0.45745174919E-01  0.66102923643E-01  0.51100000000E-03 0.  1.
</event>
<event>
 8    1  0.1060404E+005  0.1043930E+01  0.7957747E-01            NaN
         13   -1    0    0    0    0  0.00000000000E+00  0.00000000000E+00  0.74505805969E-08  0.10566000000E+00  0.10566000000E+00 0.  1.
     999900   -1    0    0    0    0 -0.00000000000E+00 -0.00000000000E+00 -0.74505805969E-08  0.93827000000E+00  0.93827000000E+00 0. -1.
     999902    2    1    2    0    0  0.81067787466E-02  0.14074248945E-01  0.18364869161E-01  0.10194132146E+01  0.10191183589E+01 0.  0.
     999903    2    3    3    0    0 -0.12218063958E+00 -0.20226111221E-01  0.30488039812E-01  0.12907715598E+00  0.19854152281E-01 0.  0.
         14    1    1    2    0    0 -0.81067787466E-02 -0.14074248945E-01 -0.18364869161E-01  0.24516785358E-01  0.00000000000E+00 0. -1.
     999901    1    3    3    0    0  0.13028741832E+00  0.34300360165E-01 -0.12123170651E-01  0.89033605866E+00  0.88000000000E+00 0. -1.
        -11    1    4    4    0    0 -0.99870443570E-01 -0.22621311739E-01  0.29689464062E-01  0.10661873494E+00  0.51100000000E-03 0. -1.
         11    1    4    4    0    0 -0.22310196006E-01  0.23952005186E-02  0.79857574925E-03  0.22458421039E-01  0.51100000000E-03 0.  1.
</event>
<event>
 8    1  0.1060404E+005  0.1043930E+01  0.7957747E-01            NaN
         13   -1    0    0    0    0  0.00000000000E+00  0.00000000000E+00  0.74505805969E-08  0.10566000000E+00  0.10566000000E+00 0.  1.
     999900   -1    0    0    0    0 -0.00000000000E+00 -0.00000000000E+00 -0.74505805969E-08  0.93827000000E+00  0.93827000000E+00 0.  1.
     999902    2    1    2    0    0  0.18812760079E-01  0.13578311658E-01  0.49648351142E-02  0.10202036417E+01  0.10199277085E+01 0.  0.
     999903    2    3    3    0    0 -0.12304211227E+00  0.17321669203E-01  0.27391922084E-01  0.12855360288E+00  0.18338751383E-01 0.  0.
         14    1    1    2    0    0 -0.18812760079E-01 -0.13578311658E-01 -0.49648351142E-02  0.23726358275E-01  0.00000000000E+00 0. -1.
     999901    1    3    3    0    0  0.14185487235E+00 -0.37433575444E-02 -0.22427086970E-01  0.89165003884E+00  0.88000000000E+00 0. -1.
        -11    1    4    4    0    0 -0.87084114097E-01  0.40262182085E-02  0.21158508242E-01  0.89709514284E-01  0.51100000000E-03 0. -1.
         11    1    4    4    0    0 -0.35957998176E-01  0.13295450994E-01  0.62334138423E-02  0.38844088600E-01  0.51100000000E-03 0.  1.
</event>
<event>
 8    1  0.1060404E+005  0.1043930E+01  0.7957747E-01            NaN
         13   -1    0    0    0    0  0.00000000000E+00  0.00000000000E+00  0.74505805969E-08  0.10566000000E+00  0.10566000000E+00 0. -1.
     999900   -1    0    0    0    0 -0.00000000000E+00 -0.00000000000E+00 -0.74505805969E-08  0.93827000000E+00  0.93827000000E+00 0. -1.
     999902    2    1    2    0    0 -0.16370157379E-01  0.15005623851E-01  0.77125734287E-02  0.10204218187E+01  0.10201509954E+01 0.  0.
     999903    2    3    3    0    0  0.12569646774E+00 -0.17123007396E-01 -0.96525542137E-03  0.12840697597E+00  0.19865054078E-01 0.  0.
         14    1    1    2    0    0  0.16370157379E-01 -0.15005623851E-01 -0.77125734287E-02  0.23508181313E-01  0.00000000000E+00 0. -1.
     999901    1    3    3    0    0 -0.14206662512E+00  0.32128631247E-01  0.86778288501E-02  0.89201484272E+00  0.88000000000E+00 0.  1.
        -11    1    4    4    0    0  0.35118961571E-01 -0.13546879778E-01  0.21273507441E-02  0.37704723255E-01  0.51100000000E-03 0.  1.
         11    1    4    4    0    0  0.90577506172E-01 -0.35761276179E-02 -0.30926061655E-02  0.90702252712E-01  0.51100000000E-03 0. -1.
</event>
<event>
 8    1  0.1060404E+005  0.1043930E+01  0.7957747E-01            NaN
         13   -1    0    0    0    0  0.00000000000E+00  0.00000000000E+00  0.74505805969E-08  0.10566000000E+00  0.10566000000E+00 0. -1.
     999900   -1    0    0    0    0 -0.00000000000E+00 -0.00000000000E+00 -0.74505805969E-08  0.93827000000E+00  0.93827000000E+00 0. -1.
     999902    2    1    2    0    0  0.13686455460E-01 -0.12084572620E-01 -0.21659027469E-01  0.10156021086E+01  0.10152069610E+01 0.  0.
     999903    2    3    3    0    0  0.27019175333E-01 -0.38701149407E-01  0.11381896558E+00  0.12473708508E+00  0.19410529841E-01 0.  0.
         14    1    1    2    0    0 -0.13686455460E-01  0.12084572620E-01  0.21659027469E-01  0.28327891368E-01  0.00000000000E+00 0. -1.
     999901    1    3    3    0    0 -0.13332719873E-01  0.26616576786E-01 -0.13547799305E+00  0.89086502355E+00  0.88000000000E+00 0. -1.
        -11    1    4    4    0    0  0.28036784763E-01 -0.27310168355E-01  0.80624905096E-01  0.89624455581E-01  0.51100000000E-03 0. -1.
         11    1    4    4    0    0 -0.10176094301E-02 -0.11390981052E-01  0.33194060484E-01  0.35112629504E-01  0.51100000000E-03 0.  1.
</event>
<event>
 8    1  0.1060404E+005  0.1043930E+01  0.7957747E-01            NaN
         13   -1    0    0    0    0  0.00000000000E+00  0.00000000000E+00  0.74505805969E-08  0.10566000000E+00  0.10566000000E+00 0. -1.
     999900   -1    0    0    0    0 -0.00000000000E+00 -0.00000000000E+00 -0.74505805969E-08  0.93827000000E+00  0.93827000000E+00 0.  1.
     999902    2    1    2    0    0 -0.19736182952E-01 -0.12262240658E-01  0.56753593680E-02  0.10200116144E+01  0.10197311432E+01 0.  0.
     999903    2    3    3    0    0  0.11245150771E+00 -0.20952832601E-01  0.55166893247E-01  0.12872124432E+00  0.21009756058E-01 0.  0.
         14    1    1    2    0    0  0.19736182952E-01  0.12262240658E-01 -0.56753593680E-02  0.23918385552E-01  0.00000000000E+00 0. -1.
     999901    1    3    3    0    0 -0.13218769066E+00  0.86905919437E-02 -0.49491533879E-01  0.89129037012E+00  0.88000000000E+00 0.  1.
        -11    1    4    4    0    0  0.49683498525E-01 -0.17462618458E-01  0.17824962140E-01  0.55600211020E-01  0.51100000000E-03 0.  1.
         11    1    4    4    0    0  0.62768009184E-01 -0.34902141433E-02  0.37341931107E-01  0.73121033304E-01  0.51100000000E-03 0. -1.
</event>
<event>
 8    1  0.1060404E+005  0.1043930E+01  0.7957747E-01            NaN
         13   -1    0    0    0    0  0.00000000000E+00  0.00000000000E+00  0.74505805969E-08  0.10566000000E+00  0.10566000000E+00 0.  1.
     999900   -1    0    0    0    0 -0.00000000000E+00 -0.00000000000E+00 -0.74505805969E-08  0.93827000000E+00  0.93827000000E+00 0. -1.
     999902    2    1    2    0    0 -0.20048924998E-01  0.47438809831E-03 -0.12525443861E-01  0.10202853139E+01  0.10200112992E+01 0.  0.
     999903    2    3    3    0    0 -0.10778952386E+00 -0.70195223745E-01 -0.27214709064E-01  0.13298131793E+00  0.19935888203E-01 0.  0.
         14    1    1    2    0    0  0.20048924998E-01 -0.47438809831E-03  0.12525443861E-01  0.23644686117E-01  0.00000000000E+00 0.  1.
     999901    1    3    3    0    0  0.87740598859E-01  0.70669611843E-01  0.14689265202E-01  0.88730399596E+00  0.88000000000E+00 0.  1.
        -11    1    4    4    0    0 -0.97656734359E-01 -0.55908370449E-01 -0.21623010995E-01  0.11458795477E+00  0.51100000000E-03 0.  1.
         11    1    4    4    0    0 -0.10132789498E-01 -0.14286853296E-01 -0.55916980692E-02  0.18393363162E-01  0.51100000000E-03 0. -1.
</event>
<event>
 8    1  0.1060404E+005  0.1043930E+01  0.7957747E-01            NaN
         13   -1    0    0    0    0  0.00000000000E+00  0.00000000000E+00  0.74505805969E-08  0.10566000000E+00  0.10566000000E+00 0.  1.
     999900   -1    0    0    0    0 -0.00000000000E+00 -0.00000000000E+00 -0.74505805969E-08  0.93827000000E+00  0.93827000000E+00 0.  1.
     999902    2    1    2    0    0 -0.67820045300E-02 -0.12270656841E-01 -0.20193307448E-01  0.10193467889E+01  0.10190503136E+01 0.  0.
     999903    2    3    3    0    0  0.50302494398E-01 -0.90226343106E-01 -0.79727619844E-01  0.13205875028E+00  0.20294980326E-01 0.  0.
         14    1    1    2    0    0  0.67820045300E-02  0.12270656841E-01  0.20193307448E-01  0.24583211150E-01  0.00000000000E+00 0.  1.
     999901    1    3    3    0    0 -0.57084498928E-01  0.77955686265E-01  0.59534312396E-01  0.88728803857E+00  0.88000000000E+00 0.  1.
        -11    1    4    4    0    0  0.12812885895E-01 -0.43134428487E-01 -0.31547561574E-01  0.54956880626E-01  0.51100000000E-03 0. -1.
         11    1    4    4    0    0  0.37489608502E-01 -0.47091914618E-01 -0.48180058270E-01  0.77101869653E-01  0.51100000000E-03 0.  1.
</event>
<event>
 7    1  0.1060404E+005  0.1043930E+01  0.7957747E-01            NaN
         13   -1    0    0    0    0  0.00000000000E+00  0.00000000000E+00  0.74505805969E-08  0.10566000000E+00  0.10566000000E+00 0.  1.
     999900   -1    0    0    0    0 -0.00000000000E+00 -0.00000000000E+00 -0.74505805969E-08  0.93827000000E+00  0.93827000000E+00 0. -1.
     999902    2    1    2    0    0 -0.11074920805E-01 -0.21066261231E-01 -0.36182823552E-02  0.10198565042E+01  0.10195723397E+01 0.  0.
         14    1    1    2    0    0  0.11074920805E-01  0.21066261231E-01  0.36182823552E-02  0.24073495806E-01  0.00000000000E+00 0.  1.
     999901    1    3    3    0    0  0.12109238702E-01  0.81731367623E-01 -0.72187662983E-01  0.88681323220E+00  0.88000000000E+00 0. -1.
        -11    1    3    3    0    0 -0.29081976934E-01 -0.62094986229E-01  0.59811653849E-01  0.90990349787E-01  0.51100000000E-03 0.  1.
         11    1    3    3    0    0  0.58978174264E-02 -0.40702642624E-01  0.87577267785E-02  0.42052922209E-01  0.51100000000E-03 0. -1.
</event>
<event>
 8    1  0.1060404E+005  0.1043930E+01  0.7957747E-01            NaN
         13   -1    0    0    0    0  0.00000000000E+00  0.00000000000E+00  0.74505805969E-08  0.10566000000E+00  0.10566000000E+00 0. -1.
     999900   -1    0    0    0    0 -0.00000000000E+00 -0.00000000000E+00 -0.74505805969E-08  0.93827000000E+00  0.93827000000E+00 0.  1.
     999902    2    1    2    0    0 -0.46094911209E-02 -0.20221607488E-01  0.11378173075E-01  0.10202736343E+01  0.10199993456E+01 0.  0.
     999903    2    3    3    0    0 -0.12338479967E+00 -0.11260560411E-01 -0.37435608378E-01  0.13090832149E+00  0.19620266326E-01 0.  0.
         14    1    1    2    0    0  0.46094911209E-02  0.20221607488E-01 -0.11378173075E-01  0.23656365746E-01  0.00000000000E+00 0.  1.
     999901    1    3    3    0    0  0.11877530855E+00 -0.89610470771E-02  0.48813781453E-01  0.88936531276E+00  0.88000000000E+00 0.  1.
        -11    1    4    4    0    0 -0.61470212083E-01  0.42257451428E-02 -0.18320524978E-01  0.64283331059E-01  0.51100000000E-03 0.  1.
         11    1    4    4    0    0 -0.61914587586E-01 -0.15486305554E-01 -0.19115083400E-01  0.66624990432E-01  0.51100000000E-03 0. -1.
</event>
<event>
 8    1  0.1060404E+005  0.1043930E+01  0.7957747E-01            NaN
         13   -1    0    0    0    0  0.00000000000E+00  0.00000000000E+00  0.74505805969E-08  0.10566000000E+00  0.10566000000E+00 0.  1.
     999900   -1    0    0    0    0 -0.00000000000E+00 -0.00000000000E+00 -0.74505805969E-08  0.93827000000E+00  0.93827000000E+00 0. -1.
     999902    2    1    2    0    0 -0.16507452039E-01  0.10155096678E-01 -0.14338533193E-01  0.10198215887E+01  0.10195365895E+01 0.  0.
     999903    2    3    3    0    0  0.10209863425E+00 -0.74805252637E-01 -0.36025707257E-02  0.12774484001E+00  0.16905877520E-01 0.  0.
         14    1    1    2    0    0  0.16507452039E-01 -0.10155096678E-01  0.14338533193E-01  0.24108411302E-01  0.00000000000E+00 0. -1.
     999901    1    3    3    0    0 -0.11860608629E+00  0.84960349316E-01 -0.10735962467E-01  0.89207674869E+00  0.88000000000E+00 0.  1.
        -11    1    4    4    0    0  0.53399556109E-01 -0.30610326454E-01  0.31529235760E-02  0.61633649302E-01  0.51100000000E-03 0. -1.
         11    1    4    4    0    0  0.48699078144E-01 -0.44194926184E-01 -0.67554943017E-02  0.66111190707E-01  0.51100000000E-03 0.  1.
</event>
<event>
 8    1  0.1060404E+005  0.1043930E+01  0.7957747E-01            NaN
         13   -1    0    0    0    0  0.00000000000E+00  0.00000000000E+00  0.74505805969E-08  0.10566000000E+00  0.10566000000E+00 0. -1.
     999900   -1    0    0    0    0 -0.00000000000E+00 -0.00000000000E+00 -0.74505805969E-08  0.93827000000E+00  0.93827000000E+00 0.  1.
     999902    2    1    2    0    0  0.17982965049E-01  0.14690412990E-01  0.60478936153E-02  0.10199347446E+01  0.10196524461E+01 0.  0.
     999903    2    3    3    0    0 -0.10019133860E+00  0.33980620791E-01  0.71815579764E-01  0.12939408480E+00  0.19808199438E-01 0.  0.
         14    1    1    2    0    0 -0.17982965049E-01 -0.14690412990E-01 -0.60478936153E-02  0.23995255426E-01  0.00000000000E+00 0. -1.
     999901    1    3    3    0    0  0.11817430365E+00 -0.19290207801E-01 -0.65767686148E-01  0.89054065977E+00  0.88000000000E+00 0.  1.
        -11    1    4    4    0    0 -0.55515560369E-01  0.26570961084E-01  0.33521033242E-01  0.70085049808E-01  0.51100000000E-03 0.  1.
         11    1    4    4    0    0 -0.44675778236E-01  0.74096597071E-02  0.38294546522E-01  0.59309034997E-01  0.51100000000E-03 0. -1.
</event>
<event>
 8    1  0.1060404E+005  0.1043930E+01  0.7957747E-01            NaN
         13   -1    0    0    0    0  0.00000000000E+00  0.00000000000E+00  0.74505805969E-08  0.10566000000E+00  0.10566000000E+00 0. -1.
     999900   -1    0    0    0    0 -0.00000000000E+00 -0.00000000000E+00 -0.74505805969E-08  0.93827000000E+00  0.93827000000E+00 0.  1.
     999902    2    1    2    0    0 -0.10340824174E-01  0.18933924828E-01 -0.11454213319E-01  0.10195040884E+01  0.10192114408E+01 0.  0.
     999903    2    3    3    0    0  0.37658557268E-01 -0.84752613256E-01 -0.87342739650E-01  0.12887851769E+00  0.19487066565E-01 0.  0.
         14    1    1    2    0    0  0.10340824174E-01 -0.18933924828E-01  0.11454213319E-01  0.24425911585E-01  0.00000000000E+00 0. -1.
     999901    1    3    3    0    0 -0.47999381442E-01  0.10368653808E+00  0.75888526331E-01  0.89062557072E+00  0.88000000000E+00 0. -1.
        -11    1    4    4    0    0  0.23002904246E-01 -0.70916297881E-01 -0.67000223167E-01  0.10023744776E+00  0.51100000000E-03 0.  1.
         11    1    4    4    0    0  0.14655653022E-01 -0.13836315376E-01 -0.20342516483E-01  0.28641069927E-01  0.51100000000E-03 0. -1.
</event>
<event>
 8    1  0.1060404E+005  0.1043930E+01  0.7957747E-01            NaN
         13   -1    0    0    0    0  0.00000000000E+00  0.00000000000E+00  0.74505805969E-08  0.10566000000E+00  0.10566000000E+00 0. -1.
     999900   -1    0    0    0    0 -0.00000000000E+00 -0.00000000000E+00 -0.74505805969E-08  0.93827000000E+00  0.93827000000E+00 0. -1.
     999902    2    1    2    0    0 -0.20522329018E-01 -0.66039002859E-02 -0.78865686517E-02  0.10209740541E+01  0.10207159466E+01 0.  0.
     999903    2    3    3    0    0  0.77991555512E-01 -0.98693457448E-01  0.26056530197E-01  0.13005452577E+00  0.20301616544E-01 0.  0.
         14    1    1    2    0    0  0.20522329018E-01  0.66039002859E-02  0.78865686517E-02  0.22955945905E-01  0.00000000000E+00 0.  1.
     999901    1    3    3    0    0 -0.98513884530E-01  0.92089557162E-01 -0.33943098849E-01  0.89091952832E+00  0.88000000000E+00 0. -1.
        -11    1    4    4    0    0  0.21687590629E-01 -0.43297167070E-01  0.10203983864E-01  0.49491197918E-01  0.51100000000E-03 0.  1.
         11    1    4    4    0    0  0.56303964883E-01 -0.55396290378E-01  0.15852546333E-01  0.80563327857E-01  0.51100000000E-03 0. -1.
</event>
<event>
 8    1  0.1060404E+005  0.1043930E+01  0.7957747E-01            NaN
         13   -1    0    0    0    0  0.00000000000E+00  0.00000000000E+00  0.74505805969E-08  0.10566000000E+00  0.10566000000E+00 0. -1.
     999900   -1    0    0    0    0 -0.00000000000E+00 -0.00000000000E+00 -0.74505805969E-08  0.93827000000E+00  0.93827000000E+00 0.  1.
     999902    2    1    2    0    0  0.98368490284E-02 -0.18798690348E-01  0.95192348610E-02  0.10206755340E+01  0.10204105916E+01 0.  0.
     999903    2    3    3    0    0  0.82537360024E-01 -0.10284634849E+00  0.68741316988E-02  0.13368265367E+00  0.20832930889E-01 0.  0.
         14    1    1    2    0    0 -0.98368490284E-02  0.18798690348E-01 -0.95192348610E-02  0.23254466022E-01  0.00000000000E+00 0.  1.
     999901    1    3    3    0    0 -0.72700510996E-01  0.84047658142E-01  0.26451031623E-02  0.88699288030E+00  0.88000000000E+00 0.  1.
        -11    1    4    4    0    0  0.62967073821E-01 -0.89453919919E-01  0.17108869565E-02  0.10940769822E+00  0.51100000000E-03 0. -1.
         11    1    4    4    0    0  0.19570286203E-01 -0.13392428571E-01  0.51632447423E-02  0.24274955456E-01  0.51100000000E-03 0.  1.
</event>
<event>
 8    1  0.1060404E+005  0.1043930E+01  0.7957747E-01            NaN
         13   -1    0    0    0    0  0.00000000000E+00  0.00000000000E+00  0.74505805969E-08  0.10566000000E+00  0.10566000000E+00 0.  1.
     999900   -1    0    0    0    0 -0.00000000000E+00 -0.00000000000E+00 -0.74505805969E-08  0.93827000000E+00  0.93827000000E+00 0.  1.
     999902    2    1    2    0    0 -0.16417217803E-02  0.20393104622E-01  0.91111798713E-02  0.10215338493E+01  0.10212883127E+01 0.  0.
     999903    2    3    3    0    0 -0.50998740518E-01 -0.10116167700E+00  0.61311289097E-01  0.13027825656E+00  0.19462618832E-01 0.  0.
         14    1    1    2    0    0  0.16417217803E-02 -0.20393104622E-01 -0.91111798713E-02  0.22396150678E-01  0.00000000000E+00 0. -1.
     999901    1    3    3    0    0  0.49357018738E-01  0.12155478163E+00 -0.52200109226E-01  0.89125559277E+00  0.88000000000E+00 0.  1.
        -11    1    4    4    0    0 -0.28518046046E-01 -0.46582880035E-01  0.39248733919E-01  0.67260448243E-01  0.51100000000E-03 0.  1.
         11    1    4    4    0    0 -0.22480694473E-01 -0.54578796969E-01  0.22062555178E-01  0.63017808312E-01  0.51100000000E-03 0. -1.
</event>
<event>
 8    1  0.1060404E+005  0.1043930E+01  0.7957747E-01            NaN
         13   -1    0    0    0    0  0.00000000000E+00  0.00000000000E+00  0.74505805969E-08  0.10566000000E+00  0.10566000000E+00 0.  1.
     999900   -1    0    0    0    0 -0.00000000000E+00 -0.00000000000E+00 -0.74505805969E-08  0.93827000000E+00  0.93827000000E+00 0. -1.
     999902    2    1    2    0    0 -0.25996715175E-01 -0.22555747813E-02  0.29239841203E-02  0.10176723059E+01  0.10173335027E+01 0.  0.
     999903    2    3    3    0    0 -0.12328604088E+00 -0.22352065074E-01  0.34834901385E-01  0.13150788070E+00  0.19539438110E-01 0.  0.
         14    1    1    2    0    0  0.25996715175E-01  0.22555747813E-02 -0.29239841203E-02  0.26257694123E-01  0.00000000000E+00 0.  1.
     999901    1    3    3    0    0  0.97289325704E-01  0.20096490293E-01 -0.31910917265E-01  0.88616442518E+00  0.88000000000E+00 0.  1.
        -11    1    4    4    0    0 -0.54166164200E-01 -0.88636495284E-04  0.16120910202E-01  0.56516599927E-01  0.51100000000E-03 0. -1.
         11    1    4    4    0    0 -0.69119876679E-01 -0.22263428579E-01  0.18713991183E-01  0.74991280768E-01  0.51100000000E-03 0.  1.
</event>
<event>
 8    1  0.1060404E+005  0.1043930E+01  0.7957747E-01            NaN
         13   -1    0    0    0    0  0.00000000000E+00  0.00000000000E+00  0.74505805969E-08  0.10566000000E+00  0.10566000000E+00 0. -1.
     999900   -1    0    0    0    0 -0.00000000000E+00 -0.00000000000E+00 -0.74505805969E-08  0.93827000000E+00  0.93827000000E+00 0.  1.
     999902    2    1    2    0    0 -0.15834522502E-01  0.15553646903E-01  0.92122357292E-02  0.10198984931E+01  0.10196153309E+01 0.  0.
     999903    2    3    3    0    0 -0.11561396056E+00 -0.40376120021E-01 -0.42434905237E-01  0.13099382882E+00  0.19022172871E-01 0.  0.
         14    1    1    2    0    0  0.15834522502E-01 -0.15553646903E-01 -0.92122357292E-02  0.24031506860E-01  0.00000000000E+00 0.  1.
     999901    1    3    3    0    0  0.99779438059E-01  0.55929766924E-01  0.51647140967E-01  0.88890466432E+00  0.88000000000E+00 0.  1.
        -11    1    4    4    0    0 -0.40399592461E-01 -0.21056700323E-01 -0.22524528757E-01  0.50824474579E-01  0.51100000000E-03 0.  1.
         11    1    4    4    0    0 -0.75214368099E-01 -0.19319419698E-01 -0.19910376480E-01  0.80169354236E-01  0.51100000000E-03 0. -1.
</event>
<event>
 8    1  0.1060404E+005  0.1043930E+01  0.7957747E-01            NaN
         13   -1    0    0    0    0  0.00000000000E+00  0.00000000000E+00  0.74505805969E-08  0.10566000000E+00  0.10566000000E+00 0. -1.
     999900   -1    0    0    0    0 -0.00000000000E+00 -0.00000000000E+00 -0.74505805969E-08  0.93827000000E+00  0.93827000000E+00 0.  1.
     999902    2    1    2    0    0  0.19617160622E-01  0.48790209500E-02  0.40711478943E-02  0.10233093288E+01  0.10231015445E+01 0.  0.
     999903    2    3    3    0    0  0.60950415777E-01  0.90835500799E-01  0.76872671673E-01  0.13516687609E+00  0.19865431106E-01 0.  0.
         14    1    1    2    0    0 -0.19617160622E-01 -0.48790209500E-02 -0.40711478943E-02  0.20620671218E-01  0.00000000000E+00 0.  1.
     999901    1    3    3    0    0 -0.41333255155E-01 -0.85956479849E-01 -0.72801523779E-01  0.88814245269E+00  0.88000000000E+00 0.  1.
        -11    1    4    4    0    0  0.42806086625E-01  0.48720461563E-01  0.38909418537E-01  0.75632323771E-01  0.51100000000E-03 0. -1.
         11    1    4    4    0    0  0.18144329152E-01  0.42115039236E-01  0.37963253136E-01  0.59534552320E-01  0.51100000000E-03 0.  1.
</event>
<event>
 8    1  0.1060404E+005  0.1043930E+01  0.7957747E-01            NaN
         13   -1    0    0    0    0  0.00000000000E+00  0.00000000000E+00  0.74505805969E-08  0.10566000000E+00  0.10566000000E+00 0. -1.
     999900   -1    0    0    0    0 -0.00000000000E+00 -0.00000000000E+00 -0.74505805969E-08  0.93827000000E+00  0.93827000000E+00 0. -1.
     999902    2    1    2    0    0 -0.69559298135E-02 -0.48568189979E-03 -0.24975020217E-01  0.10179998538E+01  0.10176695583E+01 0.  0.
     999903    2    3    3    0    0  0.11493344226E-02  0.12673321802E+00  0.10863856251E-02  0.12843280143E+00  0.20764747337E-01 0.  0.
         14    1    1    2    0    0  0.69559298135E-02  0.48568189979E-03  0.24975020217E-01  0.25930146188E-01  0.00000000000E+00 0. -1.
     999901    1    3    3    0    0 -0.81052642361E-02 -0.12721889992E+00 -0.26061405842E-01  0.88956705238E+00  0.88000000000E+00 0. -1.
        -11    1    4    4    0    0  0.53619394034E-02  0.19842838021E-01 -0.54113832151E-02  0.21261063101E-01  0.51100000000E-03 0. -1.
         11    1    4    4    0    0 -0.42126049809E-02  0.10689038000E+00  0.64977688402E-02  0.10717173833E+00  0.51100000000E-03 0.  1.
</event>
<event>
 8    1  0.1060404E+005  0.1043930E+01  0.7957747E-01            NaN
         13   -1    0    0    0    0  0.00000000000E+00  0.00000000000E+00  0.74505805969E-08  0.10566000000E+00  0.10566000000E+00 0.  1.
     999900   -1    0    0    0    0 -0.00000000000E+00 -0.00000000000E+00 -0.74505805969E-08  0.93827000000E+00  0.93827000000E+00 0.  1.
     999902    2    1    2    0    0  0.26262604917E-02  0.23604475382E-01  0.16809575138E-02  0.10201204616E+01  0.10198425673E+01 0.  0.
     999903    2    3    3    0    0 -0.78011781608E-01 -0.47932429973E-01 -0.88710470656E-01  0.12894672264E+00  0.19348223783E-01 0.  0.
         14    1    1    2    0    0 -0.26262604917E-02 -0.23604475382E-01 -0.16809575138E-02  0.23809538433E-01  0.00000000000E+00 0.  1.
     999901    1    3    3    0    0  0.80638042099E-01  0.71536905356E-01  0.90391428170E-01  0.89117373892E+00  0.88000000000E+00 0.  1.
        -11    1    4    4    0    0 -0.36581183618E-01 -0.12364777360E-01 -0.42364484372E-01  0.57324352340E-01  0.51100000000E-03 0.  1.
         11    1    4    4    0    0 -0.41430597989E-01 -0.35567652613E-01 -0.46345986284E-01  0.71622370303E-01  0.51100000000E-03 0. -1.
</event>
<event>
 8    1  0.1060404E+005  0.1043930E+01  0.7957747E-01            NaN
         13   -1    0    0    0    0  0.00000000000E+00  0.00000000000E+00  0.74505805969E-08  0.10566000000E+00  0.10566000000E+00 0. -1.
     999900   -1    0    0    0    0 -0.00000000000E+00 -0.00000000000E+00 -0.74505805969E-08  0.93827000000E+00  0.93827000000E+00 0. -1.
     999902    2    1    2    0    0 -0.47009665206E-02  0.49466315735E-02 -0.20819936332E-01  0.10220202305E+01  0.10217853559E+01 0.  0.
     999903    2    3    3    0    0  0.12691611488E+00 -0.23136402988E-01  0.11371852171E-01  0.13120710522E+00  0.21047377029E-01 0.  0.
         14    1    1    2    0    0  0.47009665206E-02 -0.49466315735E-02  0.20819936332E-01  0.21909769489E-01  0.00000000000E+00 0. -1.
     999901    1    3    3    0    0 -0.13161708140E+00  0.28083034562E-01 -0.32191788504E-01  0.89081312529E+00  0.88000000000E+00 0.  1.
        -11    1    4    4    0    0  0.44811371605E-01  0.64681670591E-03  0.88744391771E-02  0.45689103610E-01  0.51100000000E-03 0.  1.
         11    1    4    4    0    0  0.82104743271E-01 -0.23783219694E-01  0.24974129943E-02  0.85518001609E-01  0.51100000000E-03 0. -1.
</event>
<event>
 8    1  0.1060404E+005  0.1043930E+01  0.7957747E-01            NaN
         13   -1    0    0    0    0  0.00000000000E+00  0.00000000000E+00  0.74505805969E-08  0.10566000000E+00  0.10566000000E+00 0.  1.
     999900   -1    0    0    0    0 -0.00000000000E+00 -0.00000000000E+00 -0.74505805969E-08  0.93827000000E+00  0.93827000000E+00 0.  1.
     999902    2    1    2    0    0 -0.11369127376E-01 -0.18610945718E-01 -0.12196031130E-01  0.10189426525E+01  0.10186362263E+01 0.  0.
     999903    2    3    3    0    0 -0.61064806416E-02  0.37870610508E-01  0.11982331871E+00  0.12728858824E+00  0.19320578245E-01 0.  0.
         14    1    1    2    0    0  0.11369127376E-01  0.18610945718E-01  0.12196031130E-01  0.24987347461E-01  0.00000000000E+00 0. -1.
     999901    1    3    3    0    0 -0.52626467348E-02 -0.56481556226E-01 -0.13201934984E+00  0.89165406430E+00  0.88000000000E+00 0.  1.
        -11    1    4    4    0    0  0.76262191938E-04  0.17672327159E-01  0.82741731419E-01  0.84609527846E-01  0.51100000000E-03 0. -1.
         11    1    4    4    0    0 -0.61827428335E-02  0.20198283349E-01  0.37081587292E-01  0.42679060396E-01  0.51100000000E-03 0.  1.
</event>
<event>
 8    1  0.1060404E+005  0.1043930E+01  0.7957747E-01            NaN
         13   -1    0    0    0    0  0.00000000000E+00  0.00000000000E+00  0.74505805969E-08  0.10566000000E+00  0.10566000000E+00 0. -1.
     999900   -1    0    0    0    0 -0.00000000000E+00 -0.00000000000E+00 -0.74505805969E-08  0.93827000000E+00  0.93827000000E+00 0. -1.
     999902    2    1    2    0    0  0.49141034931E-02  0.21061505832E-01  0.18452863624E-01  0.10155003743E+01  0.10151023429E+01 0.  0.
     999903    2    3    3    0    0 -0.10535946426E+00  0.21338804927E-01  0.65505708143E-01  0.12737070651E+00  0.19399427166E-01 0.  0.
         14    1    1    2    0    0 -0.49141034931E-02 -0.21061505832E-01 -0.18452863624E-01  0.28429625691E-01  0.00000000000E+00 0.  1.
     999901    1    3    3    0    0  0.11027356775E+00 -0.27729909593E-03 -0.47052844520E-01  0.88812966779E+00  0.88000000000E+00 0.  1.
        -11    1    4    4    0    0 -0.97130977187E-02  0.36842215553E-02  0.13607798138E-01  0.17127493889E-01  0.51100000000E-03 0. -1.
         11    1    4    4    0    0 -0.95646366538E-01  0.17654583372E-01  0.51897910006E-01  0.11024321263E+00  0.51100000000E-03 0.  1.
</event>
<event>
 8    1  0.1182671E+005  0.1043930E+01  0.7957747E-01            NaN
         13   -1    0    0    0    0  0.00000000000E+00  0.00000000000E+00  0.74505805969E-08  0.10566000000E+00  0.10566000000E+00 0. -1.
     999900   -1    0    0    0    0 -0.00000000000E+00 -0.00000000000E+00 -0.74505805969E-08  0.93827000000E+00  0.93827000000E+00 0.  1.
     999902    2    1    2    0    0  0.68838744560E-02  0.13698152040E-02 -0.25978244089E-01  0.10170202752E+01  0.10166642056E+01 0.  0.
     999903    2    3    3    0    0  0.76103887229E-01  0.69105569867E-01 -0.77506866787E-01  0.13020871600E+00  0.19483682535E-01 0.  0.
         14    1    1    2    0    0 -0.68838744560E-02 -0.13698152040E-02  0.25978244089E-01  0.26909724770E-01  0.00000000000E+00 0. -1.
     999901    1    3    3    0    0 -0.69220012773E-01 -0.67735754663E-01  0.51528622698E-01  0.88681155923E+00  0.88000000000E+00 0.  1.
        -11    1    4    4    0    0  0.44137891733E-01  0.28260452378E-01 -0.33661845857E-01  0.62291152203E-01  0.51100000000E-03 0. -1.
         11    1    4    4    0    0  0.31965995496E-01  0.40845117489E-01 -0.43845020930E-01  0.67917563797E-01  0.51100000000E-03 0.  1.
</event>
<event>
 8    1  0.1060404E+005  0.1043930E+01  0.7957747E-01            NaN
         13   -1    0    0    0    0  0.00000000000E+00  0.00000000000E+00  0.74505805969E-08  0.10566000000E+00  0.10566000000E+00 0. -1.
     999900   -1    0    0    0    0 -0.00000000000E+00 -0.00000000000E+00 -0.74505805969E-08  0.93827000000E+00  0.93827000000E+00 0.  1.
     999902    2    1    2    0    0 -0.48545172599E-02 -0.13991332963E-01 -0.19637213198E-01  0.10193343931E+01  0.10190376152E+01 0.  0.
     999903    2    3    3    0    0 -0.19215774285E-01 -0.12360464008E+00  0.32279288643E-01  0.13089945123E+00  0.21103573757E-01 0.  0.
         14    1    1    2    0    0  0.48545172599E-02  0.13991332963E-01  0.19637213198E-01  0.24595606886E-01  0.00000000000E+00 0. -1.
     999901    1    3    3    0    0  0.14361257025E-01  0.10961330712E+00 -0.51916501841E-01  0.88843494189E+00  0.88000000000E+00 0.  1.
        -11    1    4    4    0    0 -0.67958192841E-02 -0.64992781325E-01  0.27150683188E-01  0.70764860649E-01  0.51100000000E-03 0.  1.
         11    1    4    4    0    0 -0.12419955001E-01 -0.58611858756E-01  0.51286054544E-02  0.60134590578E-01  0.51100000000E-03 0. -1.
</event>
<event>
 8    1  0.1060404E+005  0.1043930E+01  0.7957747E-01            NaN
         13   -1    0    0    0    0  0.00000000000E+00  0.00000000000E+00  0.74505805969E-08  0.10566000000E+00  0.10566000000E+00 0. -1.
     999900   -1    0    0    0    0 -0.00000000000E+00 -0.00000000000E+00 -0.74505805969E-08  0.93827000000E+00  0.93827000000E+00 0. -1.
     999902    2    1    2    0    0 -0.10835315203E-01  0.20809224267E-01  0.31289411276E-02  0.10202610722E+01  0.10199864888E+01 0.  0.
     999903    2    3    3    0    0  0.43607321503E-01 -0.95790637284E-01 -0.69696521030E-01  0.12792533027E+00  0.20732592723E-01 0.  0.
         14    1    1    2    0    0  0.10835315203E-01 -0.20809224267E-01 -0.31289411276E-02  0.23668927790E-01  0.00000000000E+00 0. -1.
     999901    1    3    3    0    0 -0.54442636706E-01  0.11659986155E+00  0.72825462158E-01  0.89233574194E+00  0.88000000000E+00 0.  1.
        -11    1    4    4    0    0  0.25293415333E-01 -0.39998293325E-01 -0.21618984949E-01  0.52031355540E-01  0.51100000000E-03 0.  1.
         11    1    4    4    0    0  0.18313906170E-01 -0.55792343959E-01 -0.48077536082E-01  0.75893974730E-01  0.51100000000E-03 0. -1.
</event>
<event>
 8    1  0.1060404E+005  0.1043930E+01  0.7957747E-01            NaN
         13   -1    0    0    0    0  0.00000000000E+00  0.00000000000E+00  0.74505805969E-08  0.10566000000E+00  0.10566000000E+00 0.  1.
     999900   -1    0    0    0    0 -0.00000000000E+00 -0.00000000000E+00 -0.74505805969E-08  0.93827000000E+00  0.93827000000E+00 0.  1.
     999902    2    1    2    0    0  0.93066903809E-02 -0.28749926277E-03  0.21531547354E-01  0.10204714264E+01  0.10202017582E+01 0.  0.
     999903    2    3    3    0    0  0.96822819464E-01  0.24898835852E-01 -0.80175400934E-01  0.12994476898E+00  0.21515986500E-01 0.  0.
         14    1    1    2    0    0 -0.93066903809E-02  0.28749926277E-03 -0.21531547354E-01  0.23458573553E-01  0.00000000000E+00 0. -1.
     999901    1    3    3    0    0 -0.87516129083E-01 -0.25186335115E-01  0.10170694829E+00  0.89052665747E+00  0.88000000000E+00 0. -1.
        -11    1    4    4    0    0  0.33496455389E-01 -0.16396094455E-03 -0.19705389368E-01  0.38866475245E-01  0.51100000000E-03 0. -1.
         11    1    4    4    0    0  0.63326364075E-01  0.25062796797E-01 -0.60470011566E-01  0.91078293737E-01  0.51100000000E-03 0.  1.
</event>
<event>
 8    1  0.1060404E+005  0.1043930E+01  0.7957747E-01            NaN
         13   -1    0    0    0    0  0.00000000000E+00  0.00000000000E+00  0.74505805969E-08  0.10566000000E+00  0.10566000000E+00 0. -1.
     999900   -1    0    0    0    0 -0.00000000000E+00 -0.00000000000E+00 -0.74505805969E-08  0.93827000000E+00  0.93827000000E+00 0.  1.
     999902    2    1    2    0    0 -0.93803068068E-02 -0.13063643125E-01 -0.17472240914E-01  0.10201828290E+01  0.10199064057E+01 0.  0.
     999903    2    3    3    0    0 -0.91712923075E-01  0.28819596000E-02  0.89688168056E-01  0.12972436552E+00  0.19101768784E-01 0.  0.
         14    1    1    2    0    0  0.93803068068E-02  0.13063643125E-01  0.17472240914E-01  0.23747170990E-01  0.00000000000E+00 0. -1.
     999901    1    3    3    0    0  0.82332616268E-01 -0.15945602725E-01 -0.10716040897E+00  0.89045846349E+00  0.88000000000E+00 0.  1.
        -11    1    4    4    0    0 -0.11047304968E-01  0.62179693705E-02  0.15967080731E-01  0.20393991228E-01  0.51100000000E-03 0.  1.
         11    1    4    4    0    0 -0.80665618106E-01 -0.33360097705E-02  0.73721087325E-01  0.10933037429E+00  0.51100000000E-03 0. -1.
</event>
<event>
 8    1  0.1060404E+005  0.1043930E+01  0.7957747E-01            NaN
         13   -1    0    0    0    0  0.00000000000E+00  0.00000000000E+00  0.74505805969E-08  0.10566000000E+00  0.10566000000E+00 0.  1.
     999900   -1    0    0    0    0 -0.00000000000E+00 -0.00000000000E+00 -0.74505805969E-08  0.93827000000E+00  0.93827000000E+00 0. -1.
     999902    2    1    2    0    0 -0.17353970451E-01  0.32223325772E-02  0.16915244764E-01  0.10194827257E+01  0.10191895597E+01 0.  0.
     999903    2    3    3    0    0  0.10188767371E+00  0.29201635999E-01  0.71587893764E-01  0.12938015153E+00  0.19508036220E-01 0.  0.
         14    1    1    2    0    0  0.17353970451E-01 -0.32223325772E-02 -0.16915244764E-01  0.24447274349E-01  0.00000000000E+00 0. -1.
     999901    1    3    3    0    0 -0.11924164416E+00 -0.25979303422E-01 -0.54672649000E-01  0.89010257412E+00  0.88000000000E+00 0. -1.
        -11    1    4    4    0    0  0.77760608649E-01  0.23514729147E-01  0.64092863920E-01  0.10347855368E+00  0.51100000000E-03 0. -1.
         11    1    4    4    0    0  0.24127065062E-01  0.56869068521E-02  0.74950298436E-02  0.25901597855E-01  0.51100000000E-03 0.  1.
</event>
<event>
 8    1  0.1060404E+005  0.1043930E+01  0.7957747E-01            NaN
         13   -1    0    0    0    0  0.00000000000E+00  0.00000000000E+00  0.74505805969E-08  0.10566000000E+00  0.10566000000E+00 0.  1.
     999900   -1    0    0    0    0 -0.00000000000E+00 -0.00000000000E+00 -0.74505805969E-08  0.93827000000E+00  0.93827000000E+00 0.  1.
     999902    2    1    2    0    0 -0.10521879712E-01  0.10198840677E-01 -0.18004226269E-01  0.10207162440E+01  0.10204522391E+01 0.  0.
     999903    2    3    3    0    0  0.54035697884E-01  0.73562554468E-01  0.89709198559E-01  0.12954576484E+00  0.20076324764E-01 0.  0.
         14    1    1    2    0    0  0.10521879712E-01 -0.10198840677E-01  0.18004226269E-01  0.23213755994E-01  0.00000000000E+00 0.  1.
     999901    1    3    3    0    0 -0.64557577595E-01 -0.63363713792E-01 -0.10771342483E+00  0.89117047917E+00  0.88000000000E+00 0.  1.
        -11    1    4    4    0    0  0.35469052654E-01  0.56006371153E-01  0.74827912021E-01  0.99971220080E-01  0.51100000000E-03 0.  1.
         11    1    4    4    0    0  0.18566645230E-01  0.17556183315E-01  0.14881286538E-01  0.29574544759E-01  0.51100000000E-03 0. -1.
</event>
<event>
 8    1  0.1060404E+005  0.1043930E+01  0.7957747E-01            NaN
         13   -1    0    0    0    0  0.00000000000E+00  0.00000000000E+00  0.74505805969E-08  0.10566000000E+00  0.10566000000E+00 0. -1.
     999900   -1    0    0    0    0 -0.00000000000E+00 -0.00000000000E+00 -0.74505805969E-08  0.93827000000E+00  0.93827000000E+00 0. -1.
     999902    2    1    2    0    0 -0.17643949299E-01  0.12922749471E-01  0.10160332083E-01  0.10198148855E+01  0.10195297258E+01 0.  0.
     999903    2    3    3    0    0 -0.85205100692E-01  0.29601252177E-02 -0.96889291931E-01  0.13070106539E+00  0.20653379325E-01 0.  0.
         14    1    1    2    0    0  0.17643949299E-01 -0.12922749471E-01 -0.10160332083E-01  0.24115114530E-01  0.00000000000E+00 0.  1.
     999901    1    3    3    0    0  0.67561151393E-01  0.99626242536E-02  0.10704962401E+00  0.88911382008E+00  0.88000000000E+00 0.  1.
        -11    1    4    4    0    0 -0.70772190226E-01  0.98185672682E-02 -0.83038538150E-01  0.10954801281E+00  0.51100000000E-03 0. -1.
         11    1    4    4    0    0 -0.14432910466E-01 -0.68584420505E-02 -0.13850753780E-01  0.21153052573E-01  0.51100000000E-03 0.  1.
</event>
<event>
 8    1  0.1060404E+005  0.1043930E+01  0.7957747E-01            NaN
         13   -1    0    0    0    0  0.00000000000E+00  0.00000000000E+00  0.74505805969E-08  0.10566000000E+00  0.10566000000E+00 0.  1.
     999900   -1    0    0    0    0 -0.00000000000E+00 -0.00000000000E+00 -0.74505805969E-08  0.93827000000E+00  0.93827000000E+00 0. -1.
     999902    2    1    2    0    0  0.12725830024E-01 -0.12935546029E-01 -0.17494219482E-01  0.10187243892E+01  0.10184125187E+01 0.  0.
     999903    2    3    3    0    0  0.23833605109E-01  0.39404613667E-01  0.11649391834E+00  0.12697571604E+00  0.20766201951E-01 0.  0.
         14    1    1    2    0    0 -0.12725830024E-01  0.12935546029E-01  0.17494219482E-01  0.25205610807E-01  0.00000000000E+00 0.  1.
     999901    1    3    3    0    0 -0.11107775085E-01 -0.52340159695E-01 -0.13398813782E+00  0.89174867315E+00  0.88000000000E+00 0. -1.
        -11    1    4    4    0    0  0.74498856479E-02  0.45987562594E-02  0.80303449565E-02  0.11891043538E-01  0.51100000000E-03 0.  1.
         11    1    4    4    0    0  0.16383719461E-01  0.34805857407E-01  0.10846357339E+00  0.11508467251E+00  0.51100000000E-03 0. -1.
</event>
<event>
 8    1  0.1060404E+005  0.1043930E+01  0.7957747E-01            NaN
         13   -1    0    0    0    0  0.00000000000E+00  0.00000000000E+00  0.74505805969E-08  0.10566000000E+00  0.10566000000E+00 0.  1.
     999900   -1    0    0    0    0 -0.00000000000E+00 -0.00000000000E+00 -0.74505805969E-08  0.93827000000E+00  0.93827000000E+00 0. -1.
     999902    2    1    2    0    0 -0.92536684113E-02  0.19562963555E-01 -0.96867896398E-02  0.10202197951E+01  0.10199442419E+01 0.  0.
     999903    2    3    3    0    0 -0.26153980972E-01  0.11849627710E+00  0.49594555116E-01  0.13253308296E+00  0.19493582907E-01 0.  0.
         14    1    1    2    0    0  0.92536684113E-02 -0.19562963555E-01  0.96867896398E-02  0.23710204884E-01  0.00000000000E+00 0. -1.
     999901    1    3    3    0    0  0.16900312560E-01 -0.98933313550E-01 -0.59281344755E-01  0.88768671215E+00  0.88000000000E+00 0. -1.
        -11    1    4    4    0    0 -0.10392784759E-01  0.16223170415E-01  0.54522323582E-02  0.20029707737E-01  0.51100000000E-03 0.  1.
         11    1    4    4    0    0 -0.15761196213E-01  0.10227310669E+00  0.44142322757E-01  0.11250337523E+00  0.51100000000E-03 0. -1.
</event>
<event>
 8    1  0.1060404E+005  0.1043930E+01  0.7957747E-01            NaN
         13   -1    0    0    0    0  0.00000000000E+00  0.00000000000E+00  0.74505805969E-08  0.10566000000E+00  0.10566000000E+00 0. -1.
     999900   -1    0    0    0    0 -0.00000000000E+00 -0.00000000000E+00 -0.74505805969E-08  0.93827000000E+00  0.93827000000E+00 0.  1.
     999902    2    1    2    0    0 -0.63503092362E-02  0.19325008812E-01 -0.11621201347E-01  0.10205027784E+01  0.10202338388E+01 0.  0.
     999903    2    3    3    0    0  0.40919760211E-01 -0.15414496737E-01  0.11964846406E+00  0.12883410796E+00  0.19246790314E-01 0.  0.
         14    1    1    2    0    0  0.63503092362E-02 -0.19325008812E-01  0.11621201347E-01  0.23427221639E-01  0.00000000000E+00 0.  1.
     999901    1    3    3    0    0 -0.47270069447E-01  0.34739505549E-01 -0.13126966541E+00  0.89166867040E+00  0.88000000000E+00 0.  1.
        -11    1    4    4    0    0  0.16601728594E-01  0.34605873544E-02  0.44353859513E-01  0.47488093579E-01  0.51100000000E-03 0.  1.
         11    1    4    4    0    0  0.24318031617E-01 -0.18875084091E-01  0.75294604548E-01  0.81346014385E-01  0.51100000000E-03 0. -1.
</event>
<event>
 8    1  0.1060404E+005  0.1043930E+01  0.7957747E-01            NaN
         13   -1    0    0    0    0  0.00000000000E+00  0.00000000000E+00  0.74505805969E-08  0.10566000000E+00  0.10566000000E+00 0. -1.
     999900   -1    0    0    0    0 -0.00000000000E+00 -0.00000000000E+00 -0.74505805969E-08  0.93827000000E+00  0.93827000000E+00 0. -1.
     999902    2    1    2    0    0 -0.93908069781E-03 -0.99814597417E-02  0.21382914691E-01  0.10203134708E+01  0.10200401160E+01 0.  0.
     999903    2    3    3    0    0  0.17486164912E-01 -0.10572107960E+00  0.76264479070E-01  0.13322973709E+00  0.21240984954E-01 0.  0.
         14    1    1    2    0    0  0.93908069781E-03  0.99814597417E-02 -0.21382914691E-01  0.23616529208E-01  0.00000000000E+00 0.  1.
     999901    1    3    3    0    0 -0.18425245610E-01  0.95739619863E-01 -0.54881564379E-01  0.88708373370E+00  0.88000000000E+00 0. -1.
        -11    1    4    4    0    0  0.18467649430E-01 -0.80763146735E-01  0.67121090521E-01  0.10662664704E+00  0.51100000000E-03 0. -1.
         11    1    4    4    0    0 -0.98148451819E-03 -0.24957932869E-01  0.91433885481E-02  0.26603090048E-01  0.51100000000E-03 0.  1.
</event>
<event>
 8    1  0.1060404E+005  0.1043930E+01  0.7957747E-01            NaN
         13   -1    0    0    0    0  0.00000000000E+00  0.00000000000E+00  0.74505805969E-08  0.10566000000E+00  0.10566000000E+00 0.  1.
     999900   -1    0    0    0    0 -0.00000000000E+00 -0.00000000000E+00 -0.74505805969E-08  0.93827000000E+00  0.93827000000E+00 0. -1.
     999902    2    1    2    0    0 -0.11843405237E-01  0.19807200657E-01 -0.53955836586E-02  0.10202297095E+01  0.10199543894E+01 0.  0.
     999903    2    3    3    0    0 -0.50722946733E-01  0.83867237154E-01 -0.87947285216E-01  0.13319527364E+00  0.19993127558E-01 0.  0.
         14    1    1    2    0    0  0.11843405237E-01 -0.19807200657E-01  0.53955836586E-02  0.23700290473E-01  0.00000000000E+00 0.  1.
     999901    1    3    3    0    0  0.38879541496E-01 -0.64060036497E-01  0.82551701557E-01  0.88703443589E+00  0.88000000000E+00 0.  1.
        -11    1    4    4    0    0 -0.23058608067E-01  0.22546573842E-01 -0.34906806678E-01  0.47526767946E-01  0.51100000000E-03 0.  1.
         11    1    4    4    0    0 -0.27664338665E-01  0.61320663313E-01 -0.53040478538E-01  0.85668505692E-01  0.51100000000E-03 0. -1.
</event>
<event>
 8    1  0.1060404E+005  0.1043930E+01  0.7957747E-01            NaN
         13   -1    0    0    0    0  0.00000000000E+00  0.00000000000E+00  0.74505805969E-08  0.10566000000E+00  0.10566000000E+00 0.  1.
     999900   -1    0    0    0    0 -0.00000000000E+00 -0.00000000000E+00 -0.74505805969E-08  0.93827000000E+00  0.93827000000E+00 0. -1.
     999902    2    1    2    0    0 -0.66693135503E-02  0.23863868659E-01  0.29095367689E-02  0.10189814655E+01  0.10186760023E+01 0.  0.
     999903    2    3    3    0    0  0.69605996334E-01 -0.10243221723E+00  0.16456403797E-01  0.12659581913E+00  0.20453223290E-01 0.  0.
         14    1    1    2    0    0  0.66693135503E-02 -0.23863868659E-01 -0.29095367689E-02  0.24948534522E-01  0.00000000000E+00 0. -1.
     999901    1    3    3    0    0 -0.76275309884E-01  0.12629608588E+00 -0.13546867028E-01  0.89238564635E+00  0.88000000000E+00 0.  1.
        -11    1    4    4    0    0  0.25164621142E-01 -0.21171513233E-01  0.50479268783E-02  0.33275123089E-01  0.51100000000E-03 0. -1.
         11    1    4    4    0    0  0.44441375191E-01 -0.81260703993E-01  0.11408476918E-01  0.93320696037E-01  0.51100000000E-03 0.  1.
</event>
<event>
 8    1  0.1060404E+005  0.1043930E+01  0.7957747E-01            NaN
         13   -1    0    0    0    0  0.00000000000E+00  0.00000000000E+00  0.74505805969E-08  0.10566000000E+00  0.10566000000E+00 0. -1.
     999900   -1    0    0    0    0 -0.00000000000E+00 -0.00000000000E+00 -0.74505805969E-08  0.93827000000E+00  0.93827000000E+00 0.  1.
     999902    2    1    2    0    0 -0.13692784101E-01  0.13939809477E-01 -0.36486648168E-02  0.10240522894E+01  0.10238593497E+01 0.  0.
     999903    2    3    3    0    0 -0.67478159332E-01  0.72338516323E-01  0.90071993616E-01  0.13552157107E+00  0.21609471575E-01 0.  0.
         14    1    1    2    0    0  0.13692784101E-01 -0.13939809477E-01  0.36486648168E-02  0.19877710623E-01  0.00000000000E+00 0. -1.
     999901    1    3    3    0    0  0.53785375231E-01 -0.58398706846E-01 -0.93720658433E-01  0.88853071830E+00  0.88000000000E+00 0.  1.
        -11    1    4    4    0    0 -0.51074336694E-01  0.41263392119E-01  0.52445267267E-01  0.84035841030E-01  0.51100000000E-03 0. -1.
         11    1    4    4    0    0 -0.16403822638E-01  0.31075124204E-01  0.37626726349E-01  0.51485730044E-01  0.51100000000E-03 0.  1.
</event>
<event>
 8    1  0.1060404E+005  0.1043930E+01  0.7957747E-01            NaN
         13   -1    0    0    0    0  0.00000000000E+00  0.00000000000E+00  0.74505805969E-08  0.10566000000E+00  0.10566000000E+00 0.  1.
     999900   -1    0    0    0    0 -0.00000000000E+00 -0.00000000000E+00 -0.74505805969E-08  0.93827000000E+00  0.93827000000E+00 0.  1.
     999902    2    1    2    0    0 -0.20537781994E-01 -0.89511152149E-02 -0.56535249465E-02  0.10208240420E+01  0.10205625112E+01 0.  0.
     999903    2    3    3    0    0  0.60205579219E-01 -0.10768050712E-01 -0.11346145682E+00  0.13057388509E+00  0.20865631990E-01 0.  0.
         14    1    1    2    0    0  0.20537781994E-01  0.89511152149E-02  0.56535249465E-02  0.23105958044E-01  0.00000000000E+00 0. -1.
     999901    1    3    3    0    0 -0.80743361212E-01  0.18169354976E-02  0.10780793187E+00  0.89025015687E+00  0.88000000000E+00 0. -1.
        -11    1    4    4    0    0  0.27297694936E-01 -0.97793312200E-02 -0.72049605049E-01  0.77667278674E-01  0.51100000000E-03 0. -1.
         11    1    4    4    0    0  0.32907884283E-01 -0.98871949246E-03 -0.41411851767E-01  0.52906606412E-01  0.51100000000E-03 0.  1.
</event>
<event>
 8    1  0.1060404E+005  0.1043930E+01  0.7957747E-01            NaN
         13   -1    0    0    0    0  0.00000000000E+00  0.00000000000E+00  0.74505805969E-08  0.10566000000E+00  0.10566000000E+00 0.  1.
     999900   -1    0    0    0    0 -0.00000000000E+00 -0.00000000000E+00 -0.74505805969E-08  0.93827000000E+00  0.93827000000E+00 0. -1.
     999902    2    1    2    0    0  0.24292963044E-01  0.23277098027E-02 -0.34576021291E-02  0.10192820528E+01  0.10189839949E+01 0.  0.
     999903    2    3    3    0    0  0.99241028010E-01 -0.42521770244E-01 -0.73568683899E-01  0.13218326912E+00  0.20079412333E-01 0.  0.
         14    1    1    2    0    0 -0.24292963044E-01 -0.23277098027E-02  0.34576021291E-02  0.24647947153E-01  0.00000000000E+00 0.  1.
     999901    1    3    3    0    0 -0.74948064966E-01  0.44849480047E-01  0.70111081769E-01  0.88709878373E+00  0.88000000000E+00 0.  1.
        -11    1    4    4    0    0  0.64204870486E-01 -0.26763007013E-01 -0.35498465045E-01  0.78095621389E-01  0.51100000000E-03 0.  1.
         11    1    4    4    0    0  0.35036157524E-01 -0.15758763231E-01 -0.38070218853E-01  0.54087647732E-01  0.51100000000E-03 0. -1.
</event>
<event>
 8    1  0.1060404E+005  0.1043930E+01  0.7957747E-01            NaN
         13   -1    0    0    0    0  0.00000000000E+00  0.00000000000E+00  0.74505805969E-08  0.10566000000E+00  0.10566000000E+00 0.  1.
     999900   -1    0    0    0    0 -0.00000000000E+00 -0.00000000000E+00 -0.74505805969E-08  0.93827000000E+00  0.93827000000E+00 0.  1.
     999902    2    1    2    0    0 -0.21003011325E-02 -0.65477521582E-02  0.21851218110E-01  0.10210223581E+01  0.10207653480E+01 0.  0.
     999903    2    3    3    0    0 -0.63794362044E-01  0.29564324318E-01 -0.10596240025E+00  0.12892003202E+00  0.21179577115E-01 0.  0.
         14    1    1    2    0    0  0.21003011325E-02  0.65477521582E-02 -0.21851218110E-01  0.22907641871E-01  0.00000000000E+00 0. -1.
     999901    1    3    3    0    0  0.61694060912E-01 -0.36112076476E-01  0.12781361836E+00  0.89210232611E+00  0.88000000000E+00 0. -1.
        -11    1    4    4    0    0 -0.98266529362E-02 -0.19453816002E-02 -0.22662894290E-01  0.24783371766E-01  0.51100000000E-03 0. -1.
         11    1    4    4    0    0 -0.53967709108E-01  0.31509705918E-01 -0.83299505962E-01  0.10413666025E+00  0.51100000000E-03 0.  1.
</event>
<event>
 8    1  0.1060404E+005  0.1043930E+01  0.7957747E-01            NaN
         13   -1    0    0    0    0  0.00000000000E+00  0.00000000000E+00  0.74505805969E-08  0.10566000000E+00  0.10566000000E+00 0. -1.
     999900   -1    0    0    0    0 -0.00000000000E+00 -0.00000000000E+00 -0.74505805969E-08  0.93827000000E+00  0.93827000000E+00 0. -1.
     999902    2    1    2    0    0 -0.54831237576E-02  0.84927070233E-02 -0.21122609414E-01  0.10205130116E+01  0.10202443097E+01 0.  0.
     999903    2    3    3    0    0 -0.18036045165E-01 -0.10263042851E+00  0.72437511943E-01  0.12851557693E+00  0.20267130973E-01 0.  0.
         14    1    1    2    0    0  0.54831237576E-02 -0.84927070233E-02  0.21122609414E-01  0.23416988431E-01  0.00000000000E+00 0. -1.
     999901    1    3    3    0    0  0.12552921407E-01  0.11112313553E+00 -0.93560121357E-01  0.89199743463E+00  0.88000000000E+00 0. -1.
        -11    1    4    4    0    0 -0.98307882114E-02 -0.42362698598E-01  0.18659371791E-01  0.47325214273E-01  0.51100000000E-03 0.  1.
         11    1    4    4    0    0 -0.82052569531E-02 -0.60267729908E-01  0.53778140151E-01  0.81190362661E-01  0.51100000000E-03 0. -1.
</event>
<event>
 8    1  0.1060404E+005  0.1043930E+01  0.7957747E-01            NaN
         13   -1    0    0    0    0  0.00000000000E+00  0.00000000000E+00  0.74505805969E-08  0.10566000000E+00  0.10566000000E+00 0.  1.
     999900   -1    0    0    0    0 -0.00000000000E+00 -0.00000000000E+00 -0.74505805969E-08  0.93827000000E+00  0.93827000000E+00 0.  1.
     999902    2    1    2    0    0 -0.18922849399E-01  0.14875521817E-01  0.15401718807E-03  0.10198597050E+01  0.10195756170E+01 0.  0.
     999903    2    3    3    0    0  0.88732415006E-01 -0.73800508993E-01 -0.50357513986E-01  0.12744471794E+00  0.19655032848E-01 0.  0.
         14    1    1    2    0    0  0.18922849399E-01 -0.14875521817E-01 -0.15401718807E-03  0.24070294971E-01  0.00000000000E+00 0. -1.
     999901    1    3    3    0    0 -0.10765526440E+00  0.88676030810E-01  0.50511531174E-01  0.89241498709E+00  0.88000000000E+00 0. -1.
        -11    1    4    4    0    0  0.77213818935E-01 -0.56306997700E-01 -0.45934321109E-01  0.10603148024E+00  0.51100000000E-03 0.  1.
         11    1    4    4    0    0  0.11518596071E-01 -0.17493511293E-01 -0.44231928764E-02  0.21413237705E-01  0.51100000000E-03 0. -1.
</event>
<event>
 8    1  0.1060404E+005  0.1043930E+01  0.7957747E-01            NaN
         13   -1    0    0    0    0  0.00000000000E+00  0.00000000000E+00  0.74505805969E-08  0.10566000000E+00  0.10566000000E+00 0. -1.
     999900   -1    0    0    0    0 -0.00000000000E+00 -0.00000000000E+00 -0.74505805969E-08  0.93827000000E+00  0.93827000000E+00 0. -1.
     999902    2    1    2    0    0 -0.46878337487E-02  0.13786840388E-02 -0.23547158417E-01  0.10198811908E+01  0.10195976158E+01 0.  0.
     999903    2    3    3    0    0 -0.18142090542E-01 -0.75582039212E-01 -0.10553103529E+00  0.13262399808E+00  0.20261918864E-01 0.  0.
         14    1    1    2    0    0  0.46878337487E-02 -0.13786840388E-02  0.23547158417E-01  0.24048809211E-01  0.00000000000E+00 0. -1.
     999901    1    3    3    0    0  0.13454256794E-01  0.76960723251E-01  0.81983876873E-01  0.88725719271E+00  0.88000000000E+00 0.  1.
        -11    1    4    4    0    0 -0.10641411472E-01 -0.65443167598E-01 -0.96582762570E-01  0.11715177749E+00  0.51100000000E-03 0. -1.
         11    1    4    4    0    0 -0.75006790706E-02 -0.10138871614E-01 -0.89482727212E-02  0.15472220585E-01  0.51100000000E-03 0.  1.
</event>
<event>
 8    1  0.1060404E+005  0.1043930E+01  0.7957747E-01            NaN
         13   -1    0    0    0    0  0.00000000000E+00  0.00000000000E+00  0.74505805969E-08  0.10566000000E+00  0.10566000000E+00 0. -1.
     999900   -1    0    0    0    0 -0.00000000000E+00 -0.00000000000E+00 -0.74505805969E-08  0.93827000000E+00  0.93827000000E+00 0.  1.
     999902    2    1    2    0    0  0.43588133028E-02 -0.72669758920E-02 -0.22374341085E-01  0.10200047136E+01  0.10197240785E+01 0.  0.
     999903    2    3    3    0    0  0.85495989218E-01 -0.87565372357E-01  0.40165732124E-01  0.13043047015E+00  0.20531996932E-01 0.  0.
         14    1    1    2    0    0 -0.43588133028E-02  0.72669758920E-02  0.22374341085E-01  0.23925286435E-01  0.00000000000E+00 0. -1.
     999901    1    3    3    0    0 -0.81137175915E-01  0.80298396465E-01 -0.62540073208E-01  0.88957424341E+00  0.88000000000E+00 0.  1.
        -11    1    4    4    0    0  0.46524752649E-01 -0.33608993318E-01  0.21631421059E-01  0.61337562219E-01  0.51100000000E-03 0.  1.
         11    1    4    4    0    0  0.38971236569E-01 -0.53956379039E-01  0.18534311065E-01  0.69092907931E-01  0.51100000000E-03 0. -1.
</event>
<event>
 8    1  0.1060404E+005  0.1043930E+01  0.7957747E-01            NaN
         13   -1    0    0    0    0  0.00000000000E+00  0.00000000000E+00  0.74505805969E-08  0.10566000000E+00  0.10566000000E+00 0. -1.
     999900   -1    0    0    0    0 -0.00000000000E+00 -0.00000000000E+00 -0.74505805969E-08  0.93827000000E+00  0.93827000000E+00 0.  1.
     999902    2    1    2    0    0  0.11827908295E-01 -0.16253109882E-01 -0.14594377715E-01  0.10190893306E+01  0.10187865355E+01 0.  0.
     999903    2    3    3    0    0 -0.77632091985E-02  0.84536945380E-01  0.91832794579E-01  0.12675016295E+00  0.20629568473E-01 0.  0.
         14    1    1    2    0    0 -0.11827908295E-01  0.16253109882E-01  0.14594377715E-01  0.24840669402E-01  0.00000000000E+00 0. -1.
     999901    1    3    3    0    0  0.19591117494E-01 -0.10079005526E+00 -0.10642717229E+00  0.89233916765E+00  0.88000000000E+00 0.  1.
        -11    1    4    4    0    0 -0.14359432895E-01  0.48417284464E-01  0.56670037160E-01  0.75909030956E-01  0.51100000000E-03 0.  1.
         11    1    4    4    0    0  0.65962236961E-02  0.36119660915E-01  0.35162757419E-01  0.50841131989E-01  0.51100000000E-03 0. -1.
</event>
<event>
 8    1  0.1060404E+005  0.1043930E+01  0.7957747E-01            NaN
         13   -1    0    0    0    0  0.00000000000E+00  0.00000000000E+00  0.74505805969E-08  0.10566000000E+00  0.10566000000E+00 0.  1.
     999900   -1    0    0    0    0 -0.00000000000E+00 -0.00000000000E+00 -0.74505805969E-08  0.93827000000E+00  0.93827000000E+00 0.  1.
     999902    2    1    2    0    0 -0.69036153602E-02 -0.14921020907E-01 -0.16935732956E-01  0.10203266989E+01  0.10200536539E+01 0.  0.
     999903    2    3    3    0    0 -0.11457890809E+00 -0.35208017519E-01 -0.53467905877E-01  0.13277944355E+00  0.20090619538E-01 0.  0.
         14    1    1    2    0    0  0.69036153602E-02  0.14921020907E-01  0.16935732956E-01  0.23603301055E-01  0.00000000000E+00 0. -1.
     999901    1    3    3    0    0  0.10767529273E+00  0.20286996613E-01  0.36532172920E-01  0.88754725539E+00  0.88000000000E+00 0.  1.
        -11    1    4    4    0    0 -0.53276548060E-02 -0.64202116927E-02 -0.56873490496E-02  0.10109900302E-01  0.51100000000E-03 0.  1.
         11    1    4    4    0    0 -0.10925125329E+00 -0.28787805826E-01 -0.47780556827E-01  0.12266954325E+00  0.51100000000E-03 0. -1.
</event>
<event>
 8    1  0.1060404E+005  0.1043930E+01  0.7957747E-01            NaN
         13   -1    0    0    0    0  0.00000000000E+00  0.00000000000E+00  0.74505805969E-08  0.10566000000E+00  0.10566000000E+00 0. -1.
     999900   -1    0    0    0    0 -0.00000000000E+00 -0.00000000000E+00 -0.74505805969E-08  0.93827000000E+00  0.93827000000E+00 0. -1.
     999902    2    1    2    0    0  0.23430568493E-01 -0.40159130332E-02 -0.49765187200E-02  0.10196424551E+01  0.10193531535E+01 0.  0.
     999903    2    3    3    0    0  0.33063374390E-01 -0.46625791781E-01 -0.11700064567E+00  0.13146578479E+00  0.18081766965E-01 0.  0.
         14    1    1    2    0    0 -0.23430568493E-01  0.40159130332E-02  0.49765187200E-02  0.24287544873E-01  0.00000000000E+00 0. -1.
     999901    1    3    3    0    0 -0.96328058966E-02  0.42609878747E-01  0.11202412695E+00  0.88817667034E+00  0.88000000000E+00 0.  1.
        -11    1    4    4    0    0  0.23475078434E-01 -0.29985264868E-01 -0.57743488930E-01  0.69172010607E-01  0.51100000000E-03 0. -1.
         11    1    4    4    0    0  0.95882959562E-02 -0.16640526913E-01 -0.59257156743E-01  0.62293774179E-01  0.51100000000E-03 0.  1.
</event>
<event>
 8    1  0.1060404E+005  0.1043930E+01  0.7957747E-01            NaN
         13   -1    0    0    0    0  0.00000000000E+00  0.00000000000E+00  0.74505805969E-08  0.10566000000E+00  0.10566000000E+00 0. -1.
     999900   -1    0    0    0    0 -0.00000000000E+00 -0.00000000000E+00 -0.74505805969E-08  0.93827000000E+00  0.93827000000E+00 0. -1.
     999902    2    1    2    0    0 -0.89689619170E-02  0.68906289625E-02 -0.20834167290E-01  0.10202237651E+01  0.10199483052E+01 0.  0.
     999903    2    3    3    0    0 -0.11872672175E+00 -0.49726672140E-01 -0.18670037414E-01  0.13159731487E+00  0.20012661081E-01 0.  0.
         14    1    1    2    0    0  0.89689619170E-02 -0.68906289625E-02  0.20834167290E-01  0.23706234877E-01  0.00000000000E+00 0. -1.
     999901    1    3    3    0    0  0.10975775984E+00  0.56617301102E-01 -0.21641298760E-02  0.88862645025E+00  0.88000000000E+00 0. -1.
        -11    1    4    4    0    0 -0.17081374397E-01 -0.74841363010E-02 -0.10036590090E-01  0.21184426098E-01  0.51100000000E-03 0. -1.
         11    1    4    4    0    0 -0.10164534736E+00 -0.42242535839E-01 -0.86334473242E-02  0.11041288877E+00  0.51100000000E-03 0.  1.
</event>
<event>
 8    1  0.1060404E+005  0.1043930E+01  0.7957747E-01            NaN
         13   -1    0    0    0    0  0.00000000000E+00  0.00000000000E+00  0.74505805969E-08  0.10566000000E+00  0.10566000000E+00 0.  1.
     999900   -1    0    0    0    0 -0.00000000000E+00 -0.00000000000E+00 -0.74505805969E-08  0.93827000000E+00  0.93827000000E+00 0.  1.
     999902    2    1    2    0    0 -0.11056104755E-01  0.17257707563E-01  0.12025599077E-01  0.10201669834E+01  0.10198901868E+01 0.  0.
     999903    2    3    3    0    0  0.37418769384E-01  0.25022767161E-02  0.12446693724E+00  0.13156662857E+00  0.20281360812E-01 0.  0.
         14    1    1    2    0    0  0.11056104755E-01 -0.17257707563E-01 -0.12025599077E-01  0.23763016556E-01  0.00000000000E+00 0. -1.
     999901    1    3    3    0    0 -0.48474874139E-01  0.14755430847E-01 -0.11244133816E+00  0.88860035488E+00  0.88000000000E+00 0.  1.
        -11    1    4    4    0    0  0.44896229551E-02  0.67039882570E-02  0.40007657131E-01  0.40816343822E-01  0.51100000000E-03 0. -1.
         11    1    4    4    0    0  0.32929146429E-01 -0.42017115409E-02  0.84459280104E-01  0.90750284744E-01  0.51100000000E-03 0.  1.
</event>
<event>
 8    1  0.1060404E+005  0.1043930E+01  0.7957747E-01            NaN
         13   -1    0    0    0    0  0.00000000000E+00  0.00000000000E+00  0.74505805969E-08  0.10566000000E+00  0.10566000000E+00 0. -1.
     999900   -1    0    0    0    0 -0.00000000000E+00 -0.00000000000E+00 -0.74505805969E-08  0.93827000000E+00  0.93827000000E+00 0. -1.
     999902    2    1    2    0    0  0.19471610550E-01  0.13705563133E-01  0.95126535460E-02  0.10182886924E+01  0.10179658071E+01 0.  0.
     999903    2    3    3    0    0 -0.12016801356E+00  0.13972673330E-01  0.32609450697E-01  0.12697911766E+00  0.20609050548E-01 0.  0.
         14    1    1    2    0    0 -0.19471610550E-01 -0.13705563133E-01 -0.95126535460E-02  0.25641307605E-01  0.00000000000E+00 0.  1.
     999901    1    3    3    0    0  0.13963962411E+00 -0.26711019716E-03 -0.23096797151E-01  0.89130957473E+00  0.88000000000E+00 0. -1.
        -11    1    4    4    0    0 -0.38818339306E-01  0.30218032315E-02  0.20499793756E-01  0.44005652208E-01  0.51100000000E-03 0.  1.
         11    1    4    4    0    0 -0.81349674256E-01  0.10950870099E-01  0.12109656942E-01  0.82973465455E-01  0.51100000000E-03 0. -1.
</event>
<event>
 8    1  0.1060404E+005  0.1043930E+01  0.7957747E-01            NaN
         13   -1    0    0    0    0  0.00000000000E+00  0.00000000000E+00  0.74505805969E-08  0.10566000000E+00  0.10566000000E+00 0.  1.
     999900   -1    0    0    0    0 -0.00000000000E+00 -0.00000000000E+00 -0.74505805969E-08  0.93827000000E+00  0.93827000000E+00 0. -1.
     999902    2    1    2    0    0  0.72855301304E-02  0.12155456052E-01  0.61537949739E-02  0.10284799756E+01  0.10283639224E+01 0.  0.
     999903    2    3    3    0    0 -0.85355017356E-01  0.84818615781E-01 -0.64159548039E-01  0.13785874746E+00  0.20221525074E-01 0.  0.
         14    1    1    2    0    0 -0.72855301304E-02 -0.12155456052E-01 -0.61537949739E-02  0.15450024391E-01  0.00000000000E+00 0.  1.
     999901    1    3    3    0    0  0.92640547487E-01 -0.72663159729E-01  0.70313343013E-01  0.89062122815E+00  0.88000000000E+00 0.  1.
        -11    1    4    4    0    0 -0.60130195084E-01  0.52358323035E-01 -0.51183395223E-01  0.94747218531E-01  0.51100000000E-03 0.  1.
         11    1    4    4    0    0 -0.25224822272E-01  0.32460292746E-01 -0.12976152816E-01  0.43111528930E-01  0.51100000000E-03 0. -1.
</event>
<event>
 8    1  0.1060404E+005  0.1043930E+01  0.7957747E-01            NaN
         13   -1    0    0    0    0  0.00000000000E+00  0.00000000000E+00  0.74505805969E-08  0.10566000000E+00  0.10566000000E+00 0.  1.
     999900   -1    0    0    0    0 -0.00000000000E+00 -0.00000000000E+00 -0.74505805969E-08  0.93827000000E+00  0.93827000000E+00 0. -1.
     999902    2    1    2    0    0 -0.11167561096E-01  0.21113609822E-01 -0.70826944206E-02  0.10190168810E+01  0.10187122951E+01 0.  0.
     999903    2    3    3    0    0 -0.40903043773E-01 -0.41694207220E-01 -0.11416239404E+00  0.12980651052E+00  0.20129879623E-01 0.  0.
         14    1    1    2    0    0  0.11167561096E-01 -0.21113609822E-01  0.70826944206E-02  0.24913119050E-01  0.00000000000E+00 0. -1.
     999901    1    3    3    0    0  0.29735482677E-01  0.62807817041E-01  0.10707969962E+00  0.88921037043E+00  0.88000000000E+00 0.  1.
        -11    1    4    4    0    0 -0.39960915294E-01 -0.29884935597E-01 -0.93493296758E-01  0.10597755322E+00  0.51100000000E-03 0.  1.
         11    1    4    4    0    0 -0.94212847874E-03 -0.11809271623E-01 -0.20669097286E-01  0.23828957299E-01  0.51100000000E-03 0. -1.
</event>
<event>
 8    1  0.1060404E+005  0.1043930E+01  0.7957747E-01            NaN
         13   -1    0    0    0    0  0.00000000000E+00  0.00000000000E+00  0.74505805969E-08  0.10566000000E+00  0.10566000000E+00 0.  1.
     999900   -1    0    0    0    0 -0.00000000000E+00 -0.00000000000E+00 -0.74505805969E-08  0.93827000000E+00  0.93827000000E+00 0. -1.
     999902    2    1    2    0    0 -0.20820001306E-01 -0.48615573791E-02  0.10207841568E-01  0.10202380768E+01  0.10199629533E+01 0.  0.
     999903    2    3    3    0    0 -0.22280809777E-01  0.12106031940E+00  0.39328506882E-01  0.13079641704E+00  0.20222162076E-01 0.  0.
         14    1    1    2    0    0  0.20820001306E-01  0.48615573791E-02 -0.10207841568E-01  0.23691923180E-01  0.00000000000E+00 0.  1.
     999901    1    3    3    0    0  0.14608084711E-02 -0.12592187678E+00 -0.29120665314E-01  0.88944165978E+00  0.88000000000E+00 0.  1.
        -11    1    4    4    0    0 -0.20783594702E-01  0.77357561693E-01  0.17814631156E-01  0.82059565951E-01  0.51100000000E-03 0.  1.
         11    1    4    4    0    0 -0.14972150745E-02  0.43702757703E-01  0.21513875726E-01  0.48736851084E-01  0.51100000000E-03 0. -1.
</event>
<event>
 8    1  0.1060404E+005  0.1043930E+01  0.7957747E-01            NaN
         13   -1    0    0    0    0  0.00000000000E+00  0.00000000000E+00  0.74505805969E-08  0.10566000000E+00  0.10566000000E+00 0. -1.
     999900   -1    0    0    0    0 -0.00000000000E+00 -0.00000000000E+00 -0.74505805969E-08  0.93827000000E+00  0.93827000000E+00 0.  1.
     999902    2    1    2    0    0  0.94888224987E-02  0.18695954886E-01 -0.10932245490E-01  0.10202849059E+01  0.10200108817E+01 0.  0.
     999903    2    3    3    0    0  0.43832972668E-01 -0.59886823445E-01  0.10238533467E+00  0.12888395930E+00  0.24910983416E-01 0.  0.
         14    1    1    2    0    0 -0.94888224987E-02 -0.18695954886E-01  0.10932245490E-01  0.23645094057E-01  0.00000000000E+00 0. -1.
     999901    1    3    3    0    0 -0.34344150169E-01  0.78582778331E-01 -0.11331758016E+00  0.89140094664E+00  0.88000000000E+00 0.  1.
        -11    1    4    4    0    0  0.35588225922E-01 -0.41213789394E-01  0.55540088536E-01  0.77782136870E-01  0.51100000000E-03 0.  1.
         11    1    4    4    0    0  0.82447467464E-02 -0.18673034051E-01  0.46845246133E-01  0.51101822431E-01  0.51100000000E-03 0. -1.
</event>
<event>
 8    1  0.1060404E+005  0.1043930E+01  0.7957747E-01            NaN
         13   -1    0    0    0    0  0.00000000000E+00  0.00000000000E+00  0.74505805969E-08  0.10566000000E+00  0.10566000000E+00 0. -1.
     999900   -1    0    0    0    0 -0.00000000000E+00 -0.00000000000E+00 -0.74505805969E-08  0.93827000000E+00  0.93827000000E+00 0.  1.
     999902    2    1    2    0    0  0.62770570917E-02  0.22174448089E-01 -0.52557024076E-02  0.10202925297E+01  0.10200186842E+01 0.  0.
     999903    2    3    3    0    0  0.12220353644E+00 -0.25025031387E-01 -0.34360366652E-01  0.13095917210E+00  0.20241379595E-01 0.  0.
         14    1    1    2    0    0 -0.62770570917E-02 -0.22174448089E-01  0.52557024076E-02  0.23637470287E-01  0.00000000000E+00 0.  1.
     999901    1    3    3    0    0 -0.11592647935E+00  0.47199479476E-01  0.29104664245E-01  0.88933335761E+00  0.88000000000E+00 0. -1.
        -11    1    4    4    0    0  0.17634109688E-01 -0.47135365479E-02 -0.12731532764E-01  0.22260554773E-01  0.51100000000E-03 0. -1.
         11    1    4    4    0    0  0.10456942675E+00 -0.20311494840E-01 -0.21628833888E-01  0.10869861733E+00  0.51100000000E-03 0.  1.
</event>
<event>
 8    1  0.1070291E+005  0.1043930E+01  0.7957747E-01            NaN
         13   -1    0    0    0    0  0.00000000000E+00  0.00000000000E+00  0.74505805969E-08  0.10566000000E+00  0.10566000000E+00 0. -1.
     999900   -1    0    0    0    0 -0.00000000000E+00 -0.00000000000E+00 -0.74505805969E-08  0.93827000000E+00  0.93827000000E+00 0.  1.
     999902    2    1    2    0    0  0.23392318003E-01 -0.12101366581E-02  0.23649104928E-02  0.10203873202E+01  0.10201156922E+01 0.  0.
     999903    2    3    3    0    0  0.13707725175E-01  0.29856570169E-01 -0.12484007431E+00  0.13064576231E+00  0.20098620476E-01 0.  0.
         14    1    1    2    0    0 -0.23392318003E-01  0.12101366581E-02 -0.23649104928E-02  0.23542679837E-01  0.00000000000E+00 0. -1.
     999901    1    3    3    0    0  0.96845928282E-02 -0.31066706827E-01  0.12720498480E+00  0.88974155785E+00  0.88000000000E+00 0. -1.
        -11    1    4    4    0    0  0.63855997755E-02  0.23300956723E-01 -0.54456912929E-01  0.59577906605E-01  0.51100000000E-03 0. -1.
         11    1    4    4    0    0  0.73221253992E-02  0.65556134463E-02 -0.70383161378E-01  0.71067855706E-01  0.51100000000E-03 0.  1.
</event>
<event>
 8    1  0.1060404E+005  0.1043930E+01  0.7957747E-01            NaN
         13   -1    0    0    0    0  0.00000000000E+00  0.00000000000E+00  0.74505805969E-08  0.10566000000E+00  0.10566000000E+00 0. -1.
     999900   -1    0    0    0    0 -0.00000000000E+00 -0.00000000000E+00 -0.74505805969E-08  0.93827000000E+00  0.93827000000E+00 0.  1.
     999902    2    1    2    0    0  0.63989756341E-02  0.20386102017E-01  0.10387911730E-01  0.10201718697E+01  0.10198951882E+01 0.  0.
     999903    2    3    3    0    0 -0.30017110661E-01 -0.23455235136E-01  0.12380632996E+00  0.13106449050E+00  0.19967932852E-01 0.  0.
         14    1    1    2    0    0 -0.63989756341E-02 -0.20386102017E-01 -0.10387911730E-01  0.23758130287E-01  0.00000000000E+00 0.  1.
     999901    1    3    3    0    0  0.36416086295E-01  0.43841337153E-01 -0.11341841823E+00  0.88910737922E+00  0.88000000000E+00 0. -1.
        -11    1    4    4    0    0 -0.10812837577E-01 -0.86844104604E-02  0.19215447406E-01  0.23702974107E-01  0.51100000000E-03 0. -1.
         11    1    4    4    0    0 -0.19204273084E-01 -0.14770824675E-01  0.10459088256E+00  0.10736151639E+00  0.51100000000E-03 0.  1.
</event>
<event>
 8    1  0.1060404E+005  0.1043930E+01  0.7957747E-01            NaN
         13   -1    0    0    0    0  0.00000000000E+00  0.00000000000E+00  0.74505805969E-08  0.10566000000E+00  0.10566000000E+00 0.  1.
     999900   -1    0    0    0    0 -0.00000000000E+00 -0.00000000000E+00 -0.74505805969E-08  0.93827000000E+00  0.93827000000E+00 0.  1.
     999902    2    1    2    0    0 -0.11946211214E-02  0.84759792741E-02 -0.23615750339E-01  0.10188108239E+01  0.10185011153E+01 0.  0.
     999903    2    3    3    0    0  0.88628802364E-01 -0.48304183641E-01 -0.80470961066E-01  0.13059646390E+00  0.19786410558E-01 0.  0.
         14    1    1    2    0    0  0.11946211214E-02 -0.84759792741E-02  0.23615750339E-01  0.25119176108E-01  0.00000000000E+00 0.  1.
     999901    1    3    3    0    0 -0.89823423486E-01  0.56780162915E-01  0.56855210728E-01  0.88821435999E+00  0.88000000000E+00 0.  1.
        -11    1    4    4    0    0  0.52006908628E-01 -0.30023376641E-01 -0.59760265128E-01  0.84721143165E-01  0.51100000000E-03 0.  1.
         11    1    4    4    0    0  0.36621893736E-01 -0.18280807000E-01 -0.20710695938E-01  0.45875320736E-01  0.51100000000E-03 0. -1.
</event>
<event>
 8    1  0.1060404E+005  0.1043930E+01  0.7957747E-01            NaN
         13   -1    0    0    0    0  0.00000000000E+00  0.00000000000E+00  0.74505805969E-08  0.10566000000E+00  0.10566000000E+00 0. -1.
     999900   -1    0    0    0    0 -0.00000000000E+00 -0.00000000000E+00 -0.74505805969E-08  0.93827000000E+00  0.93827000000E+00 0. -1.
     999902    2    1    2    0    0 -0.22442239050E-01  0.25935211492E-02 -0.24291589567E-01  0.10107567914E+01  0.10102122696E+01 0.  0.
     999903    2    3    3    0    0  0.10871668243E+00 -0.19991147094E-01 -0.45228162700E-01  0.12050341734E+00  0.16016363101E-01 0.  0.
         14    1    1    2    0    0  0.22442239050E-01 -0.25935211492E-02  0.24291589567E-01  0.33173208606E-01  0.00000000000E+00 0. -1.
     999901    1    3    3    0    0 -0.13115892148E+00  0.22584668244E-01  0.20936573133E-01  0.89025337406E+00  0.88000000000E+00 0. -1.
        -11    1    4    4    0    0  0.88567045869E-01 -0.18455410328E-01 -0.42989578723E-01  0.10016530729E+00  0.51100000000E-03 0. -1.
         11    1    4    4    0    0  0.20149636566E-01 -0.15357367661E-02 -0.22385839769E-02  0.20338110049E-01  0.51100000000E-03 0.  1.
</event>
<event>
 8    1  0.1060404E+005  0.1043930E+01  0.7957747E-01            NaN
         13   -1    0    0    0    0  0.00000000000E+00  0.00000000000E+00  0.74505805969E-08  0.10566000000E+00  0.10566000000E+00 0.  1.
     999900   -1    0    0    0    0 -0.00000000000E+00 -0.00000000000E+00 -0.74505805969E-08  0.93827000000E+00  0.93827000000E+00 0. -1.
     999902    2    1    2    0    0  0.11543600561E-01  0.80583465455E-03 -0.19744180717E-01  0.10210447044E+01  0.10207882011E+01 0.  0.
     999903    2    3    3    0    0 -0.94359993595E-01  0.31485958277E-01 -0.84489541418E-01  0.13180412784E+00  0.18403030890E-01 0.  0.
         14    1    1    2    0    0 -0.11543600561E-01 -0.80583465455E-03  0.19744180717E-01  0.22885295619E-01  0.00000000000E+00 0.  1.
     999901    1    3    3    0    0  0.10590359416E+00 -0.30680123622E-01  0.64745360701E-01  0.88924057654E+00  0.88000000000E+00 0.  1.
        -11    1    4    4    0    0 -0.19897336813E-01 -0.73759384250E-03 -0.19123039516E-01  0.27611588477E-01  0.51100000000E-03 0.  1.
         11    1    4    4    0    0 -0.74462656782E-01  0.32223552119E-01 -0.65366501902E-01  0.10419253936E+00  0.51100000000E-03 0. -1.
</event>
<event>
 8    1  0.1060404E+005  0.1043930E+01  0.7957747E-01            NaN
         13   -1    0    0    0    0  0.00000000000E+00  0.00000000000E+00  0.74505805969E-08  0.10566000000E+00  0.10566000000E+00 0. -1.
     999900   -1    0    0    0    0 -0.00000000000E+00 -0.00000000000E+00 -0.74505805969E-08  0.93827000000E+00  0.93827000000E+00 0. -1.
     999902    2    1    2    0    0 -0.11542569547E-01  0.16550369093E-01  0.13300387863E-01  0.10197629574E+01  0.10194765536E+01 0.  0.
     999903    2    3    3    0    0  0.41828449155E-01  0.57439132384E-01  0.10708035277E+00  0.13222983782E+00  0.31139283441E-01 0.  0.
         14    1    1    2    0    0  0.11542569547E-01 -0.16550369093E-01 -0.13300387863E-01  0.24167042562E-01  0.00000000000E+00 0.  1.
     999901    1    3    3    0    0 -0.53371018702E-01 -0.40888763290E-01 -0.93779964905E-01  0.88753311962E+00  0.88000000000E+00 0. -1.
        -11    1    4    4    0    0  0.10450151267E-01  0.48552913945E-02  0.38958635982E-01  0.40630234489E-01  0.51100000000E-03 0.  1.
         11    1    4    4    0    0  0.31378297888E-01  0.52583840989E-01  0.68121716787E-01  0.91599603332E-01  0.51100000000E-03 0. -1.
</event>
<event>
 8    1  0.1060404E+005  0.1043930E+01  0.7957747E-01            NaN
         13   -1    0    0    0    0  0.00000000000E+00  0.00000000000E+00  0.74505805969E-08  0.10566000000E+00  0.10566000000E+00 0. -1.
     999900   -1    0    0    0    0 -0.00000000000E+00 -0.00000000000E+00 -0.74505805969E-08  0.93827000000E+00  0.93827000000E+00 0.  1.
     999902    2    1    2    0    0 -0.12314338791E-01 -0.91181561556E-02  0.17893487200E-01  0.10203723983E+01  0.10201004219E+01 0.  0.
     999903    2    3    3    0    0 -0.42466399117E-01  0.75719362626E-02 -0.11990603380E+00  0.12898224027E+00  0.19955753301E-01 0.  0.
         14    1    1    2    0    0  0.12314338791E-01  0.91181561556E-02 -0.17893487200E-01  0.23557601655E-01  0.00000000000E+00 0.  1.
     999901    1    3    3    0    0  0.30152060325E-01 -0.16690092418E-01  0.13779952100E+00  0.89139015808E+00  0.88000000000E+00 0. -1.
        -11    1    4    4    0    0 -0.55947196822E-02 -0.56104301613E-02 -0.14413096713E-01  0.16455281608E-01  0.51100000000E-03 0. -1.
         11    1    4    4    0    0 -0.36871679435E-01  0.13182366424E-01 -0.10549293709E+00  0.11252695866E+00  0.51100000000E-03 0.  1.
</event>
<event>
 7    1  0.1394572E+005  0.1043930E+01  0.7957747E-01            NaN
         13   -1    0    0    0    0  0.00000000000E+00  0.00000000000E+00  0.74505805969E-08  0.10566000000E+00  0.10566000000E+00 0. -1.
     999900   -1    0    0    0    0 -0.00000000000E+00 -0.00000000000E+00 -0.74505805969E-08  0.93827000000E+00  0.93827000000E+00 0.  1.
     999903    2    1    2    0    0 -0.52470258762E-01  0.42473579968E-01 -0.63610954509E-01  0.94851492028E-01  0.19832270585E-01 0.  0.
         14    1    1    2    0    0 -0.62534948632E-02 -0.38124197171E-01 -0.46285519405E-01  0.60290214086E-01  0.00000000000E+00 0.  1.
     999901    1    1    2    0    0  0.58723753625E-01 -0.43493827966E-02  0.10989647391E+00  0.88878829389E+00  0.88000000000E+00 0. -1.
        -11    1    3    3    0    0 -0.21084029738E-01  0.24589386512E-01 -0.19411342365E-01  0.37765534187E-01  0.51100000000E-03 0.  1.
         11    1    3    3    0    0 -0.31386229023E-01  0.17884193455E-01 -0.44199612144E-01  0.57085957841E-01  0.51100000000E-03 0. -1.
</event>
<event>
 8    1  0.1060404E+005  0.1043930E+01  0.7957747E-01            NaN
         13   -1    0    0    0    0  0.00000000000E+00  0.00000000000E+00  0.74505805969E-08  0.10566000000E+00  0.10566000000E+00 0. -1.
     999900   -1    0    0    0    0 -0.00000000000E+00 -0.00000000000E+00 -0.74505805969E-08  0.93827000000E+00  0.93827000000E+00 0.  1.
     999902    2    1    2    0    0  0.56688764361E-02 -0.12999622039E-01  0.18945813936E-01  0.10202641977E+01  0.10199896876E+01 0.  0.
     999903    2    3    3    0    0  0.12236494102E+00  0.34875955911E-01  0.25060918358E-01  0.13124932889E+00  0.20219436478E-01 0.  0.
         14    1    1    2    0    0 -0.56688764361E-02  0.12999622039E-01 -0.18945813936E-01  0.23665802309E-01  0.00000000000E+00 0.  1.
     999901    1    3    3    0    0 -0.11669606459E+00 -0.47875577951E-01 -0.61151044218E-02  0.88901486881E+00  0.88000000000E+00 0. -1.
        -11    1    4    4    0    0  0.86752149988E-01  0.17031749582E-01  0.23035140729E-01  0.91361342212E-01  0.51100000000E-03 0.  1.
         11    1    4    4    0    0  0.35612791036E-01  0.17844206329E-01  0.20257776295E-02  0.39887986674E-01  0.51100000000E-03 0. -1.
</event>
<event>
 8    1  0.1060404E+005  0.1043930E+01  0.7957747E-01            NaN
         13   -1    0    0    0    0  0.00000000000E+00  0.00000000000E+00  0.74505805969E-08  0.10566000000E+00  0.10566000000E+00 0. -1.
     999900   -1    0    0    0    0 -0.00000000000E+00 -0.00000000000E+00 -0.74505805969E-08  0.93827000000E+00  0.93827000000E+00 0. -1.
     999902    2    1    2    0    0 -0.23804916689E-01  0.21248341857E-03 -0.18121817815E-02  0.10200552600E+01  0.10197758235E+01 0.  0.
     999903    2    3    3    0    0  0.10888325067E+00  0.47716566232E-01  0.39936158768E-01  0.12786373818E+00  0.24936034076E-01 0.  0.
         14    1    1    2    0    0  0.23804916689E-01 -0.21248341857E-03  0.18121817815E-02  0.23874740011E-01  0.00000000000E+00 0. -1.
     999901    1    3    3    0    0 -0.13268816736E+00 -0.47504082813E-01 -0.41748340550E-01  0.89219152180E+00  0.88000000000E+00 0. -1.
        -11    1    4    4    0    0  0.55568528199E-01  0.13348994445E-01  0.26620708689E-01  0.63047444286E-01  0.51100000000E-03 0. -1.
         11    1    4    4    0    0  0.53314722474E-01  0.34367571787E-01  0.13315450079E-01  0.64816293898E-01  0.51100000000E-03 0.  1.
</event>
<event>
 8    1  0.1060404E+005  0.1043930E+01  0.7957747E-01            NaN
         13   -1    0    0    0    0  0.00000000000E+00  0.00000000000E+00  0.74505805969E-08  0.10566000000E+00  0.10566000000E+00 0.  1.
     999900   -1    0    0    0    0 -0.00000000000E+00 -0.00000000000E+00 -0.74505805969E-08  0.93827000000E+00  0.93827000000E+00 0.  1.
     999902    2    1    2    0    0 -0.87494574929E-03 -0.39405931022E-02  0.22952517931E-01  0.10206252390E+01  0.10203591361E+01 0.  0.
     999903    2    3    3    0    0 -0.58806231883E-01  0.52169090086E-01 -0.99644765153E-01  0.12847366880E+00  0.19915257565E-01 0.  0.
         14    1    1    2    0    0  0.87494574929E-03  0.39405931022E-02 -0.22952517931E-01  0.23304760961E-01  0.00000000000E+00 0. -1.
     999901    1    3    3    0    0  0.57931286134E-01 -0.56109683188E-01  0.12259728308E+00  0.89215157024E+00  0.88000000000E+00 0. -1.
        -11    1    4    4    0    0 -0.26887547358E-01  0.13076463703E-01 -0.45566954413E-01  0.54502683983E-01  0.51100000000E-03 0. -1.
         11    1    4    4    0    0 -0.31918684526E-01  0.39092626383E-01 -0.54077810740E-01  0.73970984817E-01  0.51100000000E-03 0.  1.
</event>
<event>
 8    1  0.1060404E+005  0.1043930E+01  0.7957747E-01            NaN
         13   -1    0    0    0    0  0.00000000000E+00  0.00000000000E+00  0.74505805969E-08  0.10566000000E+00  0.10566000000E+00 0. -1.
     999900   -1    0    0    0    0 -0.00000000000E+00 -0.00000000000E+00 -0.74505805969E-08  0.93827000000E+00  0.93827000000E+00 0. -1.
     999902    2    1    2    0    0  0.81534658975E-02  0.15156277362E-01 -0.16217893972E-01  0.10202823398E+01  0.10200082554E+01 0.  0.
     999903    2    3    3    0    0  0.12692642196E+00 -0.23600602340E-01  0.93881301408E-02  0.13108900911E+00  0.20709570227E-01 0.  0.
         14    1    1    2    0    0 -0.81534658975E-02 -0.15156277362E-01  0.16217893972E-01  0.23647660233E-01  0.00000000000E+00 0. -1.
     999901    1    3    3    0    0 -0.11877295606E+00  0.38756879702E-01 -0.25606024113E-01  0.88919333066E+00  0.88000000000E+00 0. -1.
        -11    1    4    4    0    0  0.28430906848E-01  0.20633063813E-02 -0.24608790942E-02  0.28616267128E-01  0.51100000000E-03 0. -1.
         11    1    4    4    0    0  0.98495515113E-01 -0.25663908722E-01  0.11849009235E-01  0.10247274198E+00  0.51100000000E-03 0.  1.
</event>
<event>
 8    1  0.1060404E+005  0.1043930E+01  0.7957747E-01            NaN
         13   -1    0    0    0    0  0.00000000000E+00  0.00000000000E+00  0.74505805969E-08  0.10566000000E+00  0.10566000000E+00 0.  1.
     999900   -1    0    0    0    0 -0.00000000000E+00 -0.00000000000E+00 -0.74505805969E-08  0.93827000000E+00  0.93827000000E+00 0. -1.
     999902    2    1    2    0    0  0.15591637855E-01 -0.53181209404E-02 -0.16822441713E-01  0.10203848067E+01  0.10201131200E+01 0.  0.
     999903    2    3    3    0    0 -0.30887939939E-01 -0.21472035156E-01 -0.12527206500E+00  0.13236306099E+00  0.20292277344E-01 0.  0.
         14    1    1    2    0    0 -0.15591637855E-01  0.53181209404E-02  0.16822441713E-01  0.23545193279E-01  0.00000000000E+00 0.  1.
     999901    1    3    3    0    0  0.46479577794E-01  0.16153914216E-01  0.10844962328E+00  0.88802174573E+00  0.88000000000E+00 0.  1.
        -11    1    4    4    0    0 -0.28418433198E-01 -0.89306862496E-02 -0.92652913777E-01  0.97325166605E-01  0.51100000000E-03 0.  1.
         11    1    4    4    0    0 -0.24695067409E-02 -0.12541348907E-01 -0.32619151218E-01  0.35037894388E-01  0.51100000000E-03 0. -1.
</event>
<event>
 8    1  0.1060404E+005  0.1043930E+01  0.7957747E-01            NaN
         13   -1    0    0    0    0  0.00000000000E+00  0.00000000000E+00  0.74505805969E-08  0.10566000000E+00  0.10566000000E+00 0. -1.
     999900   -1    0    0    0    0 -0.00000000000E+00 -0.00000000000E+00 -0.74505805969E-08  0.93827000000E+00  0.93827000000E+00 0.  1.
     999902    2    1    2    0    0  0.86174352981E-02 -0.18778996695E-01  0.12395970416E-01  0.10198349592E+01  0.10195502798E+01 0.  0.
     999903    2    3    3    0    0 -0.64250682424E-01 -0.75842639525E-01  0.83348053986E-01  0.13214119441E+00  0.25182156261E-01 0.  0.
         14    1    1    2    0    0 -0.86174352981E-02  0.18778996695E-01 -0.12395970416E-01  0.24095040787E-01  0.00000000000E+00 0.  1.
     999901    1    3    3    0    0  0.72868117722E-01  0.57063642830E-01 -0.70952083570E-01  0.88769376481E+00  0.88000000000E+00 0.  1.
        -11    1    4    4    0    0 -0.69741993014E-02 -0.22202205062E-01  0.26305244091E-01  0.35125551287E-01  0.51100000000E-03 0.  1.
         11    1    4    4    0    0 -0.57276483123E-01 -0.53640434463E-01  0.57042809894E-01  0.97015643120E-01  0.51100000000E-03 0. -1.
</event>
<event>
 8    1  0.1060404E+005  0.1043930E+01  0.7957747E-01            NaN
         13   -1    0    0    0    0  0.00000000000E+00  0.00000000000E+00  0.74505805969E-08  0.10566000000E+00  0.10566000000E+00 0.  1.
     999900   -1    0    0    0    0 -0.00000000000E+00 -0.00000000000E+00 -0.74505805969E-08  0.93827000000E+00  0.93827000000E+00 0. -1.
     999902    2    1    2    0    0  0.17250304713E-01 -0.10619139868E-02  0.15662709623E-01  0.10206057391E+01  0.10203391855E+01 0.  0.
     999903    2    3    3    0    0  0.11524553109E+00 -0.62758274161E-01 -0.15925768851E-02  0.13285169086E+00  0.20661608107E-01 0.  0.
         14    1    1    2    0    0 -0.17250304713E-01  0.10619139868E-02 -0.15662709623E-01  0.23324260905E-01  0.00000000000E+00 0.  1.
     999901    1    3    3    0    0 -0.97995226380E-01  0.61696360174E-01  0.17255286508E-01  0.88775404824E+00  0.88000000000E+00 0.  1.
        -11    1    4    4    0    0  0.28950724587E-01 -0.24574175800E-01 -0.56616793999E-02  0.38397269499E-01  0.51100000000E-03 0. -1.
         11    1    4    4    0    0  0.86294806506E-01 -0.38184098361E-01  0.40691025148E-02  0.94454421357E-01  0.51100000000E-03 0.  1.
</event>
<event>
 8    1  0.1060404E+005  0.1043930E+01  0.7957747E-01            NaN
         13   -1    0    0    0    0  0.00000000000E+00  0.00000000000E+00  0.74505805969E-08  0.10566000000E+00  0.10566000000E+00 0. -1.
     999900   -1    0    0    0    0 -0.00000000000E+00 -0.00000000000E+00 -0.74505805969E-08  0.93827000000E+00  0.93827000000E+00 0.  1.
     999902    2    1    2    0    0 -0.22679122753E-01 -0.62209718372E-03  0.55122968265E-02  0.10205823014E+01  0.10203152057E+01 0.  0.
     999903    2    3    3    0    0 -0.92251989479E-01 -0.93483960781E-01 -0.93397021641E-02  0.13284118408E+00  0.17603115242E-01 0.  0.
         14    1    1    2    0    0  0.22679122753E-01  0.62209718372E-03 -0.55122968265E-02  0.23347698603E-01  0.00000000000E+00 0. -1.
     999901    1    3    3    0    0  0.69572866726E-01  0.92861863597E-01  0.14851998991E-01  0.88774111731E+00  0.88000000000E+00 0.  1.
        -11    1    4    4    0    0 -0.37410041439E-01 -0.29191875958E-01  0.24410922186E-02  0.47517332360E-01  0.51100000000E-03 0.  1.
         11    1    4    4    0    0 -0.54841948039E-01 -0.64292084823E-01 -0.11780794383E-01  0.85323851723E-01  0.51100000000E-03 0. -1.
</event>
<event>
 8    1  0.1060404E+005  0.1043930E+01  0.7957747E-01            NaN
         13   -1    0    0    0    0  0.00000000000E+00  0.00000000000E+00  0.74505805969E-08  0.10566000000E+00  0.10566000000E+00 0. -1.
     999900   -1    0    0    0    0 -0.00000000000E+00 -0.00000000000E+00 -0.74505805969E-08  0.93827000000E+00  0.93827000000E+00 0. -1.
     999902    2    1    2    0    0 -0.69996028595E-02 -0.78370535883E-03 -0.16884821306E-01  0.10256350328E+01  0.10254718498E+01 0.  0.
     999903    2    3    3    0    0 -0.68664275393E-01  0.38571765563E-01  0.10649009173E+00  0.13402258667E+00  0.20478044036E-01 0.  0.
         14    1    1    2    0    0  0.69996028595E-02  0.78370535883E-03  0.16884821306E-01  0.18294967199E-01  0.00000000000E+00 0. -1.
     999901    1    3    3    0    0  0.61664672533E-01 -0.39355470922E-01 -0.12337491303E+00  0.89161244613E+00  0.88000000000E+00 0. -1.
        -11    1    4    4    0    0 -0.58244332582E-02  0.11532432791E-01  0.18353298843E-01  0.22450517327E-01  0.51100000000E-03 0.  1.
         11    1    4    4    0    0 -0.62839842135E-01  0.27039332773E-01  0.88136792884E-01  0.11157206934E+00  0.51100000000E-03 0. -1.
</event>
<event>
 8    1  0.1060404E+005  0.1043930E+01  0.7957747E-01            NaN
         13   -1    0    0    0    0  0.00000000000E+00  0.00000000000E+00  0.74505805969E-08  0.10566000000E+00  0.10566000000E+00 0. -1.
     999900   -1    0    0    0    0 -0.00000000000E+00 -0.00000000000E+00 -0.74505805969E-08  0.93827000000E+00  0.93827000000E+00 0. -1.
     999902    2    1    2    0    0 -0.17318627384E-01 -0.11397785772E-02  0.16933778377E-01  0.10196815609E+01  0.10193932013E+01 0.  0.
     999903    2    3    3    0    0  0.11750174895E+00  0.45251626716E-01 -0.90367094313E-02  0.12782778217E+00  0.20097488672E-01 0.  0.
         14    1    1    2    0    0  0.17318627384E-01  0.11397785772E-02 -0.16933778377E-01  0.24248439121E-01  0.00000000000E+00 0.  1.
     999901    1    3    3    0    0 -0.13482037633E+00 -0.46391405294E-01  0.25970487808E-01  0.89185377871E+00  0.88000000000E+00 0. -1.
        -11    1    4    4    0    0  0.57217067911E-01  0.12520833562E-01 -0.87852697119E-02  0.59228424074E-01  0.51100000000E-03 0.  1.
         11    1    4    4    0    0  0.60284681037E-01  0.32730793154E-01 -0.25143971939E-03  0.68599358096E-01  0.51100000000E-03 0. -1.
</event>
<event>
 8    1  0.1060404E+005  0.1043930E+01  0.7957747E-01            NaN
         13   -1    0    0    0    0  0.00000000000E+00  0.00000000000E+00  0.74505805969E-08  0.10566000000E+00  0.10566000000E+00 0.  1.
     999900   -1    0    0    0    0 -0.00000000000E+00 -0.00000000000E+00 -0.74505805969E-08  0.93827000000E+00  0.93827000000E+00 0. -1.
     999902    2    1    2    0    0 -0.12126720912E-01 -0.15970833272E-01 -0.13202000754E-01  0.10199212995E+01  0.10196386809E+01 0.  0.
     999903    2    3    3    0    0 -0.10859475434E+00 -0.51617780109E-01  0.50585770787E-01  0.13163887477E+00  0.17682116740E-01 0.  0.
         14    1    1    2    0    0  0.12126720912E-01  0.15970833272E-01  0.13202000754E-01  0.24008700494E-01  0.00000000000E+00 0.  1.
     999901    1    3    3    0    0  0.96468033425E-01  0.35646946837E-01 -0.63787771541E-01  0.88828242473E+00  0.88000000000E+00 0.  1.
        -11    1    4    4    0    0 -0.49831493237E-01 -0.18544677811E-01  0.14295899749E-01  0.55061026724E-01  0.51100000000E-03 0. -1.
         11    1    4    4    0    0 -0.58763261101E-01 -0.33073102298E-01  0.36289871038E-01  0.76577848049E-01  0.51100000000E-03 0.  1.
</event>
<event>
 8    1  0.1060404E+005  0.1043930E+01  0.7957747E-01            NaN
         13   -1    0    0    0    0  0.00000000000E+00  0.00000000000E+00  0.74505805969E-08  0.10566000000E+00  0.10566000000E+00 0.  1.
     999900   -1    0    0    0    0 -0.00000000000E+00 -0.00000000000E+00 -0.74505805969E-08  0.93827000000E+00  0.93827000000E+00 0. -1.
     999902    2    1    2    0    0  0.69711244367E-02  0.16678116000E-01  0.14663016991E-01  0.10206542573E+01  0.10203888243E+01 0.  0.
     999903    2    3    3    0    0  0.93549829349E-01 -0.22372758038E-01  0.89048009262E-01  0.13242344838E+00  0.18823146747E-01 0.  0.
         14    1    1    2    0    0 -0.69711244367E-02 -0.16678116000E-01 -0.14663016991E-01  0.23275742663E-01  0.00000000000E+00 0. -1.
     999901    1    3    3    0    0 -0.86578704913E-01  0.39050874039E-01 -0.74384992271E-01  0.88823080896E+00  0.88000000000E+00 0. -1.
        -11    1    4    4    0    0  0.27132416805E-01 -0.39016604968E-02  0.36958709719E-01  0.46017369997E-01  0.51100000000E-03 0.  1.
         11    1    4    4    0    0  0.66417412545E-01 -0.18471097542E-01  0.52089299543E-01  0.86406078382E-01  0.51100000000E-03 0. -1.
</event>
<event>
 8    1  0.1060404E+005  0.1043930E+01  0.7957747E-01            NaN
         13   -1    0    0    0    0  0.00000000000E+00  0.00000000000E+00  0.74505805969E-08  0.10566000000E+00  0.10566000000E+00 0. -1.
     999900   -1    0    0    0    0 -0.00000000000E+00 -0.00000000000E+00 -0.74505805969E-08  0.93827000000E+00  0.93827000000E+00 0.  1.
     999902    2    1    2    0    0  0.14482412521E-02  0.22296836036E-01  0.73244538092E-02  0.10204163035E+01  0.10201453517E+01 0.  0.
     999903    2    3    3    0    0 -0.11957000221E+00 -0.27477833987E-01 -0.37595567830E-01  0.12960726595E+00  0.18237321006E-01 0.  0.
         14    1    1    2    0    0 -0.14482412521E-02 -0.22296836036E-01 -0.73244538092E-02  0.23513696509E-01  0.00000000000E+00 0.  1.
     999901    1    3    3    0    0  0.12101824346E+00  0.49774670022E-01  0.44920021640E-01  0.89080903754E+00  0.88000000000E+00 0. -1.
        -11    1    4    4    0    0 -0.63067787653E-01 -0.21456006142E-01 -0.26572257822E-01  0.71723441397E-01  0.51100000000E-03 0. -1.
         11    1    4    4    0    0 -0.56502214553E-01 -0.60218278450E-02 -0.11023310009E-01  0.57883824550E-01  0.51100000000E-03 0.  1.
</event>
<event>
 8    1  0.1060404E+005  0.1043930E+01  0.7957747E-01            NaN
         13   -1    0    0    0    0  0.00000000000E+00  0.00000000000E+00  0.74505805969E-08  0.10566000000E+00  0.10566000000E+00 0.  1.
     999900   -1    0    0    0    0 -0.00000000000E+00 -0.00000000000E+00 -0.74505805969E-08  0.93827000000E+00  0.93827000000E+00 0. -1.
     999902    2    1    2    0    0 -0.15730196878E-01  0.14879999144E-01 -0.75689693952E-02  0.10209921979E+01  0.10207345029E+01 0.  0.
     999903    2    3    3    0    0 -0.56899256897E-01  0.74505072236E-01  0.91475406023E-01  0.13247667796E+00  0.19844119306E-01 0.  0.
         14    1    1    2    0    0  0.15730196878E-01 -0.14879999144E-01  0.75689693952E-02  0.22937802119E-01  0.00000000000E+00 0.  1.
     999901    1    3    3    0    0  0.41169060019E-01 -0.59625073092E-01 -0.99044375419E-01  0.88851551992E+00  0.88000000000E+00 0. -1.
        -11    1    4    4    0    0 -0.49521926914E-01  0.65406140308E-01  0.87856850948E-01  0.12020595582E+00  0.51100000000E-03 0. -1.
         11    1    4    4    0    0 -0.73773299835E-02  0.90989319281E-02  0.36185550755E-02  0.12270722137E-01  0.51100000000E-03 0.  1.
</event>
<event>
 8    1  0.1060404E+005  0.1043930E+01  0.7957747E-01            NaN
         13   -1    0    0    0    0  0.00000000000E+00  0.00000000000E+00  0.74505805969E-08  0.10566000000E+00  0.10566000000E+00 0. -1.
     999900   -1    0    0    0    0 -0.00000000000E+00 -0.00000000000E+00 -0.74505805969E-08  0.93827000000E+00  0.93827000000E+00 0. -1.
     999902    2    1    2    0    0 -0.32965887520E-02  0.21822785975E-01  0.62016122914E-02  0.10210048723E+01  0.10207474652E+01 0.  0.
     999903    2    3    3    0    0 -0.73335340194E-01 -0.71871175527E-01  0.77781752336E-01  0.13038278545E+00  0.20152710822E-01 0.  0.
         14    1    1    2    0    0  0.32965887520E-02 -0.21822785975E-01 -0.62016122914E-02  0.22925127701E-01  0.00000000000E+00 0. -1.
     999901    1    3    3    0    0  0.70038751443E-01  0.93693961502E-01 -0.71580140044E-01  0.89062208684E+00  0.88000000000E+00 0.  1.
        -11    1    4    4    0    0 -0.49100372387E-01 -0.34211751006E-01  0.45292340122E-01  0.75052965765E-01  0.51100000000E-03 0. -1.
         11    1    4    4    0    0 -0.24234967808E-01 -0.37659424521E-01  0.32489412214E-01  0.55329819690E-01  0.51100000000E-03 0.  1.
</event>
<event>
 8    1  0.1060404E+005  0.1043930E+01  0.7957747E-01            NaN
         13   -1    0    0    0    0  0.00000000000E+00  0.00000000000E+00  0.74505805969E-08  0.10566000000E+00  0.10566000000E+00 0.  1.
     999900   -1    0    0    0    0 -0.00000000000E+00 -0.00000000000E+00 -0.74505805969E-08  0.93827000000E+00  0.93827000000E+00 0. -1.
     999902    2    1    2    0    0 -0.11945537717E-01 -0.19923844490E-01  0.54267037005E-02  0.10200740874E+01  0.10197950967E+01 0.  0.
     999903    2    3    3    0    0 -0.94232669738E-01 -0.86458852652E-01 -0.33579566384E-01  0.13287649474E+00  0.13177493212E-01 0.  0.
         14    1    1    2    0    0  0.11945537717E-01  0.19923844490E-01 -0.54267037005E-02  0.23855912551E-01  0.00000000000E+00 0.  1.
     999901    1    3    3    0    0  0.82287132020E-01  0.66535008162E-01  0.39006270084E-01  0.88719759271E+00  0.88000000000E+00 0. -1.
        -11    1    4    4    0    0 -0.71573200543E-01 -0.72259180372E-01 -0.28806484652E-01  0.10570802648E+00  0.51100000000E-03 0. -1.
         11    1    4    4    0    0 -0.22659469195E-01 -0.14199672280E-01 -0.47730817311E-02  0.27168468254E-01  0.51100000000E-03 0.  1.
</event>
<event>
 8    1  0.1060404E+005  0.1043930E+01  0.7957747E-01            NaN
         13   -1    0    0    0    0  0.00000000000E+00  0.00000000000E+00  0.74505805969E-08  0.10566000000E+00  0.10566000000E+00 0. -1.
     999900   -1    0    0    0    0 -0.00000000000E+00 -0.00000000000E+00 -0.74505805969E-08  0.93827000000E+00  0.93827000000E+00 0. -1.
     999902    2    1    2    0    0  0.12181408769E-01 -0.13080658147E-02  0.20847016674E-01  0.10197495149E+01  0.10194627886E+01 0.  0.
     999903    2    3    3    0    0 -0.68404846973E-02 -0.78128108639E-01  0.10485065656E+00  0.13221373369E+00  0.18330782958E-01 0.  0.
         14    1    1    2    0    0 -0.12181408769E-01  0.13080658147E-02 -0.20847016674E-01  0.24180485106E-01  0.00000000000E+00 0.  1.
     999901    1    3    3    0    0  0.19021893466E-01  0.76820042824E-01 -0.84003639885E-01  0.88753578121E+00  0.88000000000E+00 0. -1.
        -11    1    4    4    0    0  0.84526029313E-03 -0.64559497601E-01  0.79117131646E-01  0.10211965940E+00  0.51100000000E-03 0. -1.
         11    1    4    4    0    0 -0.76857449905E-02 -0.13568611038E-01  0.25733524913E-01  0.30094074284E-01  0.51100000000E-03 0.  1.
</event>
<event>
 8    1  0.1060404E+005  0.1043930E+01  0.7957747E-01            NaN
         13   -1    0    0    0    0  0.00000000000E+00  0.00000000000E+00  0.74505805969E-08  0.10566000000E+00  0.10566000000E+00 0.  1.
     999900   -1    0    0    0    0 -0.00000000000E+00 -0.00000000000E+00 -0.74505805969E-08  0.93827000000E+00  0.93827000000E+00 0. -1.
     999902    2    1    2    0    0  0.19920312348E-01 -0.57725673199E-03  0.12098811579E-01  0.10206161991E+01  0.10203498874E+01 0.  0.
     999903    2    3    3    0    0  0.35849295570E-01  0.14000514311E-01  0.12568586806E+00  0.13305309528E+00  0.20615584901E-01 0.  0.
         14    1    1    2    0    0 -0.19920312348E-01  0.57725673199E-03 -0.12098811579E-01  0.23313800870E-01  0.00000000000E+00 0.  1.
     999901    1    3    3    0    0 -0.15928983222E-01 -0.14577771043E-01 -0.11358705648E+00  0.88756310385E+00  0.88000000000E+00 0. -1.
        -11    1    4    4    0    0  0.11730193936E-01  0.57125852887E-02  0.76902576769E-01  0.78003195545E-01  0.51100000000E-03 0. -1.
         11    1    4    4    0    0  0.24119101634E-01  0.82879290224E-02  0.48783291288E-01  0.55049899736E-01  0.51100000000E-03 0.  1.
</event>
<event>
 8    1  0.1060404E+005  0.1043930E+01  0.7957747E-01            NaN
         13   -1    0    0    0    0  0.00000000000E+00  0.00000000000E+00  0.74505805969E-08  0.10566000000E+00  0.10566000000E+00 0. -1.
     999900   -1    0    0    0    0 -0.00000000000E+00 -0.00000000000E+00 -0.74505805969E-08  0.93827000000E+00  0.93827000000E+00 0. -1.
     999902    2    1    2    0    0 -0.13307443967E-01 -0.18329379244E-01 -0.32304845962E-02  0.10210500909E+01  0.10207937098E+01 0.  0.
     999903    2    3    3    0    0  0.10092392285E-01 -0.71409230189E-01 -0.10939525690E+00  0.13277311735E+00  0.21453296265E-01 0.  0.
         14    1    1    2    0    0  0.13307443967E-01  0.18329379244E-01  0.32304845962E-02  0.22879909072E-01  0.00000000000E+00 0. -1.
     999901    1    3    3    0    0 -0.23399836252E-01  0.53079850945E-01  0.10616477230E+00  0.88827697358E+00  0.88000000000E+00 0.  1.
        -11    1    4    4    0    0  0.31132564806E-02 -0.43374085081E-01 -0.47123962977E-01  0.64124352864E-01  0.51100000000E-03 0. -1.
         11    1    4    4    0    0  0.69791358042E-02 -0.28035145108E-01 -0.62271293920E-01  0.68648764485E-01  0.51100000000E-03 0.  1.
</event>
<event>
 8    1  0.1060404E+005  0.1043930E+01  0.7957747E-01            NaN
         13   -1    0    0    0    0  0.00000000000E+00  0.00000000000E+00  0.74505805969E-08  0.10566000000E+00  0.10566000000E+00 0.  1.
     999900   -1    0    0    0    0 -0.00000000000E+00 -0.00000000000E+00 -0.74505805969E-08  0.93827000000E+00  0.93827000000E+00 0. -1.
     999902    2    1    2    0    0 -0.20729537635E-01 -0.11420124284E-01 -0.21782717214E-02  0.10201628412E+01  0.10198859469E+01 0.  0.
     999903    2    3    3    0    0 -0.97923579658E-01 -0.87625898524E-01 -0.12073219115E-01  0.13344746967E+00  0.19878103404E-01 0.  0.
         14    1    1    2    0    0  0.20729537635E-01  0.11420124284E-01  0.21782717214E-02  0.23767158789E-01  0.00000000000E+00 0.  1.
     999901    1    3    3    0    0  0.77194042023E-01  0.76205774240E-01  0.98949473938E-02  0.88671537155E+00  0.88000000000E+00 0. -1.
        -11    1    4    4    0    0 -0.75288845714E-01 -0.56964590212E-01 -0.40568977699E-02  0.94499176543E-01  0.51100000000E-03 0. -1.
         11    1    4    4    0    0 -0.22634733945E-01 -0.30661308312E-01 -0.80163213453E-02  0.38948293122E-01  0.51100000000E-03 0.  1.
</event>
<event>
 7    1  0.2305645E+005  0.1043930E+01  0.7957747E-01            NaN
         13   -1    0    0    0    0  0.00000000000E+00  0.00000000000E+00  0.74505805969E-08  0.10566000000E+00  0.10566000000E+00 0.  1.
     999900   -1    0    0    0    0 -0.00000000000E+00 -0.00000000000E+00 -0.74505805969E-08  0.93827000000E+00  0.93827000000E+00 0.  1.
     999903    2    1    2    0    0  0.54696930593E-01 -0.78142810272E-01  0.48947423039E-01  0.10929874765E+00  0.21267651521E-01 0.  0.
         14    1    1    2    0    0  0.52210764222E-02  0.36945051050E-01  0.30324569571E-01  0.48080931311E-01  0.00000000000E+00 0.  1.
     999901    1    1    2    0    0 -0.59918007015E-01  0.41197759222E-01 -0.79271992610E-01  0.88655032104E+00  0.88000000000E+00 0.  1.
        -11    1    3    3    0    0  0.30862449491E-01 -0.37315476990E-01  0.35810526356E-01  0.60229482236E-01  0.51100000000E-03 0.  1.
         11    1    3    3    0    0  0.23834481102E-01 -0.40827333282E-01  0.13136896683E-01  0.49069265410E-01  0.51100000000E-03 0. -1.
</event>
<event>
 7    1  0.1476407E+005  0.1043930E+01  0.7957747E-01            NaN
         13   -1    0    0    0    0  0.00000000000E+00  0.00000000000E+00  0.74505805969E-08  0.10566000000E+00  0.10566000000E+00 0. -1.
     999900   -1    0    0    0    0 -0.00000000000E+00 -0.00000000000E+00 -0.74505805969E-08  0.93827000000E+00  0.93827000000E+00 0.  1.
     999903    2    1    2    0    0 -0.51596844700E-01 -0.34425883854E-01 -0.76655794161E-01  0.10080376490E+00  0.20926356032E-01 0.  0.
         14    1    1    2    0    0 -0.51249589800E-01  0.16479725857E-01  0.41447695027E-02  0.53993341563E-01  0.00000000000E+00 0. -1.
     999901    1    1    2    0    0  0.10284643450E+00  0.17946157997E-01  0.72511024659E-01  0.88913289354E+00  0.88000000000E+00 0. -1.
        -11    1    3    3    0    0 -0.49548939564E-01 -0.25784252835E-01 -0.60377726782E-01  0.82253608544E-01  0.51100000000E-03 0.  1.
         11    1    3    3    0    0 -0.20479051368E-02 -0.86416310198E-02 -0.16278067380E-01  0.18550156354E-01  0.51100000000E-03 0. -1.
</event>
<event>
 8    1  0.1060404E+005  0.1043930E+01  0.7957747E-01            NaN
         13   -1    0    0    0    0  0.00000000000E+00  0.00000000000E+00  0.74505805969E-08  0.10566000000E+00  0.10566000000E+00 0. -1.
     999900   -1    0    0    0    0 -0.00000000000E+00 -0.00000000000E+00 -0.74505805969E-08  0.93827000000E+00  0.93827000000E+00 0.  1.
     999902    2    1    2    0    0  0.12475239465E-01  0.19781309650E-01 -0.34908644138E-02  0.10202843250E+01  0.10200102872E+01 0.  0.
     999903    2    3    3    0    0  0.48480718930E-01 -0.11153805968E+00 -0.38806331079E-01  0.12911186499E+00  0.19308637580E-01 0.  0.
         14    1    1    2    0    0 -0.12475239465E-01 -0.19781309650E-01  0.34908644138E-02  0.23645674986E-01  0.00000000000E+00 0.  1.
     999901    1    3    3    0    0 -0.36005479465E-01  0.13131936933E+00  0.35315466666E-01  0.89117246002E+00  0.88000000000E+00 0.  1.
        -11    1    4    4    0    0  0.16883699467E-01 -0.20396066065E-01 -0.11378015705E-01  0.28823240293E-01  0.51100000000E-03 0.  1.
         11    1    4    4    0    0  0.31597019463E-01 -0.91141993615E-01 -0.27428315374E-01  0.10028862470E+00  0.51100000000E-03 0. -1.
</event>
<event>
 8    1  0.1060404E+005  0.1043930E+01  0.7957747E-01            NaN
         13   -1    0    0    0    0  0.00000000000E+00  0.00000000000E+00  0.74505805969E-08  0.10566000000E+00  0.10566000000E+00 0.  1.
     999900   -1    0    0    0    0 -0.00000000000E+00 -0.00000000000E+00 -0.74505805969E-08  0.93827000000E+00  0.93827000000E+00 0. -1.
     999902    2    1    2    0    0  0.35075441434E-03 -0.10706820651E-01 -0.21237969180E-01  0.10201432312E+01  0.10198658744E+01 0.  0.
     999903    2    3    3    0    0 -0.73067073973E-01  0.86497859718E-01 -0.61423933397E-01  0.13084359710E+00  0.22944940046E-01 0.  0.
         14    1    1    2    0    0 -0.35075441434E-03  0.10706820651E-01  0.21237969180E-01  0.23786768843E-01  0.00000000000E+00 0.  1.
     999901    1    3    3    0    0  0.73417828387E-01 -0.97204680369E-01  0.40185964217E-01  0.88929963406E+00  0.88000000000E+00 0.  1.
        -11    1    4    4    0    0 -0.45048661293E-01  0.38224734736E-01 -0.38393500764E-01  0.70461579970E-01  0.51100000000E-03 0. -1.
         11    1    4    4    0    0 -0.28018412680E-01  0.48273124982E-01 -0.23030432633E-01  0.60382017132E-01  0.51100000000E-03 0.  1.
</event>
<event>
 8    1  0.1060404E+005  0.1043930E+01  0.7957747E-01            NaN
         13   -1    0    0    0    0  0.00000000000E+00  0.00000000000E+00  0.74505805969E-08  0.10566000000E+00  0.10566000000E+00 0. -1.
     999900   -1    0    0    0    0 -0.00000000000E+00 -0.00000000000E+00 -0.74505805969E-08  0.93827000000E+00  0.93827000000E+00 0.  1.
     999902    2    1    2    0    0 -0.23743318340E-01  0.23308806555E-02 -0.29188465921E-03  0.10200707593E+01  0.10197916898E+01 0.  0.
     999903    2    3    3    0    0 -0.56387412792E-01  0.10470451563E+00  0.53581998866E-01  0.13189938317E+00  0.19591854508E-01 0.  0.
         14    1    1    2    0    0  0.23743318340E-01 -0.23308806555E-02  0.29188465921E-03  0.23859240706E-01  0.00000000000E+00 0. -1.
     999901    1    3    3    0    0  0.32644094452E-01 -0.10237363498E+00 -0.53873883525E-01  0.88817137612E+00  0.88000000000E+00 0. -1.
        -11    1    4    4    0    0 -0.31759272194E-01  0.76521265574E-01  0.40740219808E-01  0.92326497206E-01  0.51100000000E-03 0.  1.
         11    1    4    4    0    0 -0.24628140598E-01  0.28183250057E-01  0.12841779058E-01  0.39572885963E-01  0.51100000000E-03 0. -1.
</event>
<event>
 8    1  0.1060404E+005  0.1043930E+01  0.7957747E-01            NaN
         13   -1    0    0    0    0  0.00000000000E+00  0.00000000000E+00  0.74505805969E-08  0.10566000000E+00  0.10566000000E+00 0.  1.
     999900   -1    0    0    0    0 -0.00000000000E+00 -0.00000000000E+00 -0.74505805969E-08  0.93827000000E+00  0.93827000000E+00 0. -1.
     999902    2    1    2    0    0 -0.94180778628E-02  0.14919133948E-01 -0.15337468601E-01  0.10205522608E+01  0.10202844693E+01 0.  0.
     999903    2    3    3    0    0  0.19410235916E-01  0.88642628260E-01  0.91102808750E-01  0.13061082566E+00  0.22917094356E-01 0.  0.
         14    1    1    2    0    0  0.94180778628E-02 -0.14919133948E-01  0.15337468601E-01  0.23377739229E-01  0.00000000000E+00 0.  1.
     999901    1    3    3    0    0 -0.28828313779E-01 -0.73723494312E-01 -0.10644027735E+00  0.88994143511E+00  0.88000000000E+00 0. -1.
        -11    1    4    4    0    0  0.15650934160E-02  0.98194282787E-02  0.22485650362E-01  0.24591386344E-01  0.51100000000E-03 0.  1.
         11    1    4    4    0    0  0.17845142500E-01  0.78823199981E-01  0.68617158387E-01  0.10601943931E+00  0.51100000000E-03 0. -1.
</event>
<event>
 8    1  0.1060404E+005  0.1043930E+01  0.7957747E-01            NaN
         13   -1    0    0    0    0  0.00000000000E+00  0.00000000000E+00  0.74505805969E-08  0.10566000000E+00  0.10566000000E+00 0. -1.
     999900   -1    0    0    0    0 -0.00000000000E+00 -0.00000000000E+00 -0.74505805969E-08  0.93827000000E+00  0.93827000000E+00 0. -1.
     999902    2    1    2    0    0 -0.14329193068E-01 -0.89401851357E-02 -0.15950409343E-01  0.10206992393E+01  0.10204348430E+01 0.  0.
     999903    2    3    3    0    0  0.72485085524E-01 -0.27199165961E-01 -0.10476695319E+00  0.13179064569E+00  0.19969415542E-01 0.  0.
         14    1    1    2    0    0  0.14329193068E-01  0.89401851357E-02  0.15950409343E-01  0.23230760695E-01  0.00000000000E+00 0. -1.
     999901    1    3    3    0    0 -0.86814278592E-01  0.18258980825E-01  0.88816543847E-01  0.88890859362E+00  0.88000000000E+00 0.  1.
        -11    1    4    4    0    0  0.44360382731E-01 -0.22138459120E-01 -0.79221960827E-01  0.93457664889E-01  0.51100000000E-03 0.  1.
         11    1    4    4    0    0  0.28124702793E-01 -0.50607068404E-02 -0.25544992364E-01  0.38332980797E-01  0.51100000000E-03 0. -1.
</event>
<event>
 8    1  0.1060404E+005  0.1043930E+01  0.7957747E-01            NaN
         13   -1    0    0    0    0  0.00000000000E+00  0.00000000000E+00  0.74505805969E-08  0.10566000000E+00  0.10566000000E+00 0. -1.
     999900   -1    0    0    0    0 -0.00000000000E+00 -0.00000000000E+00 -0.74505805969E-08  0.93827000000E+00  0.93827000000E+00 0. -1.
     999902    2    1    2    0    0 -0.19530245046E-01  0.22499066369E-02 -0.97228803085E-02  0.10219976733E+01  0.10217623096E+01 0.  0.
     999903    2    3    3    0    0  0.11306091433E+00  0.60335246325E-01  0.83889182991E-02  0.12998738221E+00  0.20080669440E-01 0.  0.
         14    1    1    2    0    0  0.19530245046E-01 -0.22499066369E-02  0.97228803085E-02  0.21932326665E-01  0.00000000000E+00 0. -1.
     999901    1    3    3    0    0 -0.13259115937E+00 -0.58085339689E-01 -0.18111798608E-01  0.89201029113E+00  0.88000000000E+00 0.  1.
        -11    1    4    4    0    0  0.71372951810E-01  0.43222190073E-01 -0.30295543119E-02  0.83496678288E-01  0.51100000000E-03 0.  1.
         11    1    4    4    0    0  0.41687962516E-01  0.17113056252E-01  0.11418472611E-01  0.46490703918E-01  0.51100000000E-03 0. -1.
</event>
<event>
 8    1  0.1060404E+005  0.1043930E+01  0.7957747E-01            NaN
         13   -1    0    0    0    0  0.00000000000E+00  0.00000000000E+00  0.74505805969E-08  0.10566000000E+00  0.10566000000E+00 0. -1.
     999900   -1    0    0    0    0 -0.00000000000E+00 -0.00000000000E+00 -0.74505805969E-08  0.93827000000E+00  0.93827000000E+00 0. -1.
     999902    2    1    2    0    0  0.73862959640E-02  0.16465402120E-01 -0.14859062348E-01  0.10205535467E+01  0.10202857850E+01 0.  0.
     999903    2    3    3    0    0  0.99203793316E-01 -0.80277142008E-01  0.86102372015E-02  0.13019385495E+00  0.24300031807E-01 0.  0.
         14    1    1    2    0    0 -0.73862959640E-02 -0.16465402120E-01  0.14859062348E-01  0.23376453300E-01  0.00000000000E+00 0.  1.
     999901    1    3    3    0    0 -0.91817497352E-01  0.96742544128E-01 -0.23469299549E-01  0.89035969175E+00  0.88000000000E+00 0.  1.
        -11    1    4    4    0    0  0.41912033679E-01 -0.35352709663E-01  0.15716423308E-01  0.57041210806E-01  0.51100000000E-03 0. -1.
         11    1    4    4    0    0  0.57291759636E-01 -0.44924432345E-01 -0.71061861069E-02  0.73152644147E-01  0.51100000000E-03 0.  1.
</event>
<event>
 8    1  0.1060404E+005  0.1043930E+01  0.7957747E-01            NaN
         13   -1    0    0    0    0  0.00000000000E+00  0.00000000000E+00  0.74505805969E-08  0.10566000000E+00  0.10566000000E+00 0.  1.
     999900   -1    0    0    0    0 -0.00000000000E+00 -0.00000000000E+00 -0.74505805969E-08  0.93827000000E+00  0.93827000000E+00 0. -1.
     999902    2    1    2    0    0 -0.19544764962E-01 -0.89196005717E-02 -0.96637816393E-02  0.10203727126E+01  0.10201007435E+01 0.  0.
     999903    2    3    3    0    0 -0.10229040449E+00  0.61077229134E-01  0.52093764195E-01  0.13157555272E+00  0.20114945615E-01 0.  0.
         14    1    1    2    0    0  0.19544764962E-01  0.89196005717E-02  0.96637816393E-02  0.23557287351E-01  0.00000000000E+00 0.  1.
     999901    1    3    3    0    0  0.82745639525E-01 -0.69996829706E-01 -0.61757545834E-01  0.88879715993E+00  0.88000000000E+00 0. -1.
        -11    1    4    4    0    0 -0.50492996857E-01  0.18543804926E-01  0.23845443486E-01  0.58841156759E-01  0.51100000000E-03 0. -1.
         11    1    4    4    0    0 -0.51797407630E-01  0.42533424208E-01  0.28248320709E-01  0.72734395961E-01  0.51100000000E-03 0.  1.
</event>
<event>
 8    1  0.1060404E+005  0.1043930E+01  0.7957747E-01            NaN
         13   -1    0    0    0    0  0.00000000000E+00  0.00000000000E+00  0.74505805969E-08  0.10566000000E+00  0.10566000000E+00 0. -1.
     999900   -1    0    0    0    0 -0.00000000000E+00 -0.00000000000E+00 -0.74505805969E-08  0.93827000000E+00  0.93827000000E+00 0. -1.
     999902    2    1    2    0    0  0.11833728525E-01 -0.83543040814E-02  0.19438851896E-01  0.10196874653E+01  0.10193992478E+01 0.  0.
     999903    2    3    3    0    0  0.37396990808E-01  0.10549336453E+00 -0.59475198853E-01  0.12848479503E+00  0.21063199990E-01 0.  0.
         14    1    1    2    0    0 -0.11833728525E-01  0.83543040814E-02 -0.19438851896E-01  0.24242534738E-01  0.00000000000E+00 0. -1.
     999901    1    3    3    0    0 -0.25563262282E-01 -0.11384766861E+00  0.78914050749E-01  0.89120267023E+00  0.88000000000E+00 0.  1.
        -11    1    4    4    0    0  0.31019645108E-01  0.56357742161E-01 -0.32862756563E-01  0.72240123021E-01  0.51100000000E-03 0. -1.
         11    1    4    4    0    0  0.63773457000E-02  0.49135622367E-01 -0.26612442290E-01  0.56244672007E-01  0.51100000000E-03 0.  1.
</event>
<event>
 8    1  0.1060404E+005  0.1043930E+01  0.7957747E-01            NaN
         13   -1    0    0    0    0  0.00000000000E+00  0.00000000000E+00  0.74505805969E-08  0.10566000000E+00  0.10566000000E+00 0.  1.
     999900   -1    0    0    0    0 -0.00000000000E+00 -0.00000000000E+00 -0.74505805969E-08  0.93827000000E+00  0.93827000000E+00 0. -1.
     999902    2    1    2    0    0 -0.90639680432E-02  0.17053227045E-01 -0.15123159358E-01  0.10194008741E+01  0.10191057178E+01 0.  0.
     999903    2    3    3    0    0 -0.12898967599E+00  0.38670039145E-03  0.67746910606E-02  0.13084054164E+00  0.20853413332E-01 0.  0.
         14    1    1    2    0    0  0.90639680432E-02 -0.17053227045E-01  0.15123159358E-01  0.24529125918E-01  0.00000000000E+00 0. -1.
     999901    1    3    3    0    0  0.11992570795E+00  0.16666526654E-01 -0.21897850418E-01  0.88856033244E+00  0.88000000000E+00 0. -1.
        -11    1    4    4    0    0 -0.10009012446E+00 -0.53358643956E-02 -0.14677017701E-02  0.10024430025E+00  0.51100000000E-03 0.  1.
         11    1    4    4    0    0 -0.28899551534E-01  0.57225647871E-02  0.82423928307E-02  0.30596241390E-01  0.51100000000E-03 0. -1.
</event>
<event>
 8    1  0.1060404E+005  0.1043930E+01  0.7957747E-01            NaN
         13   -1    0    0    0    0  0.00000000000E+00  0.00000000000E+00  0.74505805969E-08  0.10566000000E+00  0.10566000000E+00 0.  1.
     999900   -1    0    0    0    0 -0.00000000000E+00 -0.00000000000E+00 -0.74505805969E-08  0.93827000000E+00  0.93827000000E+00 0. -1.
     999902    2    1    2    0    0 -0.36011378312E-02 -0.16844981579E-02 -0.18568691866E-01  0.10249404754E+01  0.10247645466E+01 0.  0.
     999903    2    3    3    0    0  0.28990822942E-01 -0.76988782273E-01  0.10252672128E+00  0.13286588758E+00  0.19335849981E-01 0.  0.
         14    1    1    2    0    0  0.36011378312E-02  0.16844981579E-02  0.18568691866E-01  0.18989524621E-01  0.00000000000E+00 0.  1.
     999901    1    3    3    0    0 -0.32591960773E-01  0.75304284115E-01 -0.12109541315E+00  0.89207458780E+00  0.88000000000E+00 0. -1.
        -11    1    4    4    0    0  0.98444295551E-02 -0.13066706566E-01  0.30928166530E-01  0.34992345158E-01  0.51100000000E-03 0.  1.
         11    1    4    4    0    0  0.19146393387E-01 -0.63922075707E-01  0.71598554753E-01  0.97873542421E-01  0.51100000000E-03 0. -1.
</event>
<event>
 8    1  0.1060404E+005  0.1043930E+01  0.7957747E-01            NaN
         13   -1    0    0    0    0  0.00000000000E+00  0.00000000000E+00  0.74505805969E-08  0.10566000000E+00  0.10566000000E+00 0. -1.
     999900   -1    0    0    0    0 -0.00000000000E+00 -0.00000000000E+00 -0.74505805969E-08  0.93827000000E+00  0.93827000000E+00 0. -1.
     999902    2    1    2    0    0  0.19614885141E-01  0.16567515445E-02  0.14988569287E-01  0.10191884205E+01  0.10188880659E+01 0.  0.
     999903    2    3    3    0    0 -0.96546826416E-01  0.80192068703E-01 -0.11015581072E-01  0.12770787947E+00  0.20878263309E-01 0.  0.
         14    1    1    2    0    0 -0.19614885141E-01 -0.16567515445E-02 -0.14988569287E-01  0.24741579457E-01  0.00000000000E+00 0.  1.
     999901    1    3    3    0    0  0.11616171156E+00 -0.78535317158E-01  0.26004150360E-01  0.89148054107E+00  0.88000000000E+00 0.  1.
        -11    1    4    4    0    0 -0.33631415256E-01  0.40721091864E-01 -0.16049971467E-02  0.52840482128E-01  0.51100000000E-03 0. -1.
         11    1    4    4    0    0 -0.62915411160E-01  0.39470976839E-01 -0.94105839256E-02  0.74867397343E-01  0.51100000000E-03 0.  1.
</event>
<event>
 8    1  0.1060404E+005  0.1043930E+01  0.7957747E-01            NaN
         13   -1    0    0    0    0  0.00000000000E+00  0.00000000000E+00  0.74505805969E-08  0.10566000000E+00  0.10566000000E+00 0.  1.
     999900   -1    0    0    0    0 -0.00000000000E+00 -0.00000000000E+00 -0.74505805969E-08  0.93827000000E+00  0.93827000000E+00 0. -1.
     999902    2    1    2    0    0 -0.17174584440E-01 -0.16995109607E-01  0.61699595566E-02  0.10189927086E+01  0.10186875241E+01 0.  0.
     999903    2    3    3    0    0  0.49295130540E-01 -0.58886396685E-01  0.10358782007E+00  0.13013763465E+00  0.17542801282E-01 0.  0.
         14    1    1    2    0    0  0.17174584440E-01  0.16995109607E-01 -0.61699595566E-02  0.24937291396E-01  0.00000000000E+00 0.  1.
     999901    1    3    3    0    0 -0.66469714980E-01  0.41891287078E-01 -0.97417860512E-01  0.88885507395E+00  0.88000000000E+00 0. -1.
        -11    1    4    4    0    0  0.47216690960E-01 -0.55091233244E-01  0.88546541611E-01  0.11447799368E+00  0.51100000000E-03 0.  1.
         11    1    4    4    0    0  0.20784395798E-02 -0.37951634417E-02  0.15041278458E-01  0.15659640969E-01  0.51100000000E-03 0. -1.
</event>
<event>
 8    1  0.1060404E+005  0.1043930E+01  0.7957747E-01            NaN
         13   -1    0    0    0    0  0.00000000000E+00  0.00000000000E+00  0.74505805969E-08  0.10566000000E+00  0.10566000000E+00 0.  1.
     999900   -1    0    0    0    0 -0.00000000000E+00 -0.00000000000E+00 -0.74505805969E-08  0.93827000000E+00  0.93827000000E+00 0. -1.
     999902    2    1    2    0    0 -0.29955728054E-02  0.49176704457E-03  0.20894976132E-01  0.10228156608E+01  0.10225977023E+01 0.  0.
     999903    2    3    3    0    0 -0.54740334490E-01 -0.11493810152E+00 -0.30112489841E-01  0.13230831301E+00  0.19785253242E-01 0.  0.
         14    1    1    2    0    0  0.29955728054E-02 -0.49176704457E-03 -0.20894976132E-01  0.21114339176E-01  0.00000000000E+00 0. -1.
     999901    1    3    3    0    0  0.51744761685E-01  0.11542986857E+00  0.51007465974E-01  0.89050734781E+00  0.88000000000E+00 0.  1.
        -11    1    4    4    0    0 -0.16704335349E-01 -0.22648710932E-01 -0.36818432899E-03  0.28149522323E-01  0.51100000000E-03 0. -1.
         11    1    4    4    0    0 -0.38035999142E-01 -0.92289390593E-01 -0.29744305512E-01  0.10415879069E+00  0.51100000000E-03 0.  1.
</event>
<event>
 8    1  0.1060404E+005  0.1043930E+01  0.7957747E-01            NaN
         13   -1    0    0    0    0  0.00000000000E+00  0.00000000000E+00  0.74505805969E-08  0.10566000000E+00  0.10566000000E+00 0. -1.
     999900   -1    0    0    0    0 -0.00000000000E+00 -0.00000000000E+00 -0.74505805969E-08  0.93827000000E+00  0.93827000000E+00 0.  1.
     999902    2    1    2    0    0  0.35447098666E-02 -0.23309616038E-01  0.36742945498E-02  0.10200678205E+01  0.10197886815E+01 0.  0.
     999903    2    3    3    0    0 -0.31011976973E-01 -0.58585189232E-01  0.11234342136E+00  0.13200953992E+00  0.20285640075E-01 0.  0.
         14    1    1    2    0    0 -0.35447098666E-02  0.23309616038E-01 -0.36742945498E-02  0.23862179454E-01  0.00000000000E+00 0. -1.
     999901    1    3    3    0    0  0.34556686840E-01  0.35275573194E-01 -0.10866912681E+00  0.88805828063E+00  0.88000000000E+00 0. -1.
        -11    1    4    4    0    0 -0.29350841360E-01 -0.35050230002E-01  0.74697626487E-01  0.87578462167E-01  0.51100000000E-03 0.  1.
         11    1    4    4    0    0 -0.16611356135E-02 -0.23534959229E-01  0.37645794874E-01  0.44431077751E-01  0.51100000000E-03 0. -1.
</event>
<event>
 8    1  0.1060404E+005  0.1043930E+01  0.7957747E-01            NaN
         13   -1    0    0    0    0  0.00000000000E+00  0.00000000000E+00  0.74505805969E-08  0.10566000000E+00  0.10566000000E+00 0.  1.
     999900   -1    0    0    0    0 -0.00000000000E+00 -0.00000000000E+00 -0.74505805969E-08  0.93827000000E+00  0.93827000000E+00 0. -1.
     999902    2    1    2    0    0  0.63981124124E-02 -0.20756235589E-01  0.91533648444E-02  0.10203600775E+01  0.10200878131E+01 0.  0.
     999903    2    3    3    0    0 -0.10378521728E+00 -0.66356305078E-01  0.41916042477E-01  0.13171328292E+00  0.20418220580E-01 0.  0.
         14    1    1    2    0    0 -0.63981124124E-02  0.20756235589E-01 -0.91533648444E-02  0.23569922492E-01  0.00000000000E+00 0.  1.
     999901    1    3    3    0    0  0.11018332969E+00  0.45600069489E-01 -0.32762677632E-01  0.88864679458E+00  0.88000000000E+00 0. -1.
        -11    1    4    4    0    0 -0.50049027633E-01 -0.22388758768E-01  0.24930937675E-01  0.60232669380E-01  0.51100000000E-03 0.  1.
         11    1    4    4    0    0 -0.53736189649E-01 -0.43967546310E-01  0.16985104801E-01  0.71480613544E-01  0.51100000000E-03 0. -1.
</event>
<event>
 8    1  0.1060404E+005  0.1043930E+01  0.7957747E-01            NaN
         13   -1    0    0    0    0  0.00000000000E+00  0.00000000000E+00  0.74505805969E-08  0.10566000000E+00  0.10566000000E+00 0.  1.
     999900   -1    0    0    0    0 -0.00000000000E+00 -0.00000000000E+00 -0.74505805969E-08  0.93827000000E+00  0.93827000000E+00 0. -1.
     999902    2    1    2    0    0 -0.12176976106E-01 -0.12937437401E-01 -0.10940671106E-01  0.10230648540E+01  0.10228520622E+01 0.  0.
     999903    2    3    3    0    0  0.49117400649E-01 -0.97846803165E-01  0.72809173436E-01  0.13290720645E+00  0.19407056825E-01 0.  0.
         14    1    1    2    0    0  0.12176976106E-01  0.12937437401E-01  0.10940671106E-01  0.20865146006E-01  0.00000000000E+00 0.  1.
     999901    1    3    3    0    0 -0.61294376755E-01  0.84909365763E-01 -0.83749844542E-01  0.89015764754E+00  0.88000000000E+00 0. -1.
        -11    1    4    4    0    0  0.39139524313E-01 -0.72169470550E-01  0.44425722486E-01  0.93350097924E-01  0.51100000000E-03 0.  1.
         11    1    4    4    0    0  0.99778763359E-02 -0.25677332614E-01  0.28383450949E-01  0.39557108529E-01  0.51100000000E-03 0. -1.
</event>
<event>
 8    1  0.1060404E+005  0.1043930E+01  0.7957747E-01            NaN
         13   -1    0    0    0    0  0.00000000000E+00  0.00000000000E+00  0.74505805969E-08  0.10566000000E+00  0.10566000000E+00 0.  1.
     999900   -1    0    0    0    0 -0.00000000000E+00 -0.00000000000E+00 -0.74505805969E-08  0.93827000000E+00  0.93827000000E+00 0.  1.
     999902    2    1    2    0    0  0.98478068735E-02 -0.23201181977E-04 -0.21717994166E-01  0.10200835934E+01  0.10198048276E+01 0.  0.
     999903    2    3    3    0    0  0.45161815563E-01  0.87392753238E-01  0.81016040220E-01  0.12910496842E+00  0.20673925471E-01 0.  0.
         14    1    1    2    0    0 -0.98478068735E-02  0.23201181977E-04  0.21717994166E-01  0.23846406629E-01  0.00000000000E+00 0.  1.
     999901    1    3    3    0    0 -0.35314008689E-01 -0.87415954420E-01 -0.10273403439E+00  0.89097862495E+00  0.88000000000E+00 0.  1.
        -11    1    4    4    0    0  0.30507381721E-01  0.68652813898E-01  0.51006744041E-01  0.90806708201E-01  0.51100000000E-03 0. -1.
         11    1    4    4    0    0  0.14654433842E-01  0.18739939341E-01  0.30009296179E-01  0.38298260220E-01  0.51100000000E-03 0.  1.
</event>
<event>
 8    1  0.1060404E+005  0.1043930E+01  0.7957747E-01            NaN
         13   -1    0    0    0    0  0.00000000000E+00  0.00000000000E+00  0.74505805969E-08  0.10566000000E+00  0.10566000000E+00 0. -1.
     999900   -1    0    0    0    0 -0.00000000000E+00 -0.00000000000E+00 -0.74505805969E-08  0.93827000000E+00  0.93827000000E+00 0. -1.
     999902    2    1    2    0    0  0.14965935520E-01 -0.15973365618E-01 -0.68899876769E-02  0.10209822427E+01  0.10207243214E+01 0.  0.
     999903    2    3    3    0    0  0.34329374928E-02 -0.61349039976E-01  0.11445588144E+00  0.13142236173E+00  0.19904738135E-01 0.  0.
         14    1    1    2    0    0 -0.14965935520E-01  0.15973365618E-01  0.68899876769E-02  0.22947757305E-01  0.00000000000E+00 0. -1.
     999901    1    3    3    0    0  0.11532998027E-01  0.45375674359E-01 -0.12134586912E+00  0.88955988096E+00  0.88000000000E+00 0. -1.
        -11    1    4    4    0    0 -0.61421659397E-02 -0.77228347789E-02  0.21873217884E-01  0.24001399148E-01  0.51100000000E-03 0. -1.
         11    1    4    4    0    0  0.95751034325E-02 -0.53626205198E-01  0.92582663559E-01  0.10742096258E+00  0.51100000000E-03 0.  1.
</event>
<event>
 8    1  0.1060404E+005  0.1043930E+01  0.7957747E-01            NaN
         13   -1    0    0    0    0  0.00000000000E+00  0.00000000000E+00  0.74505805969E-08  0.10566000000E+00  0.10566000000E+00 0.  1.
     999900   -1    0    0    0    0 -0.00000000000E+00 -0.00000000000E+00 -0.74505805969E-08  0.93827000000E+00  0.93827000000E+00 0.  1.
     999902    2    1    2    0    0  0.35010671490E-03 -0.21458950209E-01 -0.10034820425E-01  0.10202380870E+01  0.10199629638E+01 0.  0.
     999903    2    3    3    0    0  0.11484952577E+00 -0.58543180992E-01 -0.20518297386E-01  0.13198403530E+00  0.19520948699E-01 0.  0.
         14    1    1    2    0    0 -0.35010671490E-03  0.21458950209E-01  0.10034820425E-01  0.23691912961E-01  0.00000000000E+00 0.  1.
     999901    1    3    3    0    0 -0.11449941905E+00  0.37084230783E-01  0.10483476961E-01  0.88825405174E+00  0.88000000000E+00 0. -1.
        -11    1    4    4    0    0  0.72074612006E-01 -0.43152087608E-01 -0.20707300374E-01  0.86521129041E-01  0.51100000000E-03 0. -1.
         11    1    4    4    0    0  0.42774913759E-01 -0.15391093384E-01  0.18900298806E-03  0.45462906262E-01  0.51100000000E-03 0.  1.
</event>
<event>
 8    1  0.1060404E+005  0.1043930E+01  0.7957747E-01            NaN
         13   -1    0    0    0    0  0.00000000000E+00  0.00000000000E+00  0.74505805969E-08  0.10566000000E+00  0.10566000000E+00 0. -1.
     999900   -1    0    0    0    0 -0.00000000000E+00 -0.00000000000E+00 -0.74505805969E-08  0.93827000000E+00  0.93827000000E+00 0. -1.
     999902    2    1    2    0    0  0.75161506921E-02  0.18911236588E-01  0.13088304315E-01  0.10197343165E+01  0.10194472253E+01 0.  0.
     999903    2    3    3    0    0  0.76114981568E-01  0.20038423047E-01  0.10576000704E+00  0.13221242120E+00  0.99958197638E-02 0.  0.
         14    1    1    2    0    0 -0.75161506921E-02 -0.18911236588E-01 -0.13088304315E-01  0.24195683506E-01  0.00000000000E+00 0.  1.
     999901    1    3    3    0    0 -0.68598830876E-01 -0.11271864589E-02 -0.92671702723E-01  0.88752189530E+00  0.88000000000E+00 0. -1.
        -11    1    4    4    0    0  0.18657486526E-01  0.12056271126E-02  0.21427133877E-01  0.28441844655E-01  0.51100000000E-03 0. -1.
         11    1    4    4    0    0  0.57457495041E-01  0.18832795934E-01  0.84332873161E-01  0.10377057654E+00  0.51100000000E-03 0.  1.
</event>
<event>
 8    1  0.1060404E+005  0.1043930E+01  0.7957747E-01            NaN
         13   -1    0    0    0    0  0.00000000000E+00  0.00000000000E+00  0.74505805969E-08  0.10566000000E+00  0.10566000000E+00 0. -1.
     999900   -1    0    0    0    0 -0.00000000000E+00 -0.00000000000E+00 -0.74505805969E-08  0.93827000000E+00  0.93827000000E+00 0.  1.
     999902    2    1    2    0    0 -0.49767878838E-03 -0.18245109892E-01 -0.13655120616E-01  0.10211353945E+01  0.10208809431E+01 0.  0.
     999903    2    3    3    0    0  0.10787260015E+00 -0.61353760958E-01 -0.43037941889E-01  0.13295420619E+00  0.20585787654E-01 0.  0.
         14    1    1    2    0    0  0.49767878838E-03  0.18245109892E-01  0.13655120616E-01  0.22794605463E-01  0.00000000000E+00 0. -1.
     999901    1    3    3    0    0 -0.10837027894E+00  0.43108651066E-01  0.29382821273E-01  0.88818118835E+00  0.88000000000E+00 0. -1.
        -11    1    4    4    0    0  0.69519692426E-01 -0.28083920767E-01 -0.27325777240E-01  0.79803843663E-01  0.51100000000E-03 0. -1.
         11    1    4    4    0    0  0.38352907726E-01 -0.33269840191E-01 -0.15712164649E-01  0.53150362523E-01  0.51100000000E-03 0.  1.
</event>
<event>
 8    1  0.1060404E+005  0.1043930E+01  0.7957747E-01            NaN
         13   -1    0    0    0    0  0.00000000000E+00  0.00000000000E+00  0.74505805969E-08  0.10566000000E+00  0.10566000000E+00 0.  1.
     999900   -1    0    0    0    0 -0.00000000000E+00 -0.00000000000E+00 -0.74505805969E-08  0.93827000000E+00  0.93827000000E+00 0.  1.
     999902    2    1    2    0    0  0.16390669409E-01  0.14764577895E-01  0.76861813880E-02  0.10205692597E+01  0.10203018620E+01 0.  0.
     999903    2    3    3    0    0  0.12270926944E+00 -0.91874594791E-03 -0.45353836520E-01  0.13244603914E+00  0.20653665405E-01 0.  0.
         14    1    1    2    0    0 -0.16390669409E-01 -0.14764577895E-01 -0.76861813880E-02  0.23360740322E-01  0.00000000000E+00 0. -1.
     999901    1    3    3    0    0 -0.10631860004E+00  0.15683323843E-01  0.53040017908E-01  0.88812322054E+00  0.88000000000E+00 0. -1.
        -11    1    4    4    0    0  0.39718798705E-01 -0.99600345497E-02 -0.14437829029E-01  0.43422313238E-01  0.51100000000E-03 0. -1.
         11    1    4    4    0    0  0.82990470740E-01  0.90412886018E-02 -0.30916007491E-01  0.89023725901E-01  0.51100000000E-03 0.  1.
</event>
<event>
 8    1  0.1060404E+005  0.1043930E+01  0.7957747E-01            NaN
         13   -1    0    0    0    0  0.00000000000E+00  0.00000000000E+00  0.74505805969E-08  0.10566000000E+00  0.10566000000E+00 0. -1.
     999900   -1    0    0    0    0 -0.00000000000E+00 -0.00000000000E+00 -0.74505805969E-08  0.93827000000E+00  0.93827000000E+00 0. -1.
     999902    2    1    2    0    0  0.12369049749E-01 -0.19071252180E-01  0.36192118024E-02  0.10209125122E+01  0.10206530031E+01 0.  0.
     999903    2    3    3    0    0  0.37365916373E-02  0.12708766065E+00 -0.86568804947E-03  0.12880430044E+00  0.20604921486E-01 0.  0.
         14    1    1    2    0    0 -0.12369049749E-01  0.19071252180E-01 -0.36192118024E-02  0.23017487818E-01  0.00000000000E+00 0. -1.
     999901    1    3    3    0    0  0.86324581112E-02 -0.14615891283E+00  0.44848998518E-02  0.89210821174E+00  0.88000000000E+00 0.  1.
        -11    1    4    4    0    0 -0.52089073646E-02  0.61340935945E-01 -0.79402678575E-02  0.62073763485E-01  0.51100000000E-03 0. -1.
         11    1    4    4    0    0  0.89454990019E-02  0.65746724704E-01  0.70745798080E-02  0.66730536954E-01  0.51100000000E-03 0.  1.
</event>
<event>
 8    1  0.1060404E+005  0.1043930E+01  0.7957747E-01            NaN
         13   -1    0    0    0    0  0.00000000000E+00  0.00000000000E+00  0.74505805969E-08  0.10566000000E+00  0.10566000000E+00 0.  1.
     999900   -1    0    0    0    0 -0.00000000000E+00 -0.00000000000E+00 -0.74505805969E-08  0.93827000000E+00  0.93827000000E+00 0. -1.
     999902    2    1    2    0    0  0.15675072989E-01 -0.11330008036E-01  0.92818229607E-02  0.10224770461E+01  0.10222519653E+01 0.  0.
     999903    2    3    3    0    0  0.12842463630E+00  0.32191179864E-01 -0.92670965877E-02  0.13402298408E+00  0.18631208079E-01 0.  0.
         14    1    1    2    0    0 -0.15675072989E-01  0.11330008036E-01 -0.92818229607E-02  0.21452953941E-01  0.00000000000E+00 0. -1.
     999901    1    3    3    0    0 -0.11274956331E+00 -0.43521187900E-01  0.18548919548E-01  0.88845406197E+00  0.88000000000E+00 0. -1.
        -11    1    4    4    0    0  0.99630561083E-01  0.25159797134E-01  0.65616221983E-03  0.10276164539E+00  0.51100000000E-03 0. -1.
         11    1    4    4    0    0  0.28794075215E-01  0.70313827304E-02 -0.99232588076E-02  0.31261338695E-01  0.51100000000E-03 0.  1.
</event>
<event>
 8    1  0.1060404E+005  0.1043930E+01  0.7957747E-01            NaN
         13   -1    0    0    0    0  0.00000000000E+00  0.00000000000E+00  0.74505805969E-08  0.10566000000E+00  0.10566000000E+00 0.  1.
     999900   -1    0    0    0    0 -0.00000000000E+00 -0.00000000000E+00 -0.74505805969E-08  0.93827000000E+00  0.93827000000E+00 0. -1.
     999902    2    1    2    0    0  0.23377413917E-01 -0.48059080480E-02 -0.31078913516E-02  0.10198621953E+01  0.10195781668E+01 0.  0.
     999903    2    3    3    0    0  0.12652266524E+00  0.21827800087E-01  0.22996412634E-01  0.13305346060E+00  0.26266912806E-01 0.  0.
         14    1    1    2    0    0 -0.23377413917E-01  0.48059080480E-02  0.31078913516E-02  0.24067804684E-01  0.00000000000E+00 0.  1.
     999901    1    3    3    0    0 -0.10314525132E+00 -0.26633708135E-01 -0.26104303985E-01  0.88680873471E+00  0.88000000000E+00 0. -1.
        -11    1    4    4    0    0  0.82166682855E-01  0.23658103926E-01  0.67302760470E-02  0.85770784008E-01  0.51100000000E-03 0. -1.
         11    1    4    4    0    0  0.44355982384E-01 -0.18303038392E-02  0.16266136587E-01  0.47282676594E-01  0.51100000000E-03 0.  1.
</event>
<event>
 8    1  0.1060404E+005  0.1043930E+01  0.7957747E-01            NaN
         13   -1    0    0    0    0  0.00000000000E+00  0.00000000000E+00  0.74505805969E-08  0.10566000000E+00  0.10566000000E+00 0. -1.
     999900   -1    0    0    0    0 -0.00000000000E+00 -0.00000000000E+00 -0.74505805969E-08  0.93827000000E+00  0.93827000000E+00 0. -1.
     999902    2    1    2    0    0 -0.19858085923E-01  0.11763674885E-01 -0.45323476239E-02  0.10204083122E+01  0.10201371740E+01 0.  0.
     999903    2    3    3    0    0 -0.44156776791E-01  0.11019131152E+00 -0.56755851392E-01  0.13304946685E+00  0.19722775939E-01 0.  0.
         14    1    1    2    0    0  0.19858085923E-01 -0.11763674885E-01  0.45323476239E-02  0.23521687829E-01  0.00000000000E+00 0.  1.
     999901    1    3    3    0    0  0.24298690868E-01 -0.98427636631E-01  0.52223503768E-01  0.88735884532E+00  0.88000000000E+00 0. -1.
        -11    1    4    4    0    0 -0.19452249063E-01  0.33623214542E-01 -0.10491686841E-01  0.40239870322E-01  0.51100000000E-03 0.  1.
         11    1    4    4    0    0 -0.24704527728E-01  0.76568096974E-01 -0.46264164551E-01  0.92809596525E-01  0.51100000000E-03 0. -1.
</event>
<event>
 8    1  0.1060404E+005  0.1043930E+01  0.7957747E-01            NaN
         13   -1    0    0    0    0  0.00000000000E+00  0.00000000000E+00  0.74505805969E-08  0.10566000000E+00  0.10566000000E+00 0.  1.
     999900   -1    0    0    0    0 -0.00000000000E+00 -0.00000000000E+00 -0.74505805969E-08  0.93827000000E+00  0.93827000000E+00 0.  1.
     999902    2    1    2    0    0 -0.16854587695E-01 -0.16060331217E-01  0.32926969443E-02  0.10204171691E+01  0.10201462374E+01 0.  0.
     999903    2    3    3    0    0  0.12424214429E+00  0.21627226173E-01  0.12692674649E-01  0.12833141123E+00  0.20099746004E-01 0.  0.
         14    1    1    2    0    0  0.16854587695E-01  0.16060331217E-01 -0.32926969443E-02  0.23512830930E-01  0.00000000000E+00 0.  1.
     999901    1    3    3    0    0 -0.14109673198E+00 -0.37687557390E-01 -0.93999777044E-02  0.89208575784E+00  0.88000000000E+00 0.  1.
        -11    1    4    4    0    0  0.76534692727E-01  0.49233185184E-02  0.23276620167E-02  0.76729898915E-01  0.51100000000E-03 0. -1.
         11    1    4    4    0    0  0.47707451562E-01  0.16703907654E-01  0.10365012632E-01  0.51601512316E-01  0.51100000000E-03 0.  1.
</event>
<event>
 8    1  0.1060404E+005  0.1043930E+01  0.7957747E-01            NaN
         13   -1    0    0    0    0  0.00000000000E+00  0.00000000000E+00  0.74505805969E-08  0.10566000000E+00  0.10566000000E+00 0.  1.
     999900   -1    0    0    0    0 -0.00000000000E+00 -0.00000000000E+00 -0.74505805969E-08  0.93827000000E+00  0.93827000000E+00 0.  1.
     999902    2    1    2    0    0  0.39358952246E-02  0.11645482705E-01 -0.21015826989E-01  0.10195830593E+01  0.10192923237E+01 0.  0.
     999903    2    3    3    0    0 -0.17446692703E-01 -0.71850698375E-01 -0.10669297228E+00  0.13123098912E+00  0.19268425698E-01 0.  0.
         14    1    1    2    0    0 -0.39358952246E-02 -0.11645482705E-01  0.21015826989E-01  0.24346940726E-01  0.00000000000E+00 0. -1.
     999901    1    3    3    0    0  0.21382587928E-01  0.83496181080E-01  0.85677145289E-01  0.88835207015E+00  0.88000000000E+00 0. -1.
        -11    1    4    4    0    0 -0.11404766074E-01 -0.67522489525E-01 -0.91284438342E-01  0.11411601590E+00  0.51100000000E-03 0.  1.
         11    1    4    4    0    0 -0.60419266288E-02 -0.43282088500E-02 -0.15408533936E-01  0.17114973220E-01  0.51100000000E-03 0. -1.
</event>
<event>
 8    1  0.1203870E+005  0.1043930E+01  0.7957747E-01            NaN
         13   -1    0    0    0    0  0.00000000000E+00  0.00000000000E+00  0.74505805969E-08  0.10566000000E+00  0.10566000000E+00 0. -1.
     999900   -1    0    0    0    0 -0.00000000000E+00 -0.00000000000E+00 -0.74505805969E-08  0.93827000000E+00  0.93827000000E+00 0.  1.
     999902    2    1    2    0    0 -0.12385185581E-01  0.28120196847E-01  0.10615193855E-01  0.10114212222E+01  0.10108986438E+01 0.  0.
     999903    2    3    3    0    0  0.46240406867E-02  0.24809515666E-01 -0.11764936566E+00  0.12195392567E+00  0.19861846043E-01 0.  0.
         14    1    1    2    0    0  0.12385185581E-01 -0.28120196847E-01 -0.10615193855E-01  0.32508777786E-01  0.00000000000E+00 0.  1.
     999901    1    3    3    0    0 -0.17009226268E-01  0.33106811804E-02  0.12826455951E+00  0.88946729654E+00  0.88000000000E+00 0. -1.
        -11    1    4    4    0    0  0.89274619573E-02  0.54076997894E-02 -0.61675821089E-01  0.62554862497E-01  0.51100000000E-03 0. -1.
         11    1    4    4    0    0 -0.43034212707E-02  0.19401815877E-01 -0.55973544567E-01  0.59399063177E-01  0.51100000000E-03 0.  1.
</event>
<event>
 8    1  0.1060404E+005  0.1043930E+01  0.7957747E-01            NaN
         13   -1    0    0    0    0  0.00000000000E+00  0.00000000000E+00  0.74505805969E-08  0.10566000000E+00  0.10566000000E+00 0.  1.
     999900   -1    0    0    0    0 -0.00000000000E+00 -0.00000000000E+00 -0.74505805969E-08  0.93827000000E+00  0.93827000000E+00 0.  1.
     999902    2    1    2    0    0  0.44982107983E-02  0.22724237872E-01  0.59494764589E-02  0.10200130362E+01  0.10197325987E+01 0.  0.
     999903    2    3    3    0    0  0.42263008331E-01 -0.79609689025E-01  0.89524028129E-01  0.12934861106E+00  0.24344344527E-01 0.  0.
         14    1    1    2    0    0 -0.44982107983E-02 -0.22724237872E-01 -0.59494764589E-02  0.23916963800E-01  0.00000000000E+00 0.  1.
     999901    1    3    3    0    0 -0.37764797533E-01  0.10233392690E+00 -0.83574551671E-01  0.89066442514E+00  0.88000000000E+00 0.  1.
        -11    1    4    4    0    0  0.25215235597E-01 -0.55595491455E-01  0.74391537761E-01  0.96234239165E-01  0.51100000000E-03 0. -1.
         11    1    4    4    0    0  0.17047772734E-01 -0.24014197569E-01  0.15132490369E-01  0.33114371893E-01  0.51100000000E-03 0.  1.
</event>
<event>
 8    1  0.1060404E+005  0.1043930E+01  0.7957747E-01            NaN
         13   -1    0    0    0    0  0.00000000000E+00  0.00000000000E+00  0.74505805969E-08  0.10566000000E+00  0.10566000000E+00 0.  1.
     999900   -1    0    0    0    0 -0.00000000000E+00 -0.00000000000E+00 -0.74505805969E-08  0.93827000000E+00  0.93827000000E+00 0.  1.
     999902    2    1    2    0    0  0.19719347337E-01  0.15355526007E-01 -0.34654946183E-02  0.10186979868E+01  0.10183854544E+01 0.  0.
     999903    2    3    3    0    0 -0.58621221957E-01  0.63310298812E-01 -0.94199145199E-01  0.12927710756E+00  0.19860764955E-01 0.  0.
         14    1    1    2    0    0 -0.19719347337E-01 -0.15355526007E-01  0.34654946183E-02  0.25232013223E-01  0.00000000000E+00 0.  1.
     999901    1    3    3    0    0  0.78340569293E-01 -0.47954772805E-01  0.90733650581E-01  0.88942087921E+00  0.88000000000E+00 0. -1.
        -11    1    4    4    0    0 -0.35304420998E-01  0.33008237785E-01 -0.65809578329E-01  0.81652358353E-01  0.51100000000E-03 0.  1.
         11    1    4    4    0    0 -0.23316800958E-01  0.30302061027E-01 -0.28389566870E-01  0.47624749212E-01  0.51100000000E-03 0. -1.
</event>
<event>
 8    1  0.1060404E+005  0.1043930E+01  0.7957747E-01            NaN
         13   -1    0    0    0    0  0.00000000000E+00  0.00000000000E+00  0.74505805969E-08  0.10566000000E+00  0.10566000000E+00 0.  1.
     999900   -1    0    0    0    0 -0.00000000000E+00 -0.00000000000E+00 -0.74505805969E-08  0.93827000000E+00  0.93827000000E+00 0. -1.
     999902    2    1    2    0    0 -0.78513648769E-02 -0.22101491007E-01  0.41934924397E-02  0.10201034347E+01  0.10198251381E+01 0.  0.
     999903    2    3    3    0    0  0.55907460299E-02  0.11879737241E+00 -0.41274740066E-01  0.12763464520E+00  0.21045815621E-01 0.  0.
         14    1    1    2    0    0  0.78513648769E-02  0.22101491007E-01 -0.41934924397E-02  0.23826565301E-01  0.00000000000E+00 0.  1.
     999901    1    3    3    0    0 -0.13442110907E-01 -0.14089886342E+00  0.45468232505E-01  0.89246878950E+00  0.88000000000E+00 0. -1.
        -11    1    4    4    0    0  0.67822716427E-02  0.45230291506E-01 -0.25562063990E-01  0.52397125062E-01  0.51100000000E-03 0.  1.
         11    1    4    4    0    0 -0.11915256128E-02  0.73567080907E-01 -0.15712676076E-01  0.75237520140E-01  0.51100000000E-03 0. -1.
</event>
<event>
 8    1  0.1060404E+005  0.1043930E+01  0.7957747E-01            NaN
         13   -1    0    0    0    0  0.00000000000E+00  0.00000000000E+00  0.74505805969E-08  0.10566000000E+00  0.10566000000E+00 0. -1.
     999900   -1    0    0    0    0 -0.00000000000E+00 -0.00000000000E+00 -0.74505805969E-08  0.93827000000E+00  0.93827000000E+00 0. -1.
     999902    2    1    2    0    0  0.60706404291E-02 -0.14863670927E-01 -0.17649615345E-01  0.10200701947E+01  0.10197911118E+01 0.  0.
     999903    2    3    3    0    0 -0.69115365278E-01  0.10614229228E+00 -0.11890149930E-01  0.12859470424E+00  0.18764390920E-01 0.  0.
         14    1    1    2    0    0 -0.60706404291E-02  0.14863670927E-01  0.17649615345E-01  0.23859805332E-01  0.00000000000E+00 0.  1.
     999901    1    3    3    0    0  0.75186005707E-01 -0.12100596321E+00 -0.57594654149E-02  0.89147549042E+00  0.88000000000E+00 0.  1.
        -11    1    4    4    0    0 -0.19428461450E-01  0.16650588996E-01 -0.43153123647E-02  0.25953617668E-01  0.51100000000E-03 0.  1.
         11    1    4    4    0    0 -0.49686903828E-01  0.89491703282E-01 -0.75748375655E-02  0.10264108658E+00  0.51100000000E-03 0. -1.
</event>
<event>
 8    1  0.1060404E+005  0.1043930E+01  0.7957747E-01            NaN
         13   -1    0    0    0    0  0.00000000000E+00  0.00000000000E+00  0.74505805969E-08  0.10566000000E+00  0.10566000000E+00 0.  1.
     999900   -1    0    0    0    0 -0.00000000000E+00 -0.00000000000E+00 -0.74505805969E-08  0.93827000000E+00  0.93827000000E+00 0. -1.
     999902    2    1    2    0    0 -0.20289848064E-02  0.14339928398E-01 -0.19401282522E-01  0.10197192567E+01  0.10194318037E+01 0.  0.
     999903    2    3    3    0    0 -0.92721123425E-02 -0.11213434769E+00  0.55865831285E-01  0.12746741795E+00  0.21607117675E-01 0.  0.
         14    1    1    2    0    0  0.20289848064E-02 -0.14339928398E-01  0.19401282522E-01  0.24210743262E-01  0.00000000000E+00 0.  1.
     999901    1    3    3    0    0  0.72431275361E-02  0.12647427608E+00 -0.75267113806E-01  0.89225183879E+00  0.88000000000E+00 0. -1.
        -11    1    4    4    0    0 -0.10192116016E-01 -0.74712713666E-01  0.47460536988E-01  0.89099003947E-01  0.51100000000E-03 0.  1.
         11    1    4    4    0    0  0.92000367326E-03 -0.37421634021E-01  0.84052942967E-02  0.38368413998E-01  0.51100000000E-03 0. -1.
</event>
<event>
 8    1  0.1115595E+005  0.1043930E+01  0.7957747E-01            NaN
         13   -1    0    0    0    0  0.00000000000E+00  0.00000000000E+00  0.74505805969E-08  0.10566000000E+00  0.10566000000E+00 0. -1.
     999900   -1    0    0    0    0 -0.00000000000E+00 -0.00000000000E+00 -0.74505805969E-08  0.93827000000E+00  0.93827000000E+00 0. -1.
     999902    2    1    2    0    0  0.99596922230E-02  0.33636846622E-02  0.21054341966E-01  0.10203971472E+01  0.10201257486E+01 0.  0.
     999903    2    3    3    0    0  0.76479422850E-01 -0.20443347293E-01  0.10563846834E+00  0.13352279099E+00  0.20045377307E-01 0.  0.
         14    1    1    2    0    0 -0.99596922230E-02 -0.33636846622E-02 -0.21054341966E-01  0.23532852766E-01  0.00000000000E+00 0. -1.
     999901    1    3    3    0    0 -0.66519730627E-01  0.23807031955E-01 -0.84584126375E-01  0.88687435625E+00  0.88000000000E+00 0. -1.
        -11    1    4    4    0    0  0.38225898728E-01 -0.32140807095E-03  0.44862005344E-01  0.58942202888E-01  0.51100000000E-03 0.  1.
         11    1    4    4    0    0  0.38253524122E-01 -0.20121939222E-01  0.60776462997E-01  0.74580588099E-01  0.51100000000E-03 0. -1.
</event>
<event>
 8    1  0.1060404E+005  0.1043930E+01  0.7957747E-01            NaN
         13   -1    0    0    0    0  0.00000000000E+00  0.00000000000E+00  0.74505805969E-08  0.10566000000E+00  0.10566000000E+00 0.  1.
     999900   -1    0    0    0    0 -0.00000000000E+00 -0.00000000000E+00 -0.74505805969E-08  0.93827000000E+00  0.93827000000E+00 0. -1.
     999902    2    1    2    0    0 -0.23663734718E-01  0.78318090954E-03  0.42702272536E-02  0.10198713102E+01  0.10195874994E+01 0.  0.
     999903    2    3    3    0    0  0.45174210987E-01 -0.13386005475E-01  0.11934701467E+00  0.12960051118E+00  0.18239739775E-01 0.  0.
         14    1    1    2    0    0  0.23663734718E-01 -0.78318090954E-03 -0.42702272536E-02  0.24058689781E-01  0.00000000000E+00 0.  1.
     999901    1    3    3    0    0 -0.68837945705E-01  0.14169186385E-01 -0.11507678742E+00  0.89027079904E+00  0.88000000000E+00 0. -1.
        -11    1    4    4    0    0  0.13769324465E-01 -0.10231262138E-01  0.59667943325E-01  0.62087016379E-01  0.51100000000E-03 0.  1.
         11    1    4    4    0    0  0.31404886521E-01 -0.31547433379E-02  0.59679071347E-01  0.67513494805E-01  0.51100000000E-03 0. -1.
</event>
<event>
 8    1  0.1060404E+005  0.1043930E+01  0.7957747E-01            NaN
         13   -1    0    0    0    0  0.00000000000E+00  0.00000000000E+00  0.74505805969E-08  0.10566000000E+00  0.10566000000E+00 0. -1.
     999900   -1    0    0    0    0 -0.00000000000E+00 -0.00000000000E+00 -0.74505805969E-08  0.93827000000E+00  0.93827000000E+00 0.  1.
     999902    2    1    2    0    0 -0.22950529796E-01  0.22406332677E-02 -0.81668361224E-03  0.10208558970E+01  0.10205950952E+01 0.  0.
     999903    2    3    3    0    0  0.81752943445E-01 -0.30316392031E-01  0.93693761660E-01  0.12902911931E+00  0.16351307857E-01 0.  0.
         14    1    1    2    0    0  0.22950529796E-01 -0.22406332677E-02  0.81668361224E-03  0.23074102962E-01  0.00000000000E+00 0.  1.
     999901    1    3    3    0    0 -0.10470347324E+00  0.32557025299E-01 -0.94510445272E-01  0.89182677773E+00  0.88000000000E+00 0.  1.
        -11    1    4    4    0    0  0.47340703554E-01 -0.11132865004E-01  0.59596079153E-01  0.76922276796E-01  0.51100000000E-03 0.  1.
         11    1    4    4    0    0  0.34412239891E-01 -0.19183527028E-01  0.34097682507E-01  0.52106842515E-01  0.51100000000E-03 0. -1.
</event>
<event>
 8    1  0.1060404E+005  0.1043930E+01  0.7957747E-01            NaN
         13   -1    0    0    0    0  0.00000000000E+00  0.00000000000E+00  0.74505805969E-08  0.10566000000E+00  0.10566000000E+00 0.  1.
     999900   -1    0    0    0    0 -0.00000000000E+00 -0.00000000000E+00 -0.74505805969E-08  0.93827000000E+00  0.93827000000E+00 0. -1.
     999902    2    1    2    0    0  0.26185011758E-01  0.12835329914E-01 -0.58798454745E-03  0.10147624451E+01  0.10143431735E+01 0.  0.
     999903    2    3    3    0    0 -0.31771062081E-01 -0.10440034135E+00  0.53981012341E-01  0.12342587310E+00  0.20277198934E-01 0.  0.
         14    1    1    2    0    0 -0.26185011758E-01 -0.12835329914E-01  0.58798454745E-03  0.29167554930E-01  0.00000000000E+00 0.  1.
     999901    1    3    3    0    0  0.57956073839E-01  0.11723567127E+00 -0.54568996889E-01  0.89133657197E+00  0.88000000000E+00 0. -1.
        -11    1    4    4    0    0 -0.23376860999E-01 -0.92073462786E-01  0.52212028485E-01  0.10839906466E+00  0.51100000000E-03 0.  1.
         11    1    4    4    0    0 -0.83942010812E-02 -0.12326878566E-01  0.17689838561E-02  0.15026808439E-01  0.51100000000E-03 0. -1.
</event>
<event>
 8    1  0.1060404E+005  0.1043930E+01  0.7957747E-01            NaN
         13   -1    0    0    0    0  0.00000000000E+00  0.00000000000E+00  0.74505805969E-08  0.10566000000E+00  0.10566000000E+00 0. -1.
     999900   -1    0    0    0    0 -0.00000000000E+00 -0.00000000000E+00 -0.74505805969E-08  0.93827000000E+00  0.93827000000E+00 0.  1.
     999902    2    1    2    0    0  0.12863623931E-01 -0.17611813480E-01  0.90076466760E-02  0.10203336763E+01  0.10200607945E+01 0.  0.
     999903    2    3    3    0    0  0.12430079546E+00  0.38070800153E-01  0.34822225582E-02  0.13154274081E+00  0.19781132660E-01 0.  0.
         14    1    1    2    0    0 -0.12863623931E-01  0.17611813480E-01 -0.90076466760E-02  0.23596323725E-01  0.00000000000E+00 0.  1.
     999901    1    3    3    0    0 -0.11143717153E+00 -0.55682613633E-01  0.55254241178E-02  0.88879093547E+00  0.88000000000E+00 0. -1.
        -11    1    4    4    0    0  0.62469127738E-01  0.95997793515E-02 -0.21110036570E-02  0.63239743369E-01  0.51100000000E-03 0.  1.
         11    1    4    4    0    0  0.61831667720E-01  0.28471020801E-01  0.55932262152E-02  0.68302997438E-01  0.51100000000E-03 0. -1.
</event>
<event>
 8    1  0.1060404E+005  0.1043930E+01  0.7957747E-01            NaN
         13   -1    0    0    0    0  0.00000000000E+00  0.00000000000E+00  0.74505805969E-08  0.10566000000E+00  0.10566000000E+00 0. -1.
     999900   -1    0    0    0    0 -0.00000000000E+00 -0.00000000000E+00 -0.74505805969E-08  0.93827000000E+00  0.93827000000E+00 0.  1.
     999902    2    1    2    0    0 -0.14885327527E-01 -0.17182753170E-01 -0.37590000392E-02  0.10208876463E+01  0.10206275698E+01 0.  0.
     999903    2    3    3    0    0  0.10859421911E+00  0.51233264818E-01  0.41671948927E-01  0.12847971208E+00  0.18786517545E-01 0.  0.
         14    1    1    2    0    0  0.14885327527E-01  0.17182753170E-01  0.37590000392E-02  0.23042353686E-01  0.00000000000E+00 0. -1.
     999901    1    3    3    0    0 -0.12347954664E+00 -0.68416017989E-01 -0.45430948966E-01  0.89240793423E+00  0.88000000000E+00 0.  1.
        -11    1    4    4    0    0  0.61080779403E-01  0.21887671895E-01  0.15035622712E-01  0.66605276554E-01  0.51100000000E-03 0.  1.
         11    1    4    4    0    0  0.47513439707E-01  0.29345592924E-01  0.26636326215E-01  0.61874435529E-01  0.51100000000E-03 0. -1.
</event>
<event>
 8    1  0.1060404E+005  0.1043930E+01  0.7957747E-01            NaN
         13   -1    0    0    0    0  0.00000000000E+00  0.00000000000E+00  0.74505805969E-08  0.10566000000E+00  0.10566000000E+00 0.  1.
     999900   -1    0    0    0    0 -0.00000000000E+00 -0.00000000000E+00 -0.74505805969E-08  0.93827000000E+00  0.93827000000E+00 0.  1.
     999902    2    1    2    0    0  0.65104552802E-02  0.22307863653E-01  0.16116464313E-02  0.10206357043E+01  0.10203698431E+01 0.  0.
     999903    2    3    3    0    0  0.84716699274E-01  0.48727453344E-01  0.86264186137E-01  0.13272790288E+00  0.24978041297E-01 0.  0.
         14    1    1    2    0    0 -0.65104552802E-02 -0.22307863653E-01 -0.16116464313E-02  0.23294295716E-01  0.00000000000E+00 0. -1.
     999901    1    3    3    0    0 -0.78206243994E-01 -0.26419589691E-01 -0.84652539706E-01  0.88790780141E+00  0.88000000000E+00 0.  1.
        -11    1    4    4    0    0  0.43762856388E-01  0.11522727935E-01  0.43774430200E-01  0.62963661890E-01  0.51100000000E-03 0. -1.
         11    1    4    4    0    0  0.40953842886E-01  0.37204725409E-01  0.42489755937E-01  0.69764240987E-01  0.51100000000E-03 0.  1.
</event>
<event>
 8    1  0.1060404E+005  0.1043930E+01  0.7957747E-01            NaN
         13   -1    0    0    0    0  0.00000000000E+00  0.00000000000E+00  0.74505805969E-08  0.10566000000E+00  0.10566000000E+00 0. -1.
     999900   -1    0    0    0    0 -0.00000000000E+00 -0.00000000000E+00 -0.74505805969E-08  0.93827000000E+00  0.93827000000E+00 0. -1.
     999902    2    1    2    0    0  0.17351637862E-01  0.79174715399E-02  0.12653192771E-01  0.10210418157E+01  0.10207852470E+01 0.  0.
     999903    2    3    3    0    0 -0.11590995894E+00 -0.51014421575E-01 -0.16946328088E-01  0.12856898541E+00  0.14325368561E-01 0.  0.
         14    1    1    2    0    0 -0.17351637862E-01 -0.79174715399E-02 -0.12653192771E-01  0.22888184274E-01  0.00000000000E+00 0.  1.
     999901    1    3    3    0    0  0.13326159680E+00  0.58931893115E-01  0.29599520859E-01  0.89247283031E+00  0.88000000000E+00 0.  1.
        -11    1    4    4    0    0 -0.18941583111E-01 -0.37984386550E-02  0.39682566865E-03  0.19329518840E-01  0.51100000000E-03 0.  1.
         11    1    4    4    0    0 -0.96968375830E-01 -0.47215982920E-01 -0.17343153757E-01  0.10923946657E+00  0.51100000000E-03 0. -1.
</event>
<event>
 7    1  0.1060404E+005  0.1043930E+01  0.7957747E-01            NaN
         13   -1    0    0    0    0  0.00000000000E+00  0.00000000000E+00  0.74505805969E-08  0.10566000000E+00  0.10566000000E+00 0.  1.
     999900   -1    0    0    0    0 -0.00000000000E+00 -0.00000000000E+00 -0.74505805969E-08  0.93827000000E+00  0.93827000000E+00 0. -1.
     999903    2    1    2    0    0 -0.37850265163E-01 -0.64604662105E-01 -0.50417010073E-01  0.92520194593E-01  0.20290553572E-01 0.  0.
         14    1    1    2    0    0  0.18080900397E-01  0.60144110787E-01  0.33131994587E-01  0.71006774937E-01  0.00000000000E+00 0.  1.
     999901    1    1    2    0    0  0.19769364766E-01  0.44605513176E-02  0.17285015485E-01  0.88040303047E+00  0.88000000000E+00 0.  1.
        -11    1    3    3    0    0 -0.16962299887E-01 -0.46011669453E-01 -0.37374581009E-01  0.61659660800E-01  0.51100000000E-03 0.  1.
         11    1    3    3    0    0 -0.20887965276E-01 -0.18592992652E-01 -0.13042429063E-01  0.30860533793E-01  0.51100000000E-03 0. -1.
</event>
<event>
 8    1  0.1060404E+005  0.1043930E+01  0.7957747E-01            NaN
         13   -1    0    0    0    0  0.00000000000E+00  0.00000000000E+00  0.74505805969E-08  0.10566000000E+00  0.10566000000E+00 0.  1.
     999900   -1    0    0    0    0 -0.00000000000E+00 -0.00000000000E+00 -0.74505805969E-08  0.93827000000E+00  0.93827000000E+00 0.  1.
     999902    2    1    2    0    0 -0.13760713361E-01  0.10466292910E-01  0.10572162466E-01  0.10236649775E+01  0.10234643692E+01 0.  0.
     999903    2    3    3    0    0 -0.27527858906E-01  0.12960154627E+00  0.17434158222E-01  0.13550405179E+00  0.22428873521E-01 0.  0.
         14    1    1    2    0    0  0.13760713361E-01 -0.10466292910E-01 -0.10572162466E-01  0.20265022544E-01  0.00000000000E+00 0.  1.
     999901    1    3    3    0    0  0.13767145545E-01 -0.11913525336E+00 -0.68619957560E-02  0.88816092566E+00  0.88000000000E+00 0. -1.
        -11    1    4    4    0    0 -0.14304539788E-01  0.87228916943E-01  0.21360671117E-01  0.90939777881E-01  0.51100000000E-03 0. -1.
         11    1    4    4    0    0 -0.13223319118E-01  0.42372629329E-01 -0.39265128950E-02  0.44564273911E-01  0.51100000000E-03 0.  1.
</event>
<event>
 8    1  0.1060404E+005  0.1043930E+01  0.7957747E-01            NaN
         13   -1    0    0    0    0  0.00000000000E+00  0.00000000000E+00  0.74505805969E-08  0.10566000000E+00  0.10566000000E+00 0.  1.
     999900   -1    0    0    0    0 -0.00000000000E+00 -0.00000000000E+00 -0.74505805969E-08  0.93827000000E+00  0.93827000000E+00 0. -1.
     999902    2    1    2    0    0 -0.12874168824E-02 -0.16810707932E-01  0.15718985461E-01  0.10208791031E+01  0.10206188316E+01 0.  0.
     999903    2    3    3    0    0 -0.79342947241E-01  0.75799621515E-01 -0.65152400956E-01  0.12890964171E+00  0.18220166731E-01 0.  0.
         14    1    1    2    0    0  0.12874168824E-02  0.16810707932E-01 -0.15718985461E-01  0.23050896888E-01  0.00000000000E+00 0. -1.
     999901    1    3    3    0    0  0.78055530358E-01 -0.92610329448E-01  0.80871386417E-01  0.89196946141E+00  0.88000000000E+00 0. -1.
        -11    1    4    4    0    0 -0.32018802740E-01  0.36213191615E-01 -0.38048450694E-01  0.61518653245E-01  0.51100000000E-03 0. -1.
         11    1    4    4    0    0 -0.47324144500E-01  0.39586429900E-01 -0.27103950262E-01  0.67390988461E-01  0.51100000000E-03 0.  1.
</event>
<event>
 8    1  0.1060404E+005  0.1043930E+01  0.7957747E-01            NaN
         13   -1    0    0    0    0  0.00000000000E+00  0.00000000000E+00  0.74505805969E-08  0.10566000000E+00  0.10566000000E+00 0. -1.
     999900   -1    0    0    0    0 -0.00000000000E+00 -0.00000000000E+00 -0.74505805969E-08  0.93827000000E+00  0.93827000000E+00 0. -1.
     999902    2    1    2    0    0 -0.70469578558E-02  0.19782196601E-01  0.93645743306E-02  0.10209367364E+01  0.10206777795E+01 0.  0.
     999903    2    3    3    0    0 -0.85996197179E-02  0.13094491739E+00  0.18491568945E-01  0.13389510083E+00  0.19116355662E-01 0.  0.
         14    1    1    2    0    0  0.70469578558E-02 -0.19782196601E-01 -0.93645743306E-02  0.22993263574E-01  0.00000000000E+00 0. -1.
     999901    1    3    3    0    0  0.15526618621E-02 -0.11116272079E+00 -0.91269946142E-02  0.88704163560E+00  0.88000000000E+00 0. -1.
        -11    1    4    4    0    0  0.53777130707E-02  0.47859331475E-01  0.32479498431E-02  0.48272618598E-01  0.51100000000E-03 0.  1.
         11    1    4    4    0    0 -0.13977332789E-01  0.83085585917E-01  0.15243619102E-01  0.85622482231E-01  0.51100000000E-03 0. -1.
</event>
<event>
 8    1  0.1060404E+005  0.1043930E+01  0.7957747E-01            NaN
         13   -1    0    0    0    0  0.00000000000E+00  0.00000000000E+00  0.74505805969E-08  0.10566000000E+00  0.10566000000E+00 0. -1.
     999900   -1    0    0    0    0 -0.00000000000E+00 -0.00000000000E+00 -0.74505805969E-08  0.93827000000E+00  0.93827000000E+00 0.  1.
     999902    2    1    2    0    0  0.19680520456E-01  0.72304019152E-02 -0.10232537056E-01  0.10205996247E+01  0.10203329297E+01 0.  0.
     999903    2    3    3    0    0 -0.91870323544E-01 -0.68774993518E-01 -0.56034301543E-01  0.12912993224E+00  0.19092940316E-01 0.  0.
         14    1    1    2    0    0 -0.19680520456E-01 -0.72304019152E-02  0.10232537056E-01  0.23330375305E-01  0.00000000000E+00 0. -1.
     999901    1    3    3    0    0  0.11155084400E+00  0.76005395433E-01  0.45801764488E-01  0.89146969245E+00  0.88000000000E+00 0. -1.
        -11    1    4    4    0    0 -0.30870438316E-01 -0.27923428863E-01 -0.11214363051E-01  0.43112931945E-01  0.51100000000E-03 0.  1.
         11    1    4    4    0    0 -0.60999885228E-01 -0.40851564655E-01 -0.44819938492E-01  0.86017000297E-01  0.51100000000E-03 0. -1.
</event>
<event>
 8    1  0.1060404E+005  0.1043930E+01  0.7957747E-01            NaN
         13   -1    0    0    0    0  0.00000000000E+00  0.00000000000E+00  0.74505805969E-08  0.10566000000E+00  0.10566000000E+00 0. -1.
     999900   -1    0    0    0    0 -0.00000000000E+00 -0.00000000000E+00 -0.74505805969E-08  0.93827000000E+00  0.93827000000E+00 0. -1.
     999902    2    1    2    0    0 -0.20972296601E-01 -0.14725338530E-01  0.96472743787E-02  0.10165485698E+01  0.10161797341E+01 0.  0.
     999903    2    3    3    0    0  0.58029967353E-01 -0.76921428454E-02 -0.10950297811E+00  0.12498387428E+00  0.14262553836E-01 0.  0.
         14    1    1    2    0    0  0.20972296601E-01  0.14725338530E-01 -0.96472743787E-02  0.27381430249E-01  0.00000000000E+00 0. -1.
     999901    1    3    3    0    0 -0.79002263954E-01 -0.70331956850E-02  0.11915025249E+00  0.89156469548E+00  0.88000000000E+00 0.  1.
        -11    1    4    4    0    0  0.16876151181E-02  0.23960870354E-03 -0.24367878314E-03  0.17960950606E-02  0.51100000000E-03 0. -1.
         11    1    4    4    0    0  0.56342352235E-01 -0.79317515490E-02 -0.10925929932E+00  0.12318777921E+00  0.51100000000E-03 0.  1.
</event>
<event>
 8    1  0.1060404E+005  0.1043930E+01  0.7957747E-01            NaN
         13   -1    0    0    0    0  0.00000000000E+00  0.00000000000E+00  0.74505805969E-08  0.10566000000E+00  0.10566000000E+00 0.  1.
     999900   -1    0    0    0    0 -0.00000000000E+00 -0.00000000000E+00 -0.74505805969E-08  0.93827000000E+00  0.93827000000E+00 0. -1.
     999902    2    1    2    0    0 -0.58494172176E-02  0.58894054604E-02 -0.21913867504E-01  0.10204967252E+01  0.10202276451E+01 0.  0.
     999903    2    3    3    0    0 -0.39709997593E-01 -0.54882012956E-01  0.10775954118E+00  0.12827763938E+00  0.15940978467E-01 0.  0.
         14    1    1    2    0    0  0.58494172176E-02 -0.58894054604E-02  0.21913867504E-01  0.23433274791E-01  0.00000000000E+00 0.  1.
     999901    1    3    3    0    0  0.33860580376E-01  0.60771418416E-01 -0.12967340868E+00  0.89221908583E+00  0.88000000000E+00 0. -1.
        -11    1    4    4    0    0 -0.93154001128E-02 -0.23176982917E-01  0.30729162327E-01  0.39604188601E-01  0.51100000000E-03 0. -1.
         11    1    4    4    0    0 -0.30394597480E-01 -0.31705030039E-01  0.77030378853E-01  0.88673450778E-01  0.51100000000E-03 0.  1.
</event>
<event>
 8    1  0.1060404E+005  0.1043930E+01  0.7957747E-01            NaN
         13   -1    0    0    0    0  0.00000000000E+00  0.00000000000E+00  0.74505805969E-08  0.10566000000E+00  0.10566000000E+00 0.  1.
     999900   -1    0    0    0    0 -0.00000000000E+00 -0.00000000000E+00 -0.74505805969E-08  0.93827000000E+00  0.93827000000E+00 0.  1.
     999902    2    1    2    0    0 -0.10418511221E-01  0.23177908751E-02  0.21747462710E-01  0.10197046070E+01  0.10194168019E+01 0.  0.
     999903    2    3    3    0    0 -0.81890477706E-01  0.46142245888E-01 -0.86642156314E-01  0.12909968094E+00  0.18019633002E-01 0.  0.
         14    1    1    2    0    0  0.10418511221E-01 -0.23177908751E-02 -0.21747462710E-01  0.24225392978E-01  0.00000000000E+00 0. -1.
     999901    1    3    3    0    0  0.71471966484E-01 -0.43824455013E-01  0.10838961902E+00  0.89060492608E+00  0.88000000000E+00 0. -1.
        -11    1    4    4    0    0 -0.73189237972E-01  0.37351608143E-01 -0.67682884467E-01  0.10645675721E+00  0.51100000000E-03 0.  1.
         11    1    4    4    0    0 -0.87012397336E-02  0.87906377457E-02 -0.18959271847E-01  0.22642923726E-01  0.51100000000E-03 0. -1.
</event>
<event>
 8    1  0.1060404E+005  0.1043930E+01  0.7957747E-01            NaN
         13   -1    0    0    0    0  0.00000000000E+00  0.00000000000E+00  0.74505805969E-08  0.10566000000E+00  0.10566000000E+00 0.  1.
     999900   -1    0    0    0    0 -0.00000000000E+00 -0.00000000000E+00 -0.74505805969E-08  0.93827000000E+00  0.93827000000E+00 0.  1.
     999902    2    1    2    0    0  0.15916186273E-02  0.87997132767E-02 -0.22004293299E-01  0.10201780079E+01  0.10199014711E+01 0.  0.
     999903    2    3    3    0    0 -0.31893436002E-01  0.90135470406E-02 -0.12743966105E+00  0.13325190538E+00  0.20414891345E-01 0.  0.
         14    1    1    2    0    0 -0.15916186273E-02 -0.87997132767E-02  0.22004293299E-01  0.23751992068E-01  0.00000000000E+00 0.  1.
     999901    1    3    3    0    0  0.33485054630E-01 -0.21383376385E-03  0.10543536776E+00  0.88692610255E+00  0.88000000000E+00 0. -1.
        -11    1    4    4    0    0 -0.13888141883E-01  0.14431673565E-01 -0.70002162342E-01  0.72812894054E-01  0.51100000000E-03 0.  1.
         11    1    4    4    0    0 -0.18005294119E-01 -0.54181265245E-02 -0.57437498711E-01  0.60439011330E-01  0.51100000000E-03 0. -1.
</event>
<event>
 8    1  0.1060404E+005  0.1043930E+01  0.7957747E-01            NaN
         13   -1    0    0    0    0  0.00000000000E+00  0.00000000000E+00  0.74505805969E-08  0.10566000000E+00  0.10566000000E+00 0. -1.
     999900   -1    0    0    0    0 -0.00000000000E+00 -0.00000000000E+00 -0.74505805969E-08  0.93827000000E+00  0.93827000000E+00 0.  1.
     999902    2    1    2    0    0  0.78725193727E-02 -0.12826383649E-01 -0.18455216836E-01  0.10201163966E+01  0.10198384063E+01 0.  0.
     999903    2    3    3    0    0 -0.41164433894E-01 -0.12270234845E+00 -0.15474109995E-01  0.13192371624E+00  0.20348019422E-01 0.  0.
         14    1    1    2    0    0 -0.78725193727E-02  0.12826383649E-01  0.18455216836E-01  0.23813603407E-01  0.00000000000E+00 0. -1.
     999901    1    3    3    0    0  0.49036953266E-01  0.10987596480E+00 -0.29811068410E-02  0.88819268035E+00  0.88000000000E+00 0. -1.
        -11    1    4    4    0    0 -0.39186925476E-01 -0.10546400712E+00 -0.73282672155E-02  0.11274855452E+00  0.51100000000E-03 0. -1.
         11    1    4    4    0    0 -0.19775084182E-02 -0.17238341334E-01 -0.81458427794E-02  0.19175161723E-01  0.51100000000E-03 0.  1.
</event>
<event>
 8    1  0.1060404E+005  0.1043930E+01  0.7957747E-01            NaN
         13   -1    0    0    0    0  0.00000000000E+00  0.00000000000E+00  0.74505805969E-08  0.10566000000E+00  0.10566000000E+00 0. -1.
     999900   -1    0    0    0    0 -0.00000000000E+00 -0.00000000000E+00 -0.74505805969E-08  0.93827000000E+00  0.93827000000E+00 0.  1.
     999902    2    1    2    0    0 -0.16511969588E-01 -0.39261477500E-02  0.57958814753E-02  0.10259953403E+01  0.10258385771E+01 0.  0.
     999903    2    3    3    0    0 -0.59600416410E-01 -0.10931088110E+00  0.54481150107E-01  0.13732621648E+00  0.19728549195E-01 0.  0.
         14    1    1    2    0    0  0.16511969588E-01  0.39261477500E-02 -0.57958814753E-02  0.17934659682E-01  0.00000000000E+00 0. -1.
     999901    1    3    3    0    0  0.43088446822E-01  0.10538473335E+00 -0.48685268631E-01  0.88866912383E+00  0.88000000000E+00 0.  1.
        -11    1    4    4    0    0 -0.14131858841E-01 -0.45691228102E-01  0.22085143861E-01  0.52682183517E-01  0.51100000000E-03 0.  1.
         11    1    4    4    0    0 -0.45468557569E-01 -0.63619653001E-01  0.32396006246E-01  0.84644032968E-01  0.51100000000E-03 0. -1.
</event>
<event>
 8    1  0.1060404E+005  0.1043930E+01  0.7957747E-01            NaN
         13   -1    0    0    0    0  0.00000000000E+00  0.00000000000E+00  0.74505805969E-08  0.10566000000E+00  0.10566000000E+00 0. -1.
     999900   -1    0    0    0    0 -0.00000000000E+00 -0.00000000000E+00 -0.74505805969E-08  0.93827000000E+00  0.93827000000E+00 0. -1.
     999902    2    1    2    0    0  0.19140442431E-01 -0.11750491921E-01 -0.56460595384E-02  0.10207716627E+01  0.10205089313E+01 0.  0.
     999903    2    3    3    0    0 -0.10080512631E+00  0.75902008349E-01 -0.15698936907E-01  0.12826342153E+00  0.16800604778E-01 0.  0.
         14    1    1    2    0    0 -0.19140442431E-01  0.11750491921E-01  0.56460595384E-02  0.23158337271E-01  0.00000000000E+00 0.  1.
     999901    1    3    3    0    0  0.11994556874E+00 -0.87652500270E-01  0.10052877369E-01  0.89250824120E+00  0.88000000000E+00 0. -1.
        -11    1    4    4    0    0 -0.64188120658E-01  0.56205379361E-01 -0.57791523217E-02  0.85515023389E-01  0.51100000000E-03 0.  1.
         11    1    4    4    0    0 -0.36617005652E-01  0.19696628988E-01 -0.99197845853E-02  0.42748398141E-01  0.51100000000E-03 0. -1.
</event>
<event>
 8    1  0.1060404E+005  0.1043930E+01  0.7957747E-01            NaN
         13   -1    0    0    0    0  0.00000000000E+00  0.00000000000E+00  0.74505805969E-08  0.10566000000E+00  0.10566000000E+00 0. -1.
     999900   -1    0    0    0    0 -0.00000000000E+00 -0.00000000000E+00 -0.74505805969E-08  0.93827000000E+00  0.93827000000E+00 0. -1.
     999902    2    1    2    0    0 -0.19882818890E-01  0.84124933463E-02 -0.88085310624E-02  0.10206129086E+01  0.10203465208E+01 0.  0.
     999903    2    3    3    0    0  0.38959881624E-01  0.63598172787E-01  0.10413376513E+00  0.12973475483E+00  0.20607416413E-01 0.  0.
         14    1    1    2    0    0  0.19882818890E-01 -0.84124933463E-02  0.88085310624E-02  0.23317091388E-01  0.00000000000E+00 0.  1.
     999901    1    3    3    0    0 -0.58842700514E-01 -0.55185679441E-01 -0.11294229620E+00  0.89087815378E+00  0.88000000000E+00 0. -1.
        -11    1    4    4    0    0  0.27777634020E-01  0.35171991183E-01  0.46999034134E-01  0.64944870822E-01  0.51100000000E-03 0.  1.
         11    1    4    4    0    0  0.11182247604E-01  0.28426181604E-01  0.57134731001E-01  0.64789884006E-01  0.51100000000E-03 0. -1.
</event>
<event>
 8    1  0.1060404E+005  0.1043930E+01  0.7957747E-01            NaN
         13   -1    0    0    0    0  0.00000000000E+00  0.00000000000E+00  0.74505805969E-08  0.10566000000E+00  0.10566000000E+00 0.  1.
     999900   -1    0    0    0    0 -0.00000000000E+00 -0.00000000000E+00 -0.74505805969E-08  0.93827000000E+00  0.93827000000E+00 0.  1.
     999902    2    1    2    0    0  0.10154976049E-01 -0.10420648524E-02  0.21013915899E-01  0.10205677634E+01  0.10203003311E+01 0.  0.
     999903    2    3    3    0    0 -0.42145202400E-01 -0.60755199042E-03  0.12454107883E+00  0.13295671630E+00  0.19759071060E-01 0.  0.
         14    1    1    2    0    0 -0.10154976049E-01  0.10420648524E-02 -0.21013915899E-01  0.23362236603E-01  0.00000000000E+00 0. -1.
     999901    1    3    3    0    0  0.52300178449E-01 -0.43451286193E-03 -0.10352716293E+00  0.88761104710E+00  0.88000000000E+00 0. -1.
        -11    1    4    4    0    0 -0.25636168369E-01 -0.91840754620E-02  0.62317340672E-01  0.68009355534E-01  0.51100000000E-03 0.  1.
         11    1    4    4    0    0 -0.16509034031E-01  0.85765234715E-02  0.62223738153E-01  0.64947360765E-01  0.51100000000E-03 0. -1.
</event>
<event>
 8    1  0.1060404E+005  0.1043930E+01  0.7957747E-01            NaN
         13   -1    0    0    0    0  0.00000000000E+00  0.00000000000E+00  0.74505805969E-08  0.10566000000E+00  0.10566000000E+00 0. -1.
     999900   -1    0    0    0    0 -0.00000000000E+00 -0.00000000000E+00 -0.74505805969E-08  0.93827000000E+00  0.93827000000E+00 0. -1.
     999902    2    1    2    0    0 -0.17712525319E-01 -0.24762916450E-01  0.31581559668E-02  0.10133210220E+01  0.10128586200E+01 0.  0.
     999903    2    3    3    0    0  0.97210460840E-01  0.58804409276E-02  0.71037091274E-01  0.12272916378E+00  0.23059185202E-01 0.  0.
         14    1    1    2    0    0  0.17712525319E-01  0.24762916450E-01 -0.31581559668E-02  0.30608977987E-01  0.00000000000E+00 0.  1.
     999901    1    3    3    0    0 -0.11492298616E+00 -0.30643357378E-01 -0.67878935307E-01  0.89059185824E+00  0.88000000000E+00 0.  1.
        -11    1    4    4    0    0  0.22835258370E-01  0.10913233723E-01  0.14546745432E-01  0.29196174728E-01  0.51100000000E-03 0.  1.
         11    1    4    4    0    0  0.74375202470E-01 -0.50327927952E-02  0.56490345842E-01  0.93532989048E-01  0.51100000000E-03 0. -1.
</event>
<event>
 8    1  0.1060404E+005  0.1043930E+01  0.7957747E-01            NaN
         13   -1    0    0    0    0  0.00000000000E+00  0.00000000000E+00  0.74505805969E-08  0.10566000000E+00  0.10566000000E+00 0.  1.
     999900   -1    0    0    0    0 -0.00000000000E+00 -0.00000000000E+00 -0.74505805969E-08  0.93827000000E+00  0.93827000000E+00 0. -1.
     999902    2    1    2    0    0 -0.33376371397E-02  0.10841626837E-01 -0.21155174642E-01  0.10199253732E+01  0.10196428516E+01 0.  0.
     999903    2    3    3    0    0 -0.10346443825E-01 -0.12654670945E+00 -0.15718500424E-01  0.12922102508E+00  0.18162695125E-01 0.  0.
         14    1    1    2    0    0  0.33376371397E-02 -0.10841626837E-01  0.21155174642E-01  0.24004626810E-01  0.00000000000E+00 0.  1.
     999901    1    3    3    0    0  0.70088066856E-02  0.13738833629E+00 -0.54366742178E-02  0.89070434811E+00  0.88000000000E+00 0.  1.
        -11    1    4    4    0    0 -0.60190630764E-02 -0.66528110155E-01  0.84281362870E-03  0.66807110526E-01  0.51100000000E-03 0.  1.
         11    1    4    4    0    0 -0.43273807488E-02 -0.60018599296E-01 -0.16561314052E-01  0.62413914552E-01  0.51100000000E-03 0. -1.
</event>
<event>
 8    1  0.1060404E+005  0.1043930E+01  0.7957747E-01            NaN
         13   -1    0    0    0    0  0.00000000000E+00  0.00000000000E+00  0.74505805969E-08  0.10566000000E+00  0.10566000000E+00 0. -1.
     999900   -1    0    0    0    0 -0.00000000000E+00 -0.00000000000E+00 -0.74505805969E-08  0.93827000000E+00  0.93827000000E+00 0.  1.
     999902    2    1    2    0    0  0.15616714227E-02  0.92614473449E-02  0.21544479998E-01  0.10204272801E+01  0.10201565841E+01 0.  0.
     999903    2    3    3    0    0 -0.86582119573E-02 -0.85441236753E-01  0.98105561420E-01  0.13198220944E+00  0.20480059905E-01 0.  0.
         14    1    1    2    0    0 -0.15616714227E-02 -0.92614473449E-02 -0.21544479998E-01  0.23502719905E-01  0.00000000000E+00 0.  1.
     999901    1    3    3    0    0  0.10219883380E-01  0.94702684098E-01 -0.76561081422E-01  0.88844507066E+00  0.88000000000E+00 0. -1.
        -11    1    4    4    0    0 -0.39506375621E-02 -0.73200786916E-02  0.31011448771E-02  0.88920925404E-02  0.51100000000E-03 0. -1.
         11    1    4    4    0    0 -0.47075743952E-02 -0.78121158061E-01  0.95004416543E-01  0.12309011689E+00  0.51100000000E-03 0.  1.
</event>
<event>
 8    1  0.1060404E+005  0.1043930E+01  0.7957747E-01            NaN
         13   -1    0    0    0    0  0.00000000000E+00  0.00000000000E+00  0.74505805969E-08  0.10566000000E+00  0.10566000000E+00 0. -1.
     999900   -1    0    0    0    0 -0.00000000000E+00 -0.00000000000E+00 -0.74505805969E-08  0.93827000000E+00  0.93827000000E+00 0. -1.
     999902    2    1    2    0    0 -0.25445565917E-01 -0.24940435443E-02  0.10243324355E-01  0.10163868925E+01  0.10160136281E+01 0.  0.
     999903    2    3    3    0    0  0.11604162594E+00  0.35852826589E-01  0.17116210453E-01  0.12423424608E+00  0.19750926950E-01 0.  0.
         14    1    1    2    0    0  0.25445565917E-01  0.24940435443E-02 -0.10243324355E-01  0.27543107520E-01  0.00000000000E+00 0.  1.
     999901    1    3    3    0    0 -0.14148719185E+00 -0.38346870134E-01 -0.68728860989E-02  0.89215264640E+00  0.88000000000E+00 0. -1.
        -11    1    4    4    0    0  0.70769832216E-01  0.31364974847E-01  0.13660590772E-01  0.78606638780E-01  0.51100000000E-03 0.  1.
         11    1    4    4    0    0  0.45271793721E-01  0.44878517424E-02  0.34556196811E-02  0.45627607304E-01  0.51100000000E-03 0. -1.
</event>
<event>
 8    1  0.1060404E+005  0.1043930E+01  0.7957747E-01            NaN
         13   -1    0    0    0    0  0.00000000000E+00  0.00000000000E+00  0.74505805969E-08  0.10566000000E+00  0.10566000000E+00 0. -1.
     999900   -1    0    0    0    0 -0.00000000000E+00 -0.00000000000E+00 -0.74505805969E-08  0.93827000000E+00  0.93827000000E+00 0.  1.
     999902    2    1    2    0    0  0.66773872388E-02  0.30685406088E-02  0.19498852208E-01  0.10230923255E+01  0.10228800994E+01 0.  0.
     999903    2    3    3    0    0 -0.59695869617E-01 -0.84780071811E-01  0.82403065023E-01  0.13400305667E+00  0.20378828379E-01 0.  0.
         14    1    1    2    0    0 -0.66773872388E-02 -0.30685406088E-02 -0.19498852208E-01  0.20837674516E-01  0.00000000000E+00 0.  1.
     999901    1    3    3    0    0  0.66373256856E-01  0.87848612420E-01 -0.62904212815E-01  0.88908926881E+00  0.88000000000E+00 0.  1.
        -11    1    4    4    0    0 -0.29564901590E-01 -0.25172034409E-01  0.32224037906E-01  0.50461514664E-01  0.51100000000E-03 0. -1.
         11    1    4    4    0    0 -0.30130968027E-01 -0.59608037403E-01  0.50179027118E-01  0.83541542006E-01  0.51100000000E-03 0.  1.
</event>
<event>
 8    1  0.1060404E+005  0.1043930E+01  0.7957747E-01            NaN
         13   -1    0    0    0    0  0.00000000000E+00  0.00000000000E+00  0.74505805969E-08  0.10566000000E+00  0.10566000000E+00 0. -1.
     999900   -1    0    0    0    0 -0.00000000000E+00 -0.00000000000E+00 -0.74505805969E-08  0.93827000000E+00  0.93827000000E+00 0. -1.
     999902    2    1    2    0    0 -0.94971428540E-02 -0.11788480091E-01  0.18264270764E-01  0.10202076989E+01  0.10199318611E+01 0.  0.
     999903    2    3    3    0    0 -0.29736507349E-02 -0.76851694185E-01 -0.10260069705E+00  0.12954271233E+00  0.18422426137E-01 0.  0.
         14    1    1    2    0    0  0.94971428540E-02  0.11788480091E-01 -0.18264270764E-01  0.23722301149E-01  0.00000000000E+00 0.  1.
     999901    1    3    3    0    0 -0.65234921191E-02  0.65063214093E-01  0.12086496781E+00  0.89066498652E+00  0.88000000000E+00 0.  1.
        -11    1    4    4    0    0  0.38666233764E-02 -0.42216166182E-02 -0.45566917916E-02  0.73346700191E-02  0.51100000000E-03 0. -1.
         11    1    4    4    0    0 -0.68402741114E-02 -0.72630077567E-01 -0.98044005254E-01  0.12220804231E+00  0.51100000000E-03 0.  1.
</event>
<event>
 8    1  0.1060404E+005  0.1043930E+01  0.7957747E-01            NaN
         13   -1    0    0    0    0  0.00000000000E+00  0.00000000000E+00  0.74505805969E-08  0.10566000000E+00  0.10566000000E+00 0.  1.
     999900   -1    0    0    0    0 -0.00000000000E+00 -0.00000000000E+00 -0.74505805969E-08  0.93827000000E+00  0.93827000000E+00 0. -1.
     999902    2    1    2    0    0  0.10857295051E-01 -0.19209618278E-01  0.12115695042E-01  0.10187569915E+01  0.10184459374E+01 0.  0.
     999903    2    3    3    0    0  0.48359919531E-01 -0.11654528677E+00  0.34517464747E-01  0.13231324344E+00  0.19845738359E-01 0.  0.
         14    1    1    2    0    0 -0.10857295051E-01  0.19209618278E-01 -0.12115695042E-01  0.25173008492E-01  0.00000000000E+00 0.  1.
     999901    1    3    3    0    0 -0.37502624480E-01  0.97335668494E-01 -0.22401769705E-01  0.88644374807E+00  0.88000000000E+00 0. -1.
        -11    1    4    4    0    0  0.83994717182E-02 -0.22367158175E-01 -0.12609588528E-02  0.23930984690E-01  0.51100000000E-03 0. -1.
         11    1    4    4    0    0  0.39960447813E-01 -0.94178128597E-01  0.35778423600E-01  0.10838225875E+00  0.51100000000E-03 0.  1.
</event>
<event>
 8    1  0.1060404E+005  0.1043930E+01  0.7957747E-01            NaN
         13   -1    0    0    0    0  0.00000000000E+00  0.00000000000E+00  0.74505805969E-08  0.10566000000E+00  0.10566000000E+00 0. -1.
     999900   -1    0    0    0    0 -0.00000000000E+00 -0.00000000000E+00 -0.74505805969E-08  0.93827000000E+00  0.93827000000E+00 0. -1.
     999902    2    1    2    0    0  0.18508957737E-01  0.88448574656E-03  0.14436272949E-01  0.10204402191E+01  0.10201698245E+01 0.  0.
     999903    2    3    3    0    0  0.14300853581E-01  0.11979493589E+00  0.49233175878E-01  0.13175116898E+00  0.19471102750E-01 0.  0.
         14    1    1    2    0    0 -0.18508957737E-01 -0.88448574656E-03 -0.14436272949E-01  0.23489780931E-01  0.00000000000E+00 0.  1.
     999901    1    3    3    0    0  0.42081041559E-02 -0.11891045014E+00 -0.34796902929E-01  0.88868905009E+00  0.88000000000E+00 0. -1.
        -11    1    4    4    0    0  0.14605439644E-01  0.55974805669E-01  0.29554936516E-01  0.64963475356E-01  0.51100000000E-03 0.  1.
         11    1    4    4    0    0 -0.30458606295E-03  0.63820130222E-01  0.19678239362E-01  0.66787693624E-01  0.51100000000E-03 0. -1.
</event>
<event>
 8    1  0.1060404E+005  0.1043930E+01  0.7957747E-01            NaN
         13   -1    0    0    0    0  0.00000000000E+00  0.00000000000E+00  0.74505805969E-08  0.10566000000E+00  0.10566000000E+00 0.  1.
     999900   -1    0    0    0    0 -0.00000000000E+00 -0.00000000000E+00 -0.74505805969E-08  0.93827000000E+00  0.93827000000E+00 0.  1.
     999902    2    1    2    0    0  0.73342579429E-02  0.23099985060E-01 -0.75915516797E-03  0.10196817637E+01  0.10193934089E+01 0.  0.
     999903    2    3    3    0    0 -0.32274491136E-01  0.13958636073E-01 -0.12353612497E+00  0.13022878481E+00  0.21491298741E-01 0.  0.
         14    1    1    2    0    0 -0.73342579429E-02 -0.23099985060E-01  0.75915516797E-03  0.24248236346E-01  0.00000000000E+00 0.  1.
     999901    1    3    3    0    0  0.39608749079E-01  0.91413489863E-02  0.12277696980E+00  0.88945297885E+00  0.88000000000E+00 0. -1.
        -11    1    4    4    0    0  0.14185520197E-02  0.65307337551E-02 -0.19540672524E-01  0.20658213304E-01  0.51100000000E-03 0.  1.
         11    1    4    4    0    0 -0.33693043156E-01  0.74279023183E-02 -0.10399545244E+00  0.10957057150E+00  0.51100000000E-03 0. -1.
</event>
<event>
 8    1  0.1060404E+005  0.1043930E+01  0.7957747E-01            NaN
         13   -1    0    0    0    0  0.00000000000E+00  0.00000000000E+00  0.74505805969E-08  0.10566000000E+00  0.10566000000E+00 0. -1.
     999900   -1    0    0    0    0 -0.00000000000E+00 -0.00000000000E+00 -0.74505805969E-08  0.93827000000E+00  0.93827000000E+00 0.  1.
     999902    2    1    2    0    0 -0.42009349902E-02 -0.23111702540E-01 -0.20586053354E-02  0.10203495737E+01  0.10200770638E+01 0.  0.
     999903    2    3    3    0    0 -0.98443601483E-01 -0.49986877316E-01 -0.70276271153E-01  0.13228560914E+00  0.19258699868E-01 0.  0.
         14    1    1    2    0    0  0.42009349902E-02  0.23111702540E-01  0.20586053354E-02  0.23580426311E-01  0.00000000000E+00 0.  1.
     999901    1    3    3    0    0  0.94242666493E-01  0.26875174777E-01  0.68217665818E-01  0.88806396455E+00  0.88000000000E+00 0.  1.
        -11    1    4    4    0    0 -0.54865299866E-01 -0.19721753454E-01 -0.44201128948E-01  0.73165221314E-01  0.51100000000E-03 0.  1.
         11    1    4    4    0    0 -0.43578301617E-01 -0.30265123862E-01 -0.26075142206E-01  0.59120387822E-01  0.51100000000E-03 0. -1.
</event>
<event>
 8    1  0.1060404E+005  0.1043930E+01  0.7957747E-01            NaN
         13   -1    0    0    0    0  0.00000000000E+00  0.00000000000E+00  0.74505805969E-08  0.10566000000E+00  0.10566000000E+00 0.  1.
     999900   -1    0    0    0    0 -0.00000000000E+00 -0.00000000000E+00 -0.74505805969E-08  0.93827000000E+00  0.93827000000E+00 0. -1.
     999902    2    1    2    0    0 -0.70327943786E-02  0.26529323390E-01  0.44338672071E-02  0.10161284825E+01  0.10157480832E+01 0.  0.
     999903    2    3    3    0    0  0.53702270220E-01 -0.83641552393E-02 -0.11165507860E+00  0.12574488750E+00  0.19774408592E-01 0.  0.
         14    1    1    2    0    0  0.70327943786E-02 -0.26529323390E-01 -0.44338672071E-02  0.27801517489E-01  0.00000000000E+00 0. -1.
     999901    1    3    3    0    0 -0.60735064599E-01  0.34893478629E-01  0.11608894581E+00  0.89038359501E+00  0.88000000000E+00 0.  1.
        -11    1    4    4    0    0  0.79561835397E-02 -0.19007265721E-02 -0.37410365970E-01  0.38297652944E-01  0.51100000000E-03 0. -1.
         11    1    4    4    0    0  0.45746086680E-01 -0.64634286672E-02 -0.74244712634E-01  0.87447234557E-01  0.51100000000E-03 0.  1.
</event>
<event>
 8    1  0.1060404E+005  0.1043930E+01  0.7957747E-01            NaN
         13   -1    0    0    0    0  0.00000000000E+00  0.00000000000E+00  0.74505805969E-08  0.10566000000E+00  0.10566000000E+00 0. -1.
     999900   -1    0    0    0    0 -0.00000000000E+00 -0.00000000000E+00 -0.74505805969E-08  0.93827000000E+00  0.93827000000E+00 0.  1.
     999902    2    1    2    0    0 -0.27794923074E-01 -0.12973079431E-02  0.10080871641E-01  0.10143349881E+01  0.10139031528E+01 0.  0.
     999903    2    3    3    0    0  0.92496892728E-01 -0.32780430086E-01  0.72076903039E-01  0.12343386236E+00  0.20263431704E-01 0.  0.
         14    1    1    2    0    0  0.27794923074E-01  0.12973079431E-02 -0.10080871641E-01  0.29595011904E-01  0.00000000000E+00 0.  1.
     999901    1    3    3    0    0 -0.12029181580E+00  0.31483122143E-01 -0.61996031398E-01  0.89090112574E+00  0.88000000000E+00 0.  1.
        -11    1    4    4    0    0  0.58141242846E-01 -0.10715446213E-01  0.46858540790E-01  0.75440101228E-01  0.51100000000E-03 0. -1.
         11    1    4    4    0    0  0.34355649882E-01 -0.22064983873E-01  0.25218362249E-01  0.47993761132E-01  0.51100000000E-03 0.  1.
</event>
<event>
 8    1  0.1060404E+005  0.1043930E+01  0.7957747E-01            NaN
         13   -1    0    0    0    0  0.00000000000E+00  0.00000000000E+00  0.74505805969E-08  0.10566000000E+00  0.10566000000E+00 0.  1.
     999900   -1    0    0    0    0 -0.00000000000E+00 -0.00000000000E+00 -0.74505805969E-08  0.93827000000E+00  0.93827000000E+00 0. -1.
     999902    2    1    2    0    0 -0.92189095320E-02  0.20246761043E-01 -0.82361906246E-02  0.10202075536E+01  0.10199317124E+01 0.  0.
     999903    2    3    3    0    0 -0.70618742908E-01  0.61191813633E-01 -0.92753969855E-01  0.13308315882E+00  0.19400601308E-01 0.  0.
         14    1    1    2    0    0  0.92189095320E-02 -0.20246761043E-01  0.82361906246E-02  0.23722446368E-01  0.00000000000E+00 0.  1.
     999901    1    3    3    0    0  0.61399833376E-01 -0.40945052590E-01  0.84517779231E-01  0.88712439482E+00  0.88000000000E+00 0.  1.
        -11    1    4    4    0    0 -0.39550208761E-02  0.11450838520E-01 -0.95596114265E-02  0.15440569438E-01  0.51100000000E-03 0.  1.
         11    1    4    4    0    0 -0.66663722031E-01  0.49740975113E-01 -0.83194358429E-01  0.11764258938E+00  0.51100000000E-03 0. -1.
</event>
<event>
 8    1  0.1060404E+005  0.1043930E+01  0.7957747E-01            NaN
         13   -1    0    0    0    0  0.00000000000E+00  0.00000000000E+00  0.74505805969E-08  0.10566000000E+00  0.10566000000E+00 0.  1.
     999900   -1    0    0    0    0 -0.00000000000E+00 -0.00000000000E+00 -0.74505805969E-08  0.93827000000E+00  0.93827000000E+00 0. -1.
     999902    2    1    2    0    0 -0.92782271706E-02 -0.20652859122E-01 -0.84138932310E-02  0.10197759178E+01  0.10194898247E+01 0.  0.
     999903    2    3    3    0    0 -0.11804557920E+00 -0.42914692817E-01  0.34342822050E-01  0.13177025179E+00  0.20187624973E-01 0.  0.
         14    1    1    2    0    0  0.92782271706E-02  0.20652859122E-01  0.84138932310E-02  0.24154082236E-01  0.00000000000E+00 0.  1.
     999901    1    3    3    0    0  0.10876735203E+00  0.22261833695E-01 -0.42756715281E-01  0.88800566598E+00  0.88000000000E+00 0. -1.
        -11    1    4    4    0    0 -0.58782490573E-01 -0.18666546270E-01  0.26959864857E-01  0.67312083475E-01  0.51100000000E-03 0.  1.
         11    1    4    4    0    0 -0.59263088624E-01 -0.24248146547E-01  0.73829571930E-02  0.64458168312E-01  0.51100000000E-03 0. -1.
</event>
<event>
 8    1  0.1060404E+005  0.1043930E+01  0.7957747E-01            NaN
         13   -1    0    0    0    0  0.00000000000E+00  0.00000000000E+00  0.74505805969E-08  0.10566000000E+00  0.10566000000E+00 0. -1.
     999900   -1    0    0    0    0 -0.00000000000E+00 -0.00000000000E+00 -0.74505805969E-08  0.93827000000E+00  0.93827000000E+00 0.  1.
     999902    2    1    2    0    0 -0.32423682826E-02 -0.20224559646E-01  0.41236305267E-02  0.10230362188E+01  0.10228228365E+01 0.  0.
     999903    2    3    3    0    0 -0.66805413105E-01 -0.95407364500E-02 -0.11275847241E+00  0.13297114771E+00  0.20319058825E-01 0.  0.
         14    1    1    2    0    0  0.32423682826E-02  0.20224559646E-01 -0.41236305267E-02  0.20893781220E-01  0.00000000000E+00 0. -1.
     999901    1    3    3    0    0  0.63563044822E-01 -0.10683823196E-01  0.11688210294E+00  0.89006507107E+00  0.88000000000E+00 0. -1.
        -11    1    4    4    0    0 -0.52160416077E-01 -0.91680926024E-03 -0.95015675425E-01  0.10839644479E+00  0.51100000000E-03 0. -1.
         11    1    4    4    0    0 -0.14644997028E-01 -0.86239271898E-02 -0.17742796986E-01  0.24574702928E-01  0.51100000000E-03 0.  1.
</event>
<event>
 8    1  0.1060404E+005  0.1043930E+01  0.7957747E-01            NaN
         13   -1    0    0    0    0  0.00000000000E+00  0.00000000000E+00  0.74505805969E-08  0.10566000000E+00  0.10566000000E+00 0. -1.
     999900   -1    0    0    0    0 -0.00000000000E+00 -0.00000000000E+00 -0.74505805969E-08  0.93827000000E+00  0.93827000000E+00 0. -1.
     999902    2    1    2    0    0 -0.11679588887E-01  0.20704764902E-01 -0.13334640600E-03  0.10201577921E+01  0.10198807788E+01 0.  0.
     999903    2    3    3    0    0  0.11216201789E+00 -0.45617900065E-01  0.37098438856E-01  0.12823759093E+00  0.20181043023E-01 0.  0.
         14    1    1    2    0    0  0.11679588887E-01 -0.20704764902E-01  0.13334640600E-03  0.23772207880E-01  0.00000000000E+00 0. -1.
     999901    1    3    3    0    0 -0.12384160678E+00  0.66322664967E-01 -0.37231785262E-01  0.89192020119E+00  0.88000000000E+00 0. -1.
        -11    1    4    4    0    0  0.88532398034E-01 -0.39668947277E-01  0.21711651388E-01  0.99414625718E-01  0.51100000000E-03 0.  1.
         11    1    4    4    0    0  0.23629619860E-01 -0.59489527886E-02  0.15386787468E-01  0.28822965212E-01  0.51100000000E-03 0. -1.
</event>
<event>
 8    1  0.1060404E+005  0.1043930E+01  0.7957747E-01            NaN
         13   -1    0    0    0    0  0.00000000000E+00  0.00000000000E+00  0.74505805969E-08  0.10566000000E+00  0.10566000000E+00 0. -1.
     999900   -1    0    0    0    0 -0.00000000000E+00 -0.00000000000E+00 -0.74505805969E-08  0.93827000000E+00  0.93827000000E+00 0.  1.
     999902    2    1    2    0    0  0.19738351173E-01  0.98801913415E-02  0.10975512962E-01  0.10192787815E+01  0.10189806435E+01 0.  0.
     999903    2    3    3    0    0  0.60082283622E-01 -0.99075716880E-01  0.56483051435E-01  0.13047623940E+00  0.20194936661E-01 0.  0.
         14    1    1    2    0    0 -0.19738351173E-01 -0.98801913415E-02 -0.10975512962E-01  0.24651218484E-01  0.00000000000E+00 0. -1.
     999901    1    3    3    0    0 -0.40343932449E-01  0.10895590822E+00 -0.45507538473E-01  0.88880254212E+00  0.88000000000E+00 0. -1.
        -11    1    4    4    0    0  0.37946668327E-01 -0.75672987419E-01  0.34195535189E-01  0.91301404206E-01  0.51100000000E-03 0. -1.
         11    1    4    4    0    0  0.22135615295E-01 -0.23402729461E-01  0.22287516246E-01  0.39174835189E-01  0.51100000000E-03 0.  1.
</event>
<event>
 8    1  0.1060404E+005  0.1043930E+01  0.7957747E-01            NaN
         13   -1    0    0    0    0  0.00000000000E+00  0.00000000000E+00  0.74505805969E-08  0.10566000000E+00  0.10566000000E+00 0. -1.
     999900   -1    0    0    0    0 -0.00000000000E+00 -0.00000000000E+00 -0.74505805969E-08  0.93827000000E+00  0.93827000000E+00 0. -1.
     999902    2    1    2    0    0 -0.11152719368E-01  0.72402727994E-02  0.19330036894E-01  0.10204682220E+01  0.10201984793E+01 0.  0.
     999903    2    3    3    0    0  0.13360582178E-01  0.11892331749E+00 -0.47996407048E-01  0.13052055251E+00  0.20265708406E-01 0.  0.
         14    1    1    2    0    0  0.11152719368E-01 -0.72402727994E-02 -0.19330036894E-01  0.23461777977E-01  0.00000000000E+00 0.  1.
     999901    1    3    3    0    0 -0.24513301546E-01 -0.11168304469E+00  0.67326443941E-01  0.88994766952E+00  0.88000000000E+00 0. -1.
        -11    1    4    4    0    0 -0.39784085135E-02  0.47557867137E-01 -0.15215136080E-01  0.50093312407E-01  0.51100000000E-03 0. -1.
         11    1    4    4    0    0  0.17338990691E-01  0.71365450357E-01 -0.32781270967E-01  0.80427240100E-01  0.51100000000E-03 0.  1.
</event>
<event>
 8    1  0.1060404E+005  0.1043930E+01  0.7957747E-01            NaN
         13   -1    0    0    0    0  0.00000000000E+00  0.00000000000E+00  0.74505805969E-08  0.10566000000E+00  0.10566000000E+00 0. -1.
     999900   -1    0    0    0    0 -0.00000000000E+00 -0.00000000000E+00 -0.74505805969E-08  0.93827000000E+00  0.93827000000E+00 0.  1.
     999902    2    1    2    0    0 -0.93253183233E-02  0.20855635199E-01 -0.57431242694E-02  0.10203736302E+01  0.10201016825E+01 0.  0.
     999903    2    3    3    0    0  0.29305477018E-01  0.12819633532E+00 -0.39022273815E-02  0.13300800480E+00  0.19565034913E-01 0.  0.
         14    1    1    2    0    0  0.93253183233E-02 -0.20855635199E-01  0.57431242694E-02  0.23556369792E-01  0.00000000000E+00 0. -1.
     999901    1    3    3    0    0 -0.38630795341E-01 -0.10734070012E+00 -0.18408968879E-02  0.88736562541E+00  0.88000000000E+00 0.  1.
        -11    1    4    4    0    0  0.20222175433E-01  0.54520071531E-01  0.43532600325E-02  0.58314548553E-01  0.51100000000E-03 0. -1.
         11    1    4    4    0    0  0.90833015842E-02  0.73676263785E-01 -0.82554874140E-02  0.74693456249E-01  0.51100000000E-03 0.  1.
</event>
<event>
 8    1  0.1060404E+005  0.1043930E+01  0.7957747E-01            NaN
         13   -1    0    0    0    0  0.00000000000E+00  0.00000000000E+00  0.74505805969E-08  0.10566000000E+00  0.10566000000E+00 0. -1.
     999900   -1    0    0    0    0 -0.00000000000E+00 -0.00000000000E+00 -0.74505805969E-08  0.93827000000E+00  0.93827000000E+00 0. -1.
     999902    2    1    2    0    0  0.11882262575E-01  0.13448657187E-02 -0.20639001633E-01  0.10200770082E+01  0.10197980866E+01 0.  0.
     999903    2    3    3    0    0 -0.94246771654E-01 -0.47088632776E-01  0.69576308440E-01  0.12780576144E+00  0.19840782688E-01 0.  0.
         14    1    1    2    0    0 -0.11882262575E-01 -0.13448657187E-02  0.20639001633E-01  0.23852991765E-01  0.00000000000E+00 0. -1.
     999901    1    3    3    0    0  0.10612903423E+00  0.48433498494E-01 -0.90215310073E-01  0.89227124679E+00  0.88000000000E+00 0. -1.
        -11    1    4    4    0    0 -0.79908903523E-01 -0.47074928454E-01  0.58182848437E-01  0.10948509818E+00  0.51100000000E-03 0.  1.
         11    1    4    4    0    0 -0.14337868131E-01 -0.13704321939E-04  0.11393460003E-01  0.18320663258E-01  0.51100000000E-03 0. -1.
</event>
<event>
 8    1  0.1060404E+005  0.1043930E+01  0.7957747E-01            NaN
         13   -1    0    0    0    0  0.00000000000E+00  0.00000000000E+00  0.74505805969E-08  0.10566000000E+00  0.10566000000E+00 0.  1.
     999900   -1    0    0    0    0 -0.00000000000E+00 -0.00000000000E+00 -0.74505805969E-08  0.93827000000E+00  0.93827000000E+00 0. -1.
     999902    2    1    2    0    0  0.12776573986E-02  0.78298983157E-02  0.20590349824E-01  0.10218641390E+01  0.10216258691E+01 0.  0.
     999903    2    3    3    0    0 -0.48897312141E-01 -0.11258900011E+00  0.44291583193E-01  0.13193156451E+00  0.19415542553E-01 0.  0.
         14    1    1    2    0    0 -0.12776573986E-02 -0.78298983157E-02 -0.20590349824E-01  0.22065861006E-01  0.00000000000E+00 0. -1.
     999901    1    3    3    0    0  0.50174969539E-01  0.12041889842E+00 -0.23701233369E-01  0.88993257448E+00  0.88000000000E+00 0. -1.
        -11    1    4    4    0    0 -0.23085583889E-01 -0.36670343746E-01  0.87005865832E-02  0.44199769477E-01  0.51100000000E-03 0. -1.
         11    1    4    4    0    0 -0.25811728252E-01 -0.75918656361E-01  0.35590996610E-01  0.87731795033E-01  0.51100000000E-03 0.  1.
</event>
<event>
 8    1  0.1060404E+005  0.1043930E+01  0.7957747E-01            NaN
         13   -1    0    0    0    0  0.00000000000E+00  0.00000000000E+00  0.74505805969E-08  0.10566000000E+00  0.10566000000E+00 0.  1.
     999900   -1    0    0    0    0 -0.00000000000E+00 -0.00000000000E+00 -0.74505805969E-08  0.93827000000E+00  0.93827000000E+00 0.  1.
     999902    2    1    2    0    0  0.13276498288E-01  0.16486312007E-01  0.52831793038E-02  0.10221131287E+01  0.10218802630E+01 0.  0.
     999903    2    3    3    0    0 -0.55321618286E-01 -0.11820824971E-01  0.11742335841E+00  0.13189831451E+00  0.20216501147E-01 0.  0.
         14    1    1    2    0    0 -0.13276498288E-01 -0.16486312007E-01 -0.52831793038E-02  0.21816871314E-01  0.00000000000E+00 0. -1.
     999901    1    3    3    0    0  0.68598116574E-01  0.28307136978E-01 -0.11214017911E+00  0.89021481417E+00  0.88000000000E+00 0.  1.
        -11    1    4    4    0    0 -0.98591744081E-02 -0.47961044173E-03  0.41649485810E-01  0.42806239445E-01  0.51100000000E-03 0.  1.
         11    1    4    4    0    0 -0.45462443878E-01 -0.11341214529E-01  0.75773872601E-01  0.89092075070E-01  0.51100000000E-03 0. -1.
</event>
<event>
 8    1  0.1060404E+005  0.1043930E+01  0.7957747E-01            NaN
         13   -1    0    0    0    0  0.00000000000E+00  0.00000000000E+00  0.74505805969E-08  0.10566000000E+00  0.10566000000E+00 0. -1.
     999900   -1    0    0    0    0 -0.00000000000E+00 -0.00000000000E+00 -0.74505805969E-08  0.93827000000E+00  0.93827000000E+00 0. -1.
     999902    2    1    2    0    0  0.81814056608E-02  0.21738772801E-01 -0.82262920957E-02  0.10192889464E+01  0.10189910572E+01 0.  0.
     999903    2    3    3    0    0  0.12435559206E+00 -0.18233381397E-01  0.27089695019E-01  0.13005251346E+00  0.19571285280E-01 0.  0.
         14    1    1    2    0    0 -0.81814056608E-02 -0.21738772801E-01  0.82262920957E-02  0.24641053612E-01  0.00000000000E+00 0. -1.
     999901    1    3    3    0    0 -0.11617418640E+00  0.39972154198E-01 -0.35315987115E-01  0.88923643293E+00  0.88000000000E+00 0. -1.
        -11    1    4    4    0    0  0.18807266019E-01  0.41158546650E-02  0.27906100758E-02  0.19460270819E-01  0.51100000000E-03 0. -1.
         11    1    4    4    0    0  0.10554832604E+00 -0.22349236062E-01  0.24299084943E-01  0.11059224264E+00  0.51100000000E-03 0.  1.
</event>
<event>
 8    1  0.1060404E+005  0.1043930E+01  0.7957747E-01            NaN
         13   -1    0    0    0    0  0.00000000000E+00  0.00000000000E+00  0.74505805969E-08  0.10566000000E+00  0.10566000000E+00 0. -1.
     999900   -1    0    0    0    0 -0.00000000000E+00 -0.00000000000E+00 -0.74505805969E-08  0.93827000000E+00  0.93827000000E+00 0.  1.
     999902    2    1    2    0    0 -0.14105620437E-01  0.18205869990E-01 -0.21094994202E-02  0.10208026954E+01  0.10205406757E+01 0.  0.
     999903    2    3    3    0    0 -0.89855516715E-01 -0.92705654144E-01 -0.15202274337E-02  0.13061183935E+00  0.19717740525E-01 0.  0.
         14    1    1    2    0    0  0.14105620437E-01 -0.18205869990E-01  0.21094994202E-02  0.23127304595E-01  0.00000000000E+00 0.  1.
     999901    1    3    3    0    0  0.75749896278E-01  0.11091152413E+00 -0.58927198652E-03  0.89019085606E+00  0.88000000000E+00 0.  1.
        -11    1    4    4    0    0 -0.52187703217E-01 -0.55474785421E-01  0.87287674965E-02  0.76664598659E-01  0.51100000000E-03 0. -1.
         11    1    4    4    0    0 -0.37667813498E-01 -0.37230868722E-01 -0.10248994930E-01  0.53947240686E-01  0.51100000000E-03 0.  1.
</event>
<event>
 8    1  0.1060404E+005  0.1043930E+01  0.7957747E-01            NaN
         13   -1    0    0    0    0  0.00000000000E+00  0.00000000000E+00  0.74505805969E-08  0.10566000000E+00  0.10566000000E+00 0.  1.
     999900   -1    0    0    0    0 -0.00000000000E+00 -0.00000000000E+00 -0.74505805969E-08  0.93827000000E+00  0.93827000000E+00 0.  1.
     999902    2    1    2    0    0 -0.17426257538E-01 -0.73011474405E-02 -0.14312223542E-01  0.10202272375E+01  0.10199518593E+01 0.  0.
     999903    2    3    3    0    0  0.12259294459E-01  0.11366102872E+00 -0.59209839102E-01  0.13032337984E+00  0.20230139311E-01 0.  0.
         14    1    1    2    0    0  0.17426257538E-01  0.73011474405E-02  0.14312223542E-01  0.23702762464E-01  0.00000000000E+00 0.  1.
     999901    1    3    3    0    0 -0.29685551997E-01 -0.12096217616E+00  0.44897615560E-01  0.88990385770E+00  0.88000000000E+00 0.  1.
        -11    1    4    4    0    0  0.70327363972E-02  0.10540597613E+00 -0.57854221267E-01  0.12044605109E+00  0.51100000000E-03 0.  1.
         11    1    4    4    0    0  0.52265580617E-02  0.82550525916E-02 -0.13556178342E-02  0.98773287469E-02  0.51100000000E-03 0. -1.
</event>
<event>
 8    1  0.1060404E+005  0.1043930E+01  0.7957747E-01            NaN
         13   -1    0    0    0    0  0.00000000000E+00  0.00000000000E+00  0.74505805969E-08  0.10566000000E+00  0.10566000000E+00 0. -1.
     999900   -1    0    0    0    0 -0.00000000000E+00 -0.00000000000E+00 -0.74505805969E-08  0.93827000000E+00  0.93827000000E+00 0. -1.
     999902    2    1    2    0    0 -0.10393875757E-01  0.20508845994E-01 -0.35964724244E-02  0.10206581279E+01  0.10203927842E+01 0.  0.
     999903    2    3    3    0    0 -0.11940635164E-02 -0.12683007523E+00 -0.21117227442E-02  0.12836019630E+00  0.19610885988E-01 0.  0.
         14    1    1    2    0    0  0.10393875757E-01 -0.20508845994E-01  0.35964724244E-02  0.23271872102E-01  0.00000000000E+00 0. -1.
     999901    1    3    3    0    0 -0.91998122403E-02  0.14733892123E+00 -0.14847496802E-02  0.89229793160E+00  0.88000000000E+00 0.  1.
        -11    1    4    4    0    0 -0.95730202840E-02 -0.92290549835E-01 -0.22687641135E-02  0.92814851817E-01  0.51100000000E-03 0. -1.
         11    1    4    4    0    0  0.83789567676E-02 -0.34539525400E-01  0.15704136922E-03  0.35545344482E-01  0.51100000000E-03 0.  1.
</event>
<event>
 8    1  0.1060404E+005  0.1043930E+01  0.7957747E-01            NaN
         13   -1    0    0    0    0  0.00000000000E+00  0.00000000000E+00  0.74505805969E-08  0.10566000000E+00  0.10566000000E+00 0.  1.
     999900   -1    0    0    0    0 -0.00000000000E+00 -0.00000000000E+00 -0.74505805969E-08  0.93827000000E+00  0.93827000000E+00 0. -1.
     999902    2    1    2    0    0 -0.66743327163E-02  0.22809206445E-01 -0.28051459407E-03  0.10201626841E+01  0.10198857861E+01 0.  0.
     999903    2    3    3    0    0  0.10082341939E+00  0.66463582118E-01  0.47251574630E-01  0.13127530614E+00  0.20438323113E-01 0.  0.
         14    1    1    2    0    0  0.66743327163E-02 -0.22809206445E-01  0.28051459407E-03  0.23767315883E-01  0.00000000000E+00 0.  1.
     999901    1    3    3    0    0 -0.10749775210E+00 -0.43654375673E-01 -0.47532089224E-01  0.88888737798E+00  0.88000000000E+00 0. -1.
        -11    1    4    4    0    0  0.35240740464E-01  0.15987737557E-01  0.73263174033E-02  0.39388495634E-01  0.51100000000E-03 0. -1.
         11    1    4    4    0    0  0.65582678924E-01  0.50475844561E-01  0.39925257227E-01  0.91886810504E-01  0.51100000000E-03 0.  1.
</event>
<event>
 8    1  0.1060404E+005  0.1043930E+01  0.7957747E-01            NaN
         13   -1    0    0    0    0  0.00000000000E+00  0.00000000000E+00  0.74505805969E-08  0.10566000000E+00  0.10566000000E+00 0.  1.
     999900   -1    0    0    0    0 -0.00000000000E+00 -0.00000000000E+00 -0.74505805969E-08  0.93827000000E+00  0.93827000000E+00 0.  1.
     999902    2    1    2    0    0 -0.12330054665E-01 -0.13561147366E-01 -0.14501035131E-01  0.10205587573E+01  0.10202911163E+01 0.  0.
     999903    2    3    3    0    0 -0.76430374032E-01  0.98102558664E-01 -0.35825339686E-01  0.13093391493E+00  0.19862553285E-01 0.  0.
         14    1    1    2    0    0  0.12330054665E-01  0.13561147366E-01  0.14501035131E-01  0.23371242710E-01  0.00000000000E+00 0. -1.
     999901    1    3    3    0    0  0.64100319367E-01 -0.11166370603E+00  0.21324304555E-01  0.88962484236E+00  0.88000000000E+00 0. -1.
        -11    1    4    4    0    0 -0.25985346013E-01  0.29786897764E-01 -0.21908276081E-02  0.39592402459E-01  0.51100000000E-03 0.  1.
         11    1    4    4    0    0 -0.50445028019E-01  0.68315660900E-01 -0.33634512078E-01  0.91341512467E-01  0.51100000000E-03 0. -1.
</event>
<event>
 8    1  0.1060404E+005  0.1043930E+01  0.7957747E-01            NaN
         13   -1    0    0    0    0  0.00000000000E+00  0.00000000000E+00  0.74505805969E-08  0.10566000000E+00  0.10566000000E+00 0.  1.
     999900   -1    0    0    0    0 -0.00000000000E+00 -0.00000000000E+00 -0.74505805969E-08  0.93827000000E+00  0.93827000000E+00 0.  1.
     999902    2    1    2    0    0 -0.23964080957E-02 -0.53339357712E-03  0.23141775723E-01  0.10206583635E+01  0.10203930252E+01 0.  0.
     999903    2    3    3    0    0  0.11389690104E+00  0.25268368476E-01 -0.52528153724E-01  0.12941439979E+00  0.19439275379E-01 0.  0.
         14    1    1    2    0    0  0.23964080957E-02  0.53339357712E-03 -0.23141775723E-01  0.23271636472E-01  0.00000000000E+00 0. -1.
     999901    1    3    3    0    0 -0.11629330914E+00 -0.25801762053E-01  0.75669929447E-01  0.89124396374E+00  0.88000000000E+00 0. -1.
        -11    1    4    4    0    0  0.11016398504E+00  0.27448726039E-01 -0.52443473347E-01  0.12506044610E+00  0.51100000000E-03 0. -1.
         11    1    4    4    0    0  0.37329160045E-02 -0.21803575629E-02 -0.84680377126E-04  0.43539536935E-02  0.51100000000E-03 0.  1.
</event>
<event>
 8    1  0.1060404E+005  0.1043930E+01  0.7957747E-01            NaN
         13   -1    0    0    0    0  0.00000000000E+00  0.00000000000E+00  0.74505805969E-08  0.10566000000E+00  0.10566000000E+00 0. -1.
     999900   -1    0    0    0    0 -0.00000000000E+00 -0.00000000000E+00 -0.74505805969E-08  0.93827000000E+00  0.93827000000E+00 0. -1.
     999902    2    1    2    0    0  0.24626709876E-01  0.27711969434E-02  0.55446811545E-02  0.10185351607E+01  0.10182185305E+01 0.  0.
     999903    2    3    3    0    0 -0.49499887108E-01 -0.11461230929E+00  0.12465119881E-01  0.12762465323E+00  0.23376326398E-01 0.  0.
         14    1    1    2    0    0 -0.24626709876E-01 -0.27711969434E-02 -0.55446811545E-02  0.25394839258E-01  0.00000000000E+00 0.  1.
     999901    1    3    3    0    0  0.74126596984E-01  0.11738350623E+00 -0.69204387268E-02  0.89091050751E+00  0.88000000000E+00 0. -1.
        -11    1    4    4    0    0 -0.21006606039E-01 -0.46665282025E-01 -0.63731993987E-02  0.51573295757E-01  0.51100000000E-03 0.  1.
         11    1    4    4    0    0 -0.28493281069E-01 -0.67947027262E-01  0.18838319280E-01  0.76051357477E-01  0.51100000000E-03 0. -1.
</event>
<event>
 8    1  0.1060404E+005  0.1043930E+01  0.7957747E-01            NaN
         13   -1    0    0    0    0  0.00000000000E+00  0.00000000000E+00  0.74505805969E-08  0.10566000000E+00  0.10566000000E+00 0. -1.
     999900   -1    0    0    0    0 -0.00000000000E+00 -0.00000000000E+00 -0.74505805969E-08  0.93827000000E+00  0.93827000000E+00 0.  1.
     999902    2    1    2    0    0 -0.89467232120E-02  0.69661360956E-02  0.20509490135E-01  0.10204947681E+01  0.10202256425E+01 0.  0.
     999903    2    3    3    0    0  0.65058523018E-01 -0.30914923375E-01  0.10901321766E+00  0.13215662251E+00  0.19827943498E-01 0.  0.
         14    1    1    2    0    0  0.89467232120E-02 -0.69661360956E-02 -0.20509490135E-01  0.23435231894E-01  0.00000000000E+00 0.  1.
     999901    1    3    3    0    0 -0.74005246230E-01  0.37881059471E-01 -0.88503727527E-01  0.88833814560E+00  0.88000000000E+00 0. -1.
        -11    1    4    4    0    0  0.51826979831E-01 -0.14961822067E-01  0.77022080413E-01  0.94034854974E-01  0.51100000000E-03 0.  1.
         11    1    4    4    0    0  0.13231543187E-01 -0.15953101308E-01  0.31991137249E-01  0.38121767535E-01  0.51100000000E-03 0. -1.
</event>
<event>
 8    1  0.1060404E+005  0.1043930E+01  0.7957747E-01            NaN
         13   -1    0    0    0    0  0.00000000000E+00  0.00000000000E+00  0.74505805969E-08  0.10566000000E+00  0.10566000000E+00 0.  1.
     999900   -1    0    0    0    0 -0.00000000000E+00 -0.00000000000E+00 -0.74505805969E-08  0.93827000000E+00  0.93827000000E+00 0.  1.
     999902    2    1    2    0    0  0.47726533470E-02 -0.20747035498E-01 -0.98645686387E-02  0.10204666793E+01  0.10201969007E+01 0.  0.
     999903    2    3    3    0    0  0.87082560445E-01 -0.93406958730E-01 -0.33682482218E-01  0.13332425658E+00  0.18237749646E-01 0.  0.
         14    1    1    2    0    0 -0.47726533470E-02  0.20747035498E-01  0.98645686387E-02  0.23463320659E-01  0.00000000000E+00 0.  1.
     999901    1    3    3    0    0 -0.82309907098E-01  0.72659923232E-01  0.23817913580E-01  0.88714242276E+00  0.88000000000E+00 0.  1.
        -11    1    4    4    0    0  0.49587859890E-01 -0.40901861571E-01 -0.13128848230E-01  0.65609038289E-01  0.51100000000E-03 0.  1.
         11    1    4    4    0    0  0.37494700555E-01 -0.52505097159E-01 -0.20553633988E-01  0.67715218293E-01  0.51100000000E-03 0. -1.
</event>
<event>
 8    1  0.1060404E+005  0.1043930E+01  0.7957747E-01            NaN
         13   -1    0    0    0    0  0.00000000000E+00  0.00000000000E+00  0.74505805969E-08  0.10566000000E+00  0.10566000000E+00 0.  1.
     999900   -1    0    0    0    0 -0.00000000000E+00 -0.00000000000E+00 -0.74505805969E-08  0.93827000000E+00  0.93827000000E+00 0. -1.
     999902    2    1    2    0    0  0.21292193908E-01 -0.70233799142E-02 -0.86763209982E-02  0.10198891195E+01  0.10196057337E+01 0.  0.
     999903    2    3    3    0    0 -0.10246706200E+00  0.66087778074E-01 -0.32946639548E-01  0.12789660657E+00  0.20123809517E-01 0.  0.
         14    1    1    2    0    0 -0.21292193908E-01  0.70233799142E-02  0.86763209982E-02  0.24040880452E-01  0.00000000000E+00 0.  1.
     999901    1    3    3    0    0  0.12375925591E+00 -0.73111157988E-01  0.24270318550E-01  0.89199251298E+00  0.88000000000E+00 0. -1.
        -11    1    4    4    0    0 -0.87112243527E-02  0.13409028677E-01 -0.31962298225E-02  0.16314548288E-01  0.51100000000E-03 0. -1.
         11    1    4    4    0    0 -0.93755837645E-01  0.52678749397E-01 -0.29750409726E-01  0.11158205828E+00  0.51100000000E-03 0.  1.
</event>
<event>
 8    1  0.1501001E+005  0.1043930E+01  0.7957747E-01            NaN
         13   -1    0    0    0    0  0.00000000000E+00  0.00000000000E+00  0.74505805969E-08  0.10566000000E+00  0.10566000000E+00 0.  1.
     999900   -1    0    0    0    0 -0.00000000000E+00 -0.00000000000E+00 -0.74505805969E-08  0.93827000000E+00  0.93827000000E+00 0.  1.
     999902    2    1    2    0    0 -0.21562787657E-01 -0.31398361965E-02  0.24727610338E-02  0.10219999537E+01  0.10217646395E+01 0.  0.
     999903    2    3    3    0    0  0.18092810335E-01  0.42521382438E-01 -0.12052533126E+00  0.13139002561E+00  0.24526834335E-01 0.  0.
         14    1    1    2    0    0  0.21562787657E-01  0.31398361965E-02 -0.24727610338E-02  0.21930046283E-01  0.00000000000E+00 0. -1.
     999901    1    3    3    0    0 -0.39655597992E-01 -0.45661218635E-01  0.12299809230E+00  0.89060992811E+00  0.88000000000E+00 0. -1.
        -11    1    4    4    0    0  0.88053232230E-02  0.31810072603E-01 -0.53378550063E-01  0.62761016275E-01  0.51100000000E-03 0.  1.
         11    1    4    4    0    0  0.92874871120E-02  0.10711309835E-01 -0.67146781201E-01  0.68629009332E-01  0.51100000000E-03 0. -1.
</event>
<event>
 8    1  0.1060404E+005  0.1043930E+01  0.7957747E-01            NaN
         13   -1    0    0    0    0  0.00000000000E+00  0.00000000000E+00  0.74505805969E-08  0.10566000000E+00  0.10566000000E+00 0.  1.
     999900   -1    0    0    0    0 -0.00000000000E+00 -0.00000000000E+00 -0.74505805969E-08  0.93827000000E+00  0.93827000000E+00 0.  1.
     999902    2    1    2    0    0  0.23788374376E-01  0.49976746302E-03  0.33081349449E-02  0.10199075047E+01  0.10196245573E+01 0.  0.
     999903    2    3    3    0    0  0.78794342664E-01  0.17335339671E-01 -0.10252346926E+00  0.13170177320E+00  0.18034214130E-01 0.  0.
         14    1    1    2    0    0 -0.23788374376E-01 -0.49976746302E-03 -0.33081349449E-02  0.24022495287E-01  0.00000000000E+00 0.  1.
     999901    1    3    3    0    0 -0.55005968288E-01 -0.16835572208E-01  0.10583160420E+00  0.88820573151E+00  0.88000000000E+00 0. -1.
        -11    1    4    4    0    0  0.67478778242E-01  0.19568182351E-01 -0.80604707632E-01  0.10692838392E+00  0.51100000000E-03 0.  1.
         11    1    4    4    0    0  0.11315564422E-01 -0.22328426806E-02 -0.21918761624E-01  0.24773389287E-01  0.51100000000E-03 0. -1.
</event>
<event>
 8    1  0.1060404E+005  0.1043930E+01  0.7957747E-01            NaN
         13   -1    0    0    0    0  0.00000000000E+00  0.00000000000E+00  0.74505805969E-08  0.10566000000E+00  0.10566000000E+00 0. -1.
     999900   -1    0    0    0    0 -0.00000000000E+00 -0.00000000000E+00 -0.74505805969E-08  0.93827000000E+00  0.93827000000E+00 0.  1.
     999902    2    1    2    0    0  0.15648191614E-02  0.22664840918E-01  0.63274185108E-02  0.10203465334E+01  0.10200739524E+01 0.  0.
     999903    2    3    3    0    0  0.10328646135E+00  0.32995632140E-01 -0.70704262842E-01  0.13108397504E+00  0.20666661304E-01 0.  0.
         14    1    1    2    0    0 -0.15648191614E-02 -0.22664840918E-01 -0.63274185108E-02  0.23583466621E-01  0.00000000000E+00 0.  1.
     999901    1    3    3    0    0 -0.10172164219E+00 -0.10330791222E-01  0.77031681353E-01  0.88926255834E+00  0.88000000000E+00 0. -1.
        -11    1    4    4    0    0  0.40235241871E-01  0.37354754844E-02 -0.20319868146E-01  0.45232583698E-01  0.51100000000E-03 0.  1.
         11    1    4    4    0    0  0.63051219477E-01  0.29260156656E-01 -0.50384394696E-01  0.85851391340E-01  0.51100000000E-03 0. -1.
</event>
<event>
 8    1  0.1060404E+005  0.1043930E+01  0.7957747E-01            NaN
         13   -1    0    0    0    0  0.00000000000E+00  0.00000000000E+00  0.74505805969E-08  0.10566000000E+00  0.10566000000E+00 0. -1.
     999900   -1    0    0    0    0 -0.00000000000E+00 -0.00000000000E+00 -0.74505805969E-08  0.93827000000E+00  0.93827000000E+00 0.  1.
     999902    2    1    2    0    0 -0.13795062543E-01  0.19189880286E-01 -0.39767570917E-02  0.10199639855E+01  0.10196823828E+01 0.  0.
     999903    2    3    3    0    0  0.37790604613E-01  0.11179591551E+00  0.54863220414E-01  0.13165148314E+00  0.19891795736E-01 0.  0.
         14    1    1    2    0    0  0.13795062543E-01 -0.19189880286E-01  0.39767570917E-02  0.23966014540E-01  0.00000000000E+00 0.  1.
     999901    1    3    3    0    0 -0.51585667156E-01 -0.92606035227E-01 -0.58839977506E-01  0.88831250232E+00  0.88000000000E+00 0.  1.
        -11    1    4    4    0    0  0.30440939311E-01  0.64681158448E-01  0.26975764150E-01  0.76408481314E-01  0.51100000000E-03 0.  1.
         11    1    4    4    0    0  0.73496653021E-02  0.47114757066E-01  0.27887456264E-01  0.55243001831E-01  0.51100000000E-03 0. -1.
</event>
<event>
 8    1  0.1060404E+005  0.1043930E+01  0.7957747E-01            NaN
         13   -1    0    0    0    0  0.00000000000E+00  0.00000000000E+00  0.74505805969E-08  0.10566000000E+00  0.10566000000E+00 0. -1.
     999900   -1    0    0    0    0 -0.00000000000E+00 -0.00000000000E+00 -0.74505805969E-08  0.93827000000E+00  0.93827000000E+00 0.  1.
     999902    2    1    2    0    0  0.62563268677E-02 -0.23562719245E-02 -0.22850612425E-01  0.10201215114E+01  0.10198436418E+01 0.  0.
     999903    2    3    3    0    0 -0.79870978101E-01  0.53323367996E-01  0.82328621606E-01  0.12794394706E+00  0.19206689895E-01 0.  0.
         14    1    1    2    0    0 -0.62563268677E-02  0.23562719245E-02  0.22850612425E-01  0.23808488643E-01  0.00000000000E+00 0. -1.
     999901    1    3    3    0    0  0.86127304969E-01 -0.55679639921E-01 -0.10517923403E+00  0.89217756430E+00  0.88000000000E+00 0. -1.
        -11    1    4    4    0    0 -0.22075637195E-01  0.12067936419E-01  0.11566548198E-01  0.27695035750E-01  0.51100000000E-03 0. -1.
         11    1    4    4    0    0 -0.57795340906E-01  0.41255431577E-01  0.70762073407E-01  0.10024891131E+00  0.51100000000E-03 0.  1.
</event>
<event>
 8    1  0.1060404E+005  0.1043930E+01  0.7957747E-01            NaN
         13   -1    0    0    0    0  0.00000000000E+00  0.00000000000E+00  0.74505805969E-08  0.10566000000E+00  0.10566000000E+00 0. -1.
     999900   -1    0    0    0    0 -0.00000000000E+00 -0.00000000000E+00 -0.74505805969E-08  0.93827000000E+00  0.93827000000E+00 0. -1.
     999902    2    1    2    0    0 -0.35240758574E-02 -0.55768257353E-02 -0.23325632359E-01  0.10196894303E+01  0.10194012600E+01 0.  0.
     999903    2    3    3    0    0  0.48162608707E-01  0.23469346695E-01 -0.11927586513E+00  0.13249066975E+00  0.21368164586E-01 0.  0.
         14    1    1    2    0    0  0.35240758574E-02  0.55768257353E-02  0.23325632359E-01  0.24240569731E-01  0.00000000000E+00 0. -1.
     999901    1    3    3    0    0 -0.51686684564E-01 -0.29046172431E-01  0.95950232769E-01  0.88719876052E+00  0.88000000000E+00 0.  1.
        -11    1    4    4    0    0  0.16507437656E-01  0.19825062286E-01 -0.52185003085E-01  0.58215670232E-01  0.51100000000E-03 0.  1.
         11    1    4    4    0    0  0.31655171051E-01  0.36442844093E-02 -0.67090862043E-01  0.74274999521E-01  0.51100000000E-03 0. -1.
</event>
<event>
 8    1  0.1060404E+005  0.1043930E+01  0.7957747E-01            NaN
         13   -1    0    0    0    0  0.00000000000E+00  0.00000000000E+00  0.74505805969E-08  0.10566000000E+00  0.10566000000E+00 0.  1.
     999900   -1    0    0    0    0 -0.00000000000E+00 -0.00000000000E+00 -0.74505805969E-08  0.93827000000E+00  0.93827000000E+00 0. -1.
     999902    2    1    2    0    0  0.57026300216E-02 -0.95816645497E-02 -0.21098562235E-01  0.10200662699E+01  0.10197870942E+01 0.  0.
     999903    2    3    3    0    0  0.56431063887E-01  0.18099066941E-01 -0.11727719599E+00  0.13294174288E+00  0.20187251067E-01 0.  0.
         14    1    1    2    0    0 -0.57026300216E-02  0.95816645497E-02  0.21098562235E-01  0.23863730075E-01  0.00000000000E+00 0.  1.
     999901    1    3    3    0    0 -0.50728433865E-01 -0.27680731490E-01  0.96178633751E-01  0.88712452705E+00  0.88000000000E+00 0.  1.
        -11    1    4    4    0    0  0.28534438767E-01  0.14610941930E-01 -0.43899846750E-01  0.54361305039E-01  0.51100000000E-03 0.  1.
         11    1    4    4    0    0  0.27896625120E-01  0.34881250107E-02 -0.73377349236E-01  0.78580437839E-01  0.51100000000E-03 0. -1.
</event>
<event>
 8    1  0.1630188E+005  0.1043930E+01  0.7957747E-01            NaN
         13   -1    0    0    0    0  0.00000000000E+00  0.00000000000E+00  0.74505805969E-08  0.10566000000E+00  0.10566000000E+00 0.  1.
     999900   -1    0    0    0    0 -0.00000000000E+00 -0.00000000000E+00 -0.74505805969E-08  0.93827000000E+00  0.93827000000E+00 0. -1.
     999902    2    1    2    0    0 -0.19223889740E-01  0.16052411641E-01  0.41032036448E-02  0.10185513843E+01  0.10182351635E+01 0.  0.
     999903    2    3    3    0    0 -0.25740827135E-01  0.12574034430E-01 -0.12442257776E+00  0.12918450493E+00  0.19671348031E-01 0.  0.
         14    1    1    2    0    0  0.19223889740E-01 -0.16052411641E-01 -0.41032036448E-02  0.25378615730E-01  0.00000000000E+00 0. -1.
     999901    1    3    3    0    0  0.65169373944E-02  0.34783772108E-02  0.12852578141E+00  0.88936687934E+00  0.88000000000E+00 0.  1.
        -11    1    4    4    0    0 -0.64729358624E-02  0.13986103967E-01 -0.56332534155E-01  0.58404841650E-01  0.51100000000E-03 0. -1.
         11    1    4    4    0    0 -0.19267891272E-01 -0.14120695368E-02 -0.68090043608E-01  0.70779663280E-01  0.51100000000E-03 0.  1.
</event>
<event>
 8    1  0.1060404E+005  0.1043930E+01  0.7957747E-01            NaN
         13   -1    0    0    0    0  0.00000000000E+00  0.00000000000E+00  0.74505805969E-08  0.10566000000E+00  0.10566000000E+00 0. -1.
     999900   -1    0    0    0    0 -0.00000000000E+00 -0.00000000000E+00 -0.74505805969E-08  0.93827000000E+00  0.93827000000E+00 0. -1.
     999902    2    1    2    0    0 -0.12979349522E-01 -0.16730600323E-01 -0.96586733422E-02  0.10206562708E+01  0.10203908842E+01 0.  0.
     999903    2    3    3    0    0  0.12198158108E+00  0.37404805263E-01 -0.15031444577E-02  0.12868563921E+00  0.16706547067E-01 0.  0.
         14    1    1    2    0    0  0.12979349522E-01  0.16730600323E-01  0.96586733422E-02  0.23273729222E-01  0.00000000000E+00 0.  1.
     999901    1    3    3    0    0 -0.13496093061E+00 -0.54135405587E-01 -0.81555288844E-02  0.89197063157E+00  0.88000000000E+00 0. -1.
        -11    1    4    4    0    0  0.82002129628E-01  0.28967292003E-01 -0.78877291287E-02  0.87326574771E-01  0.51100000000E-03 0.  1.
         11    1    4    4    0    0  0.39979451457E-01  0.84375132598E-02  0.63845846710E-02  0.41359064438E-01  0.51100000000E-03 0. -1.
</event>
<event>
 8    1  0.1926647E+005  0.1043930E+01  0.7957747E-01            NaN
         13   -1    0    0    0    0  0.00000000000E+00  0.00000000000E+00  0.74505805969E-08  0.10566000000E+00  0.10566000000E+00 0.  1.
     999900   -1    0    0    0    0 -0.00000000000E+00 -0.00000000000E+00 -0.74505805969E-08  0.93827000000E+00  0.93827000000E+00 0.  1.
     999902    2    1    2    0    0  0.24280953576E-01  0.16098250435E-02 -0.20510474394E-02  0.10195094546E+01  0.10192169371E+01 0.  0.
     999903    2    3    3    0    0  0.43927958235E-01 -0.58551621881E-01 -0.10690868486E+00  0.13102730584E+00  0.19512304835E-01 0.  0.
         14    1    1    2    0    0 -0.24280953576E-01 -0.16098250435E-02  0.20510474394E-02  0.24420545425E-01  0.00000000000E+00 0. -1.
     999901    1    3    3    0    0 -0.19647004659E-01  0.60161446924E-01  0.10485763742E+00  0.88848214873E+00  0.88000000000E+00 0. -1.
        -11    1    4    4    0    0  0.95974669589E-02 -0.26213483484E-01 -0.48393805898E-01  0.55870203675E-01  0.51100000000E-03 0.  1.
         11    1    4    4    0    0  0.34330491276E-01 -0.32338138397E-01 -0.58514878957E-01  0.75157102170E-01  0.51100000000E-03 0. -1.
</event>
<event>
 8    1  0.1060404E+005  0.1043930E+01  0.7957747E-01            NaN
         13   -1    0    0    0    0  0.00000000000E+00  0.00000000000E+00  0.74505805969E-08  0.10566000000E+00  0.10566000000E+00 0. -1.
     999900   -1    0    0    0    0 -0.00000000000E+00 -0.00000000000E+00 -0.74505805969E-08  0.93827000000E+00  0.93827000000E+00 0.  1.
     999902    2    1    2    0    0  0.57475707858E-02  0.70077980028E-02 -0.21708081000E-01  0.10204058723E+01  0.10201346772E+01 0.  0.
     999903    2    3    3    0    0  0.10301303826E+00  0.71032377851E-01 -0.40768227095E-01  0.13253031394E+00  0.15650911085E-01 0.  0.
         14    1    1    2    0    0 -0.57475707858E-02 -0.70077980028E-02  0.21708081000E-01  0.23524127688E-01  0.00000000000E+00 0. -1.
     999901    1    3    3    0    0 -0.97265467473E-01 -0.64024579848E-01  0.19060146095E-01  0.88787555837E+00  0.88000000000E+00 0. -1.
        -11    1    4    4    0    0  0.34452820707E-01  0.32140023555E-01 -0.12039166052E-01  0.48633122551E-01  0.51100000000E-03 0.  1.
         11    1    4    4    0    0  0.68560217552E-01  0.38892354295E-01 -0.28729061043E-01  0.83897191388E-01  0.51100000000E-03 0. -1.
</event>
<event>
 8    1  0.1060404E+005  0.1043930E+01  0.7957747E-01            NaN
         13   -1    0    0    0    0  0.00000000000E+00  0.00000000000E+00  0.74505805969E-08  0.10566000000E+00  0.10566000000E+00 0. -1.
     999900   -1    0    0    0    0 -0.00000000000E+00 -0.00000000000E+00 -0.74505805969E-08  0.93827000000E+00  0.93827000000E+00 0. -1.
     999902    2    1    2    0    0 -0.14211240307E-01  0.16964941562E-01  0.99569749120E-02  0.10196625332E+01  0.10193737155E+01 0.  0.
     999903    2    3    3    0    0  0.21396160410E-01  0.38894414291E-01  0.12218341224E+00  0.13155017437E+00  0.20151699809E-01 0.  0.
         14    1    1    2    0    0  0.14211240307E-01 -0.16964941562E-01 -0.99569749120E-02  0.24267466755E-01  0.00000000000E+00 0.  1.
     999901    1    3    3    0    0 -0.35607400717E-01 -0.21929472729E-01 -0.11222643733E+00  0.88811235888E+00  0.88000000000E+00 0. -1.
        -11    1    4    4    0    0  0.72693199976E-03  0.57107404639E-02  0.41414659639E-01  0.41815979491E-01  0.51100000000E-03 0. -1.
         11    1    4    4    0    0  0.20669228410E-01  0.33183673828E-01  0.80768752603E-01  0.89734194874E-01  0.51100000000E-03 0.  1.
</event>
<event>
 8    1  0.1060404E+005  0.1043930E+01  0.7957747E-01            NaN
         13   -1    0    0    0    0  0.00000000000E+00  0.00000000000E+00  0.74505805969E-08  0.10566000000E+00  0.10566000000E+00 0. -1.
     999900   -1    0    0    0    0 -0.00000000000E+00 -0.00000000000E+00 -0.74505805969E-08  0.93827000000E+00  0.93827000000E+00 0. -1.
     999902    2    1    2    0    0 -0.28369491280E-02 -0.78950448824E-02 -0.22024438953E-01  0.10203618875E+01  0.10200896655E+01 0.  0.
     999903    2    3    3    0    0 -0.64366780162E-01  0.20129214459E-01 -0.11305551973E+00  0.13308631766E+00  0.19548650716E-01 0.  0.
         14    1    1    2    0    0  0.28369491280E-02  0.78950448824E-02  0.22024438953E-01  0.23568112466E-01  0.00000000000E+00 0. -1.
     999901    1    3    3    0    0  0.61529831034E-01 -0.28024259342E-01  0.91031080778E-01  0.88727556987E+00  0.88000000000E+00 0.  1.
        -11    1    4    4    0    0 -0.10964339932E-01  0.57577409942E-02 -0.37198999355E-01  0.39209628990E-01  0.51100000000E-03 0.  1.
         11    1    4    4    0    0 -0.53402440230E-01  0.14371473465E-01 -0.75856520375E-01  0.93876688675E-01  0.51100000000E-03 0. -1.
</event>
<event>
 8    1  0.1060404E+005  0.1043930E+01  0.7957747E-01            NaN
         13   -1    0    0    0    0  0.00000000000E+00  0.00000000000E+00  0.74505805969E-08  0.10566000000E+00  0.10566000000E+00 0.  1.
     999900   -1    0    0    0    0 -0.00000000000E+00 -0.00000000000E+00 -0.74505805969E-08  0.93827000000E+00  0.93827000000E+00 0. -1.
     999902    2    1    2    0    0  0.65439965981E-03 -0.14388431363E-02  0.24062596162E-01  0.10198155429E+01  0.10195303990E+01 0.  0.
     999903    2    3    3    0    0  0.60430849876E-01 -0.41642841400E-01  0.10835610561E+00  0.13285726809E+00  0.22890919680E-01 0.  0.
         14    1    1    2    0    0 -0.65439965981E-03  0.14388431363E-02 -0.24062596162E-01  0.24114457127E-01  0.00000000000E+00 0. -1.
     999901    1    3    3    0    0 -0.59776450216E-01  0.40203998264E-01 -0.84293509449E-01  0.88695827479E+00  0.88000000000E+00 0. -1.
        -11    1    4    4    0    0  0.24278835602E-01 -0.13337109050E-01  0.60461811044E-01  0.66507383438E-01  0.51100000000E-03 0. -1.
         11    1    4    4    0    0  0.36152014274E-01 -0.28305732350E-01  0.47894294566E-01  0.66349884649E-01  0.51100000000E-03 0.  1.
</event>
<event>
 8    1  0.1060404E+005  0.1043930E+01  0.7957747E-01            NaN
         13   -1    0    0    0    0  0.00000000000E+00  0.00000000000E+00  0.74505805969E-08  0.10566000000E+00  0.10566000000E+00 0. -1.
     999900   -1    0    0    0    0 -0.00000000000E+00 -0.00000000000E+00 -0.74505805969E-08  0.93827000000E+00  0.93827000000E+00 0.  1.
     999902    2    1    2    0    0 -0.15071906646E-01 -0.17882986038E-02  0.16701816882E-01  0.10213620788E+01  0.10211127190E+01 0.  0.
     999903    2    3    3    0    0  0.70697869362E-02 -0.11729735895E+00 -0.53665713254E-01  0.13075319327E+00  0.20192485417E-01 0.  0.
         14    1    1    2    0    0  0.15071906646E-01  0.17882986038E-02 -0.16701816882E-01  0.22567921238E-01  0.00000000000E+00 0.  1.
     999901    1    3    3    0    0 -0.22141693582E-01  0.11550906035E+00  0.70367530136E-01  0.89060888549E+00  0.88000000000E+00 0. -1.
        -11    1    4    4    0    0  0.12144480248E-01 -0.40976178506E-01 -0.19183923670E-01  0.46848902376E-01  0.51100000000E-03 0. -1.
         11    1    4    4    0    0 -0.50746933114E-02 -0.76321180445E-01 -0.34481789584E-01  0.83904290896E-01  0.51100000000E-03 0.  1.
</event>
<event>
 8    1  0.1209712E+005  0.1043930E+01  0.7957747E-01            NaN
         13   -1    0    0    0    0  0.00000000000E+00  0.00000000000E+00  0.74505805969E-08  0.10566000000E+00  0.10566000000E+00 0.  1.
     999900   -1    0    0    0    0 -0.00000000000E+00 -0.00000000000E+00 -0.74505805969E-08  0.93827000000E+00  0.93827000000E+00 0. -1.
     999902    2    1    2    0    0  0.16554720812E-02 -0.20159081286E-01 -0.15347590396E-01  0.10185394963E+01  0.10182229755E+01 0.  0.
     999903    2    3    3    0    0  0.10643710378E-01  0.10764996631E+00 -0.65531002003E-01  0.12784633037E+00  0.18669979877E-01 0.  0.
         14    1    1    2    0    0 -0.16554720812E-02  0.20159081286E-01  0.15347590396E-01  0.25390503679E-01  0.00000000000E+00 0.  1.
     999901    1    3    3    0    0 -0.89882382965E-02 -0.12780904759E+00  0.50183411607E-01  0.89069316595E+00  0.88000000000E+00 0.  1.
        -11    1    4    4    0    0 -0.31404718560E-03  0.36643829229E-01 -0.13172844318E-01  0.38944239556E-01  0.51100000000E-03 0.  1.
         11    1    4    4    0    0  0.10957757563E-01  0.71006137078E-01 -0.52358157685E-01  0.88902090812E-01  0.51100000000E-03 0. -1.
</event>
<event>
 8    1  0.1060404E+005  0.1043930E+01  0.7957747E-01            NaN
         13   -1    0    0    0    0  0.00000000000E+00  0.00000000000E+00  0.74505805969E-08  0.10566000000E+00  0.10566000000E+00 0. -1.
     999900   -1    0    0    0    0 -0.00000000000E+00 -0.00000000000E+00 -0.74505805969E-08  0.93827000000E+00  0.93827000000E+00 0. -1.
     999902    2    1    2    0    0  0.22423395401E-01  0.95165364423E-02  0.13780683669E-01  0.10159428535E+01  0.10155572860E+01 0.  0.
     999903    2    3    3    0    0  0.74237506163E-01 -0.34033460813E-01  0.99311447769E-01  0.12920906258E+00  0.12756740156E-01 0.  0.
         14    1    1    2    0    0 -0.22423395401E-01 -0.95165364423E-02 -0.13780683669E-01  0.27987146506E-01  0.00000000000E+00 0. -1.
     999901    1    3    3    0    0 -0.51814110763E-01  0.43549997256E-01 -0.85530764100E-01  0.88673379091E+00  0.88000000000E+00 0. -1.
        -11    1    4    4    0    0  0.31860521366E-01 -0.17781819572E-01  0.53149454884E-01  0.64470238129E-01  0.51100000000E-03 0.  1.
         11    1    4    4    0    0  0.42376984798E-01 -0.16251641241E-01  0.46161992885E-01  0.64738824454E-01  0.51100000000E-03 0. -1.
</event>
<event>
 8    1  0.1060404E+005  0.1043930E+01  0.7957747E-01            NaN
         13   -1    0    0    0    0  0.00000000000E+00  0.00000000000E+00  0.74505805969E-08  0.10566000000E+00  0.10566000000E+00 0.  1.
     999900   -1    0    0    0    0 -0.00000000000E+00 -0.00000000000E+00 -0.74505805969E-08  0.93827000000E+00  0.93827000000E+00 0.  1.
     999902    2    1    2    0    0  0.12366791438E-01 -0.66482543807E-02  0.13123751358E-01  0.10247110077E+01  0.10245307607E+01 0.  0.
     999903    2    3    3    0    0 -0.31537362476E-01 -0.12576240928E+00 -0.30026196342E-01  0.13455502436E+00  0.19816490460E-01 0.  0.
         14    1    1    2    0    0 -0.12366791438E-01  0.66482543807E-02 -0.13123751358E-01  0.19218992338E-01  0.00000000000E+00 0. -1.
     999901    1    3    3    0    0  0.43904153915E-01  0.11911415489E+00  0.43149947700E-01  0.89015598331E+00  0.88000000000E+00 0.  1.
        -11    1    4    4    0    0 -0.16168616062E-01 -0.98004098996E-01 -0.24982492559E-01  0.10242369658E+00  0.51100000000E-03 0.  1.
         11    1    4    4    0    0 -0.15368746415E-01 -0.27758310279E-01 -0.50437037828E-02  0.32131327778E-01  0.51100000000E-03 0. -1.
</event>
<event>
 8    1  0.1060404E+005  0.1043930E+01  0.7957747E-01            NaN
         13   -1    0    0    0    0  0.00000000000E+00  0.00000000000E+00  0.74505805969E-08  0.10566000000E+00  0.10566000000E+00 0. -1.
     999900   -1    0    0    0    0 -0.00000000000E+00 -0.00000000000E+00 -0.74505805969E-08  0.93827000000E+00  0.93827000000E+00 0. -1.
     999902    2    1    2    0    0  0.91760157415E-02  0.21857873835E-01 -0.17191816001E-02  0.10201619227E+01  0.10198850068E+01 0.  0.
     999903    2    3    3    0    0  0.15277685087E-01  0.55603310673E-01 -0.11706054344E+00  0.13197297060E+00  0.19711882630E-01 0.  0.
         14    1    1    2    0    0 -0.91760157415E-02 -0.21857873835E-01  0.17191816001E-02  0.23768077307E-01  0.00000000000E+00 0. -1.
     999901    1    3    3    0    0 -0.61016693459E-02 -0.33745436838E-01  0.11534136184E+00  0.88818895210E+00  0.88000000000E+00 0.  1.
        -11    1    4    4    0    0  0.51230946037E-02  0.16415673866E-01 -0.57013742606E-01  0.59552904327E-01  0.51100000000E-03 0. -1.
         11    1    4    4    0    0  0.10154590484E-01  0.39187636807E-01 -0.60046800839E-01  0.72420066269E-01  0.51100000000E-03 0.  1.
</event>
<event>
 8    1  0.1060404E+005  0.1043930E+01  0.7957747E-01            NaN
         13   -1    0    0    0    0  0.00000000000E+00  0.00000000000E+00  0.74505805969E-08  0.10566000000E+00  0.10566000000E+00 0.  1.
     999900   -1    0    0    0    0 -0.00000000000E+00 -0.00000000000E+00 -0.74505805969E-08  0.93827000000E+00  0.93827000000E+00 0.  1.
     999902    2    1    2    0    0 -0.63292032202E-02  0.23755624280E-01  0.32501485163E-02  0.10191317750E+01  0.10188300265E+01 0.  0.
     999903    2    3    3    0    0 -0.41728992075E-01 -0.10800118273E+00 -0.49251045326E-01  0.12707270934E+00  0.17783243350E-01 0.  0.
         14    1    1    2    0    0  0.63292032202E-02 -0.23755624280E-01 -0.32501485163E-02  0.24798225012E-01  0.00000000000E+00 0. -1.
     999901    1    3    3    0    0  0.35399788854E-01  0.13175680701E+00  0.52501193843E-01  0.89205906564E+00  0.88000000000E+00 0. -1.
        -11    1    4    4    0    0 -0.73997495512E-02 -0.42886610036E-01 -0.17720727827E-01  0.46992583771E-01  0.51100000000E-03 0.  1.
         11    1    4    4    0    0 -0.34329242523E-01 -0.65114572692E-01 -0.31530317500E-01  0.80080125573E-01  0.51100000000E-03 0. -1.
</event>
<event>
 7    1  0.1060404E+005  0.1043930E+01  0.7957747E-01            NaN
         13   -1    0    0    0    0  0.00000000000E+00  0.00000000000E+00  0.74505805969E-08  0.10566000000E+00  0.10566000000E+00 0.  1.
     999900   -1    0    0    0    0 -0.00000000000E+00 -0.00000000000E+00 -0.74505805969E-08  0.93827000000E+00  0.93827000000E+00 0.  1.
     999902    2    1    2    0    0 -0.15122107661E-01 -0.11424175976E-01 -0.13417807420E-01  0.10207087276E+01  0.10204445497E+01 0.  0.
         14    1    1    2    0    0  0.15122107661E-01  0.11424175976E-01  0.13417807420E-01  0.23221272420E-01  0.00000000000E+00 0.  1.
     999901    1    3    3    0    0 -0.83201935279E-01  0.20520497387E-01  0.82483405009E-01  0.88800178206E+00  0.88000000000E+00 0. -1.
        -11    1    3    3    0    0  0.59462113046E-01 -0.68974127431E-02 -0.85213985993E-01  0.10413933801E+00  0.51100000000E-03 0. -1.
         11    1    3    3    0    0  0.86177145722E-02 -0.25047260619E-01 -0.10687226435E-01  0.28567607510E-01  0.51100000000E-03 0.  1.
</event>
<event>
 8    1  0.1060404E+005  0.1043930E+01  0.7957747E-01            NaN
         13   -1    0    0    0    0  0.00000000000E+00  0.00000000000E+00  0.74505805969E-08  0.10566000000E+00  0.10566000000E+00 0.  1.
     999900   -1    0    0    0    0 -0.00000000000E+00 -0.00000000000E+00 -0.74505805969E-08  0.93827000000E+00  0.93827000000E+00 0.  1.
     999902    2    1    2    0    0  0.68999909729E-02 -0.22385640595E-01  0.33512528166E-02  0.10202665751E+01  0.10199921209E+01 0.  0.
     999903    2    3    3    0    0  0.54141652449E-01  0.10991945862E+00 -0.32677482107E-01  0.12839523712E+00  0.20097591012E-01 0.  0.
         14    1    1    2    0    0 -0.68999909729E-02  0.22385640595E-01 -0.33512528166E-02  0.23663424851E-01  0.00000000000E+00 0. -1.
     999901    1    3    3    0    0 -0.47241661476E-01 -0.13230509922E+00  0.36028734924E-01  0.89187133803E+00  0.88000000000E+00 0. -1.
        -11    1    4    4    0    0  0.33492179114E-01  0.48758488779E-01 -0.21128156349E-01  0.62815415317E-01  0.51100000000E-03 0. -1.
         11    1    4    4    0    0  0.20649473336E-01  0.61160969843E-01 -0.11549325758E-01  0.65579821802E-01  0.51100000000E-03 0.  1.
</event>
<event>
 8    1  0.1060404E+005  0.1043930E+01  0.7957747E-01            NaN
         13   -1    0    0    0    0  0.00000000000E+00  0.00000000000E+00  0.74505805969E-08  0.10566000000E+00  0.10566000000E+00 0. -1.
     999900   -1    0    0    0    0 -0.00000000000E+00 -0.00000000000E+00 -0.74505805969E-08  0.93827000000E+00  0.93827000000E+00 0. -1.
     999902    2    1    2    0    0  0.96987738851E-02 -0.16070917111E-01  0.12929027325E-01  0.10211374499E+01  0.10208830449E+01 0.  0.
     999903    2    3    3    0    0  0.12276545015E+00  0.40127791066E-01 -0.13414264100E-01  0.13173521410E+00  0.22195242432E-01 0.  0.
         14    1    1    2    0    0 -0.96987738851E-02  0.16070917111E-01 -0.12929027325E-01  0.22792550082E-01  0.00000000000E+00 0. -1.
     999901    1    3    3    0    0 -0.11306667626E+00 -0.56198708177E-01  0.26343291426E-01  0.88940223582E+00  0.88000000000E+00 0.  1.
        -11    1    4    4    0    0  0.62582029020E-01  0.11582504585E-01 -0.13783796443E-01  0.65122338211E-01  0.51100000000E-03 0. -1.
         11    1    4    4    0    0  0.60183421125E-01  0.28545286481E-01  0.36953234231E-03  0.66612875885E-01  0.51100000000E-03 0.  1.
</event>
<event>
 8    1  0.1060404E+005  0.1043930E+01  0.7957747E-01            NaN
         13   -1    0    0    0    0  0.00000000000E+00  0.00000000000E+00  0.74505805969E-08  0.10566000000E+00  0.10566000000E+00 0. -1.
     999900   -1    0    0    0    0 -0.00000000000E+00 -0.00000000000E+00 -0.74505805969E-08  0.93827000000E+00  0.93827000000E+00 0.  1.
     999902    2    1    2    0    0 -0.17943738442E-01  0.17628578957E-01  0.41861221948E-02  0.10184296438E+01  0.10181103434E+01 0.  0.
     999903    2    3    3    0    0  0.12303092280E+00 -0.20420760956E-01  0.29108199259E-02  0.12639644167E+00  0.20346305553E-01 0.  0.
         14    1    1    2    0    0  0.17943738442E-01 -0.17628578957E-01 -0.41861221948E-02  0.25500356161E-01  0.00000000000E+00 0.  1.
     999901    1    3    3    0    0 -0.14097466125E+00  0.38049339913E-01  0.12753022689E-02  0.89203320217E+00  0.88000000000E+00 0. -1.
        -11    1    4    4    0    0  0.30187106863E-01 -0.10830994404E-01  0.75141983343E-02  0.32943833386E-01  0.51100000000E-03 0. -1.
         11    1    4    4    0    0  0.92843815940E-01 -0.95897665525E-02 -0.46033784084E-02  0.93452608281E-01  0.51100000000E-03 0.  1.
</event>
<event>
 8    1  0.1060404E+005  0.1043930E+01  0.7957747E-01            NaN
         13   -1    0    0    0    0  0.00000000000E+00  0.00000000000E+00  0.74505805969E-08  0.10566000000E+00  0.10566000000E+00 0.  1.
     999900   -1    0    0    0    0 -0.00000000000E+00 -0.00000000000E+00 -0.74505805969E-08  0.93827000000E+00  0.93827000000E+00 0. -1.
     999902    2    1    2    0    0 -0.54394251866E-02 -0.11491373065E-01  0.17859482453E-01  0.10220074063E+01  0.10217722537E+01 0.  0.
     999903    2    3    3    0    0 -0.77742076479E-01  0.10137578255E+00 -0.20837466116E-01  0.13101687771E+00  0.20256912573E-01 0.  0.
         14    1    1    2    0    0  0.54394251866E-02  0.11491373065E-01 -0.17859482453E-01  0.21922593705E-01  0.00000000000E+00 0. -1.
     999901    1    3    3    0    0  0.72302651293E-01 -0.11286715562E+00  0.38696948568E-01  0.89099052859E+00  0.88000000000E+00 0.  1.
        -11    1    4    4    0    0 -0.24849463755E-01  0.19081725380E-01 -0.80912529401E-02  0.32362595500E-01  0.51100000000E-03 0. -1.
         11    1    4    4    0    0 -0.52892612725E-01  0.82294057173E-01 -0.12746213176E-01  0.98654282209E-01  0.51100000000E-03 0.  1.
</event>
<event>
 8    1  0.1060404E+005  0.1043930E+01  0.7957747E-01            NaN
         13   -1    0    0    0    0  0.00000000000E+00  0.00000000000E+00  0.74505805969E-08  0.10566000000E+00  0.10566000000E+00 0. -1.
     999900   -1    0    0    0    0 -0.00000000000E+00 -0.00000000000E+00 -0.74505805969E-08  0.93827000000E+00  0.93827000000E+00 0. -1.
     999902    2    1    2    0    0 -0.65026918725E-02 -0.22255886483E-01  0.40573220158E-02  0.10203912798E+01  0.10201197443E+01 0.  0.
     999903    2    3    3    0    0  0.57168085803E-01  0.98263436630E-01  0.56291873650E-01  0.12836699567E+00  0.19632053502E-01 0.  0.
         14    1    1    2    0    0  0.65026918725E-02  0.22255886483E-01 -0.40573220158E-02  0.23538720158E-01  0.00000000000E+00 0.  1.
     999901    1    3    3    0    0 -0.63670777676E-01 -0.12051932311E+00 -0.52234551634E-01  0.89202428418E+00  0.88000000000E+00 0. -1.
        -11    1    4    4    0    0  0.52706276365E-01  0.89950738306E-01  0.57127453599E-01  0.11888184876E+00  0.51100000000E-03 0. -1.
         11    1    4    4    0    0  0.44618094380E-02  0.83126983247E-02 -0.83557994955E-03  0.94851469019E-02  0.51100000000E-03 0.  1.
</event>
<event>
 8    1  0.1060404E+005  0.1043930E+01  0.7957747E-01            NaN
         13   -1    0    0    0    0  0.00000000000E+00  0.00000000000E+00  0.74505805969E-08  0.10566000000E+00  0.10566000000E+00 0. -1.
     999900   -1    0    0    0    0 -0.00000000000E+00 -0.00000000000E+00 -0.74505805969E-08  0.93827000000E+00  0.93827000000E+00 0.  1.
     999902    2    1    2    0    0  0.10989176608E-01  0.13301798457E-01  0.13837157938E-01  0.10218128848E+01  0.10215734946E+01 0.  0.
     999903    2    3    3    0    0 -0.11313781131E-01  0.12225674741E+00 -0.46589933697E-01  0.13275718563E+00  0.19471376007E-01 0.  0.
         14    1    1    2    0    0 -0.10989176608E-01 -0.13301798457E-01 -0.13837157938E-01  0.22117115194E-01  0.00000000000E+00 0.  1.
     999901    1    3    3    0    0  0.22302957738E-01 -0.10895494896E+00  0.60427091636E-01  0.88905569917E+00  0.88000000000E+00 0.  1.
        -11    1    4    4    0    0  0.14512823068E-02  0.82887048375E-01 -0.29906258867E-01  0.88130666904E-01  0.51100000000E-03 0. -1.
         11    1    4    4    0    0 -0.12765063437E-01  0.39369699040E-01 -0.16683674830E-01  0.44626518730E-01  0.51100000000E-03 0.  1.
</event>
<event>
 8    1  0.1060404E+005  0.1043930E+01  0.7957747E-01            NaN
         13   -1    0    0    0    0  0.00000000000E+00  0.00000000000E+00  0.74505805969E-08  0.10566000000E+00  0.10566000000E+00 0. -1.
     999900   -1    0    0    0    0 -0.00000000000E+00 -0.00000000000E+00 -0.74505805969E-08  0.93827000000E+00  0.93827000000E+00 0.  1.
     999902    2    1    2    0    0  0.82426352121E-02 -0.13535973295E-01 -0.16904930869E-01  0.10207580278E+01  0.10204949833E+01 0.  0.
     999903    2    3    3    0    0  0.55185030260E-01 -0.39220376766E-01  0.10939389791E+00  0.13013202818E+00  0.19588117330E-01 0.  0.
         14    1    1    2    0    0 -0.82426352121E-02  0.13535973295E-01  0.16904930869E-01  0.23171972208E-01  0.00000000000E+00 0. -1.
     999901    1    3    3    0    0 -0.46942395048E-01  0.25684403471E-01 -0.12629882878E+00  0.89062599961E+00  0.88000000000E+00 0.  1.
        -11    1    4    4    0    0  0.76558141786E-02 -0.15438298455E-01  0.29688981651E-01  0.34331462282E-01  0.51100000000E-03 0. -1.
         11    1    4    4    0    0  0.47529216081E-01 -0.23782078311E-01  0.79704916257E-01  0.95800565899E-01  0.51100000000E-03 0.  1.
</event>
<event>
 8    1  0.1060404E+005  0.1043930E+01  0.7957747E-01            NaN
         13   -1    0    0    0    0  0.00000000000E+00  0.00000000000E+00  0.74505805969E-08  0.10566000000E+00  0.10566000000E+00 0. -1.
     999900   -1    0    0    0    0 -0.00000000000E+00 -0.00000000000E+00 -0.74505805969E-08  0.93827000000E+00  0.93827000000E+00 0. -1.
     999902    2    1    2    0    0  0.11389467046E-01  0.24262538454E-01 -0.40016646004E-02  0.10168301098E+01  0.10164689213E+01 0.  0.
     999903    2    3    3    0    0  0.12536719535E+00 -0.18006286608E-01 -0.83247534870E-02  0.12846291922E+00  0.19805556444E-01 0.  0.
         14    1    1    2    0    0 -0.11389467046E-01 -0.24262538454E-01  0.40016646004E-02  0.27099890247E-01  0.00000000000E+00 0.  1.
     999901    1    3    3    0    0 -0.11397772830E+00  0.42268825061E-01  0.43230888866E-02  0.88836719053E+00  0.88000000000E+00 0.  1.
        -11    1    4    4    0    0  0.38152537479E-01 -0.37544557303E-02 -0.11516068092E-01  0.40032399368E-01  0.51100000000E-03 0. -1.
         11    1    4    4    0    0  0.87214657872E-01 -0.14251830877E-01  0.31913146047E-02  0.88430519850E-01  0.51100000000E-03 0.  1.
</event>
<event>
 8    1  0.1060404E+005  0.1043930E+01  0.7957747E-01            NaN
         13   -1    0    0    0    0  0.00000000000E+00  0.00000000000E+00  0.74505805969E-08  0.10566000000E+00  0.10566000000E+00 0.  1.
     999900   -1    0    0    0    0 -0.00000000000E+00 -0.00000000000E+00 -0.74505805969E-08  0.93827000000E+00  0.93827000000E+00 0. -1.
     999902    2    1    2    0    0 -0.20175538241E-02  0.93325143086E-02  0.21552940059E-01  0.10203568040E+01  0.10200844631E+01 0.  0.
     999903    2    3    3    0    0  0.11528350075E+00  0.32699428820E-01 -0.45454529175E-01  0.12974153851E+00  0.20179554101E-01 0.  0.
         14    1    1    2    0    0  0.20175538241E-02 -0.93325143086E-02 -0.21552940059E-01  0.23573196048E-01  0.00000000000E+00 0. -1.
     999901    1    3    3    0    0 -0.11730105457E+00 -0.23366914512E-01  0.67007469234E-01  0.89061526544E+00  0.88000000000E+00 0. -1.
        -11    1    4    4    0    0  0.35968281005E-01  0.39910113209E-02 -0.21315730497E-01  0.42003177230E-01  0.51100000000E-03 0.  1.
         11    1    4    4    0    0  0.79315219743E-01  0.28708417500E-01 -0.24138798678E-01  0.87738361284E-01  0.51100000000E-03 0. -1.
</event>
<event>
 8    1  0.1328514E+005  0.1043930E+01  0.7957747E-01            NaN
         13   -1    0    0    0    0  0.00000000000E+00  0.00000000000E+00  0.74505805969E-08  0.10566000000E+00  0.10566000000E+00 0. -1.
     999900   -1    0    0    0    0 -0.00000000000E+00 -0.00000000000E+00 -0.74505805969E-08  0.93827000000E+00  0.93827000000E+00 0. -1.
     999902    2    1    2    0    0 -0.19393657766E-01 -0.13007653251E-02  0.13782411333E-01  0.10201022680E+01  0.10198239438E+01 0.  0.
     999903    2    3    3    0    0 -0.34130228975E-01 -0.35398606611E-01  0.12151793403E+00  0.13275409945E+00  0.20954921820E-01 0.  0.
         14    1    1    2    0    0  0.19393657766E-01  0.13007653251E-02 -0.13782411333E-01  0.23827732039E-01  0.00000000000E+00 0.  1.
     999901    1    3    3    0    0  0.14736571209E-01  0.34097841286E-01 -0.10773552270E+00  0.88734816851E+00  0.88000000000E+00 0. -1.
        -11    1    4    4    0    0 -0.16928208472E-01 -0.10178288365E-01  0.71258421118E-01  0.73947180456E-01  0.51100000000E-03 0. -1.
         11    1    4    4    0    0 -0.17202020502E-01 -0.25220318246E-01  0.50259512917E-01  0.58806918993E-01  0.51100000000E-03 0.  1.
</event>
<event>
 8    1  0.1060404E+005  0.1043930E+01  0.7957747E-01            NaN
         13   -1    0    0    0    0  0.00000000000E+00  0.00000000000E+00  0.74505805969E-08  0.10566000000E+00  0.10566000000E+00 0. -1.
     999900   -1    0    0    0    0 -0.00000000000E+00 -0.00000000000E+00 -0.74505805969E-08  0.93827000000E+00  0.93827000000E+00 0.  1.
     999902    2    1    2    0    0  0.12853066313E-01  0.19041026998E-01  0.85067374977E-02  0.10194325184E+01  0.10191381324E+01 0.  0.
     999903    2    3    3    0    0  0.11206093255E+00 -0.23075328165E-01  0.61295590625E-01  0.13128689344E+00  0.19722463940E-01 0.  0.
         14    1    1    2    0    0 -0.12853066313E-01 -0.19041026998E-01 -0.85067374977E-02  0.24497481618E-01  0.00000000000E+00 0.  1.
     999901    1    3    3    0    0 -0.99207866238E-01  0.42116355163E-01 -0.52788853128E-01  0.88814562495E+00  0.88000000000E+00 0. -1.
        -11    1    4    4    0    0  0.30246662666E-01 -0.11397209186E-01  0.92686533873E-02  0.33629243766E-01  0.51100000000E-03 0. -1.
         11    1    4    4    0    0  0.81814269884E-01 -0.11678118978E-01  0.52026937238E-01  0.97657649670E-01  0.51100000000E-03 0.  1.
</event>
<event>
 8    1  0.1060404E+005  0.1043930E+01  0.7957747E-01            NaN
         13   -1    0    0    0    0  0.00000000000E+00  0.00000000000E+00  0.74505805969E-08  0.10566000000E+00  0.10566000000E+00 0.  1.
     999900   -1    0    0    0    0 -0.00000000000E+00 -0.00000000000E+00 -0.74505805969E-08  0.93827000000E+00  0.93827000000E+00 0. -1.
     999902    2    1    2    0    0 -0.16283630209E-01 -0.50003483771E-02 -0.15775881766E-01  0.10207127964E+01  0.10204487122E+01 0.  0.
     999903    2    3    3    0    0  0.47162098807E-01 -0.13469792141E-03 -0.12170587915E+00  0.13207890137E+00  0.20204788044E-01 0.  0.
         14    1    1    2    0    0  0.16283630209E-01  0.50003483771E-02  0.15775881766E-01  0.23217203582E-01  0.00000000000E+00 0.  1.
     999901    1    3    3    0    0 -0.63445729016E-01 -0.48656504557E-02  0.10592999738E+00  0.88863389505E+00  0.88000000000E+00 0. -1.
        -11    1    4    4    0    0  0.29103633839E-01 -0.99313381418E-02 -0.72489857839E-01  0.78744482920E-01  0.51100000000E-03 0. -1.
         11    1    4    4    0    0  0.18058464969E-01  0.97966402204E-02 -0.49216021310E-01  0.53334418448E-01  0.51100000000E-03 0.  1.
</event>
<event>
 7    1  0.1060404E+005  0.1043930E+01  0.7957747E-01            NaN
         13   -1    0    0    0    0  0.00000000000E+00  0.00000000000E+00  0.74505805969E-08  0.10566000000E+00  0.10566000000E+00 0. -1.
     999900   -1    0    0    0    0 -0.00000000000E+00 -0.00000000000E+00 -0.74505805969E-08  0.93827000000E+00  0.93827000000E+00 0. -1.
     999902    2    1    2    0    0 -0.86863690855E-02 -0.15870921541E-01  0.20499804697E-01  0.10165880697E+01  0.10162203119E+01 0.  0.
         14    1    1    2    0    0  0.86863690855E-02  0.15870921541E-01 -0.20499804697E-01  0.27341930273E-01  0.00000000000E+00 0.  1.
     999901    1    3    3    0    0 -0.35797628520E-01 -0.40498210364E-01  0.13304679875E+00  0.89164063720E+00  0.88000000000E+00 0.  1.
        -11    1    3    3    0    0  0.24215916097E-01 -0.47082498013E-04 -0.29006152369E-01  0.37789294852E-01  0.51100000000E-03 0.  1.
         11    1    3    3    0    0  0.28953433372E-02  0.24674371321E-01 -0.83540841680E-01  0.87158137674E-01  0.51100000000E-03 0. -1.
</event>
<event>
 8    1  0.1060404E+005  0.1043930E+01  0.7957747E-01            NaN
         13   -1    0    0    0    0  0.00000000000E+00  0.00000000000E+00  0.74505805969E-08  0.10566000000E+00  0.10566000000E+00 0.  1.
     999900   -1    0    0    0    0 -0.00000000000E+00 -0.00000000000E+00 -0.74505805969E-08  0.93827000000E+00  0.93827000000E+00 0. -1.
     999902    2    1    2    0    0 -0.48971594544E-02  0.13287867981E-01 -0.66395829243E-02  0.10282892306E+01  0.10281702719E+01 0.  0.
     999903    2    3    3    0    0 -0.51555913776E-01 -0.12448889120E+00  0.53213205633E-02  0.13626762887E+00  0.19622791567E-01 0.  0.
         14    1    1    2    0    0  0.48971594544E-02 -0.13287867981E-01  0.66395829243E-02  0.15640769406E-01  0.00000000000E+00 0.  1.
     999901    1    3    3    0    0  0.46658754322E-01  0.13777675918E+00 -0.11960903488E-01  0.89202160172E+00  0.88000000000E+00 0.  1.
        -11    1    4    4    0    0 -0.49214922934E-01 -0.11138883305E+00  0.99135907602E-02  0.12218069066E+00  0.51100000000E-03 0. -1.
         11    1    4    4    0    0 -0.23409908422E-02 -0.13100058145E-01 -0.45922701968E-02  0.14086938209E-01  0.51100000000E-03 0.  1.
</event>
<event>
 8    1  0.1060404E+005  0.1043930E+01  0.7957747E-01            NaN
         13   -1    0    0    0    0  0.00000000000E+00  0.00000000000E+00  0.74505805969E-08  0.10566000000E+00  0.10566000000E+00 0.  1.
     999900   -1    0    0    0    0 -0.00000000000E+00 -0.00000000000E+00 -0.74505805969E-08  0.93827000000E+00  0.93827000000E+00 0. -1.
     999902    2    1    2    0    0  0.18404298975E-02 -0.21271943634E-01  0.96484864001E-02  0.10204997619E+01  0.10202307523E+01 0.  0.
     999903    2    3    3    0    0 -0.33791471661E-02  0.10997020986E+00 -0.61749568082E-01  0.12789154491E+00  0.20937344793E-01 0.  0.
         14    1    1    2    0    0 -0.18404298975E-02  0.21271943634E-01 -0.96484864001E-02  0.23430238112E-01  0.00000000000E+00 0. -1.
     999901    1    3    3    0    0  0.52195770637E-02 -0.13124215350E+00  0.71398054482E-01  0.89260821698E+00  0.88000000000E+00 0.  1.
        -11    1    4    4    0    0 -0.60713730523E-02  0.57709832516E-01 -0.21554062291E-01  0.61904160296E-01  0.51100000000E-03 0.  1.
         11    1    4    4    0    0  0.26922258862E-02  0.52260377349E-01 -0.40195505791E-01  0.65987384610E-01  0.51100000000E-03 0. -1.
</event>
<event>
 8    1  0.1060404E+005  0.1043930E+01  0.7957747E-01            NaN
         13   -1    0    0    0    0  0.00000000000E+00  0.00000000000E+00  0.74505805969E-08  0.10566000000E+00  0.10566000000E+00 0. -1.
     999900   -1    0    0    0    0 -0.00000000000E+00 -0.00000000000E+00 -0.74505805969E-08  0.93827000000E+00  0.93827000000E+00 0.  1.
     999902    2    1    2    0    0 -0.12476490328E-02  0.20681820835E-01  0.10551559843E-01  0.10206785537E+01  0.10204136809E+01 0.  0.
     999903    2    3    3    0    0  0.61242185406E-01  0.24511389888E-01  0.11316511731E+00  0.13250673067E+00  0.20006908498E-01 0.  0.
         14    1    1    2    0    0  0.12476490328E-02 -0.20681820835E-01 -0.10551559843E-01  0.23251446327E-01  0.00000000000E+00 0.  1.
     999901    1    3    3    0    0 -0.62489834439E-01 -0.38295690531E-02 -0.10261355747E+00  0.88817182301E+00  0.88000000000E+00 0. -1.
        -11    1    4    4    0    0  0.18551627631E-01  0.14068916299E-01  0.53954698921E-01  0.58766214360E-01  0.51100000000E-03 0.  1.
         11    1    4    4    0    0  0.42690557776E-01  0.10442473589E-01  0.59210418392E-01  0.73740516306E-01  0.51100000000E-03 0. -1.
</event>
<event>
 8    1  0.1060404E+005  0.1043930E+01  0.7957747E-01            NaN
         13   -1    0    0    0    0  0.00000000000E+00  0.00000000000E+00  0.74505805969E-08  0.10566000000E+00  0.10566000000E+00 0.  1.
     999900   -1    0    0    0    0 -0.00000000000E+00 -0.00000000000E+00 -0.74505805969E-08  0.93827000000E+00  0.93827000000E+00 0. -1.
     999902    2    1    2    0    0  0.18719323113E-01 -0.15230982477E-01 -0.13009699418E-03  0.10197967696E+01  0.10195111762E+01 0.  0.
     999903    2    3    3    0    0  0.45238700321E-01 -0.39317645934E-01  0.11416229012E+00  0.13168292864E+00  0.26738510106E-01 0.  0.
         14    1    1    2    0    0 -0.18719323113E-01  0.15230982477E-01  0.13009699418E-03  0.24133230415E-01  0.00000000000E+00 0.  1.
     999901    1    3    3    0    0 -0.26519377209E-01  0.24086663457E-01 -0.11429238711E+00  0.88811384094E+00  0.88000000000E+00 0. -1.
        -11    1    4    4    0    0  0.27563019678E-01 -0.23748083444E-01  0.93555167819E-01  0.10038188117E+00  0.51100000000E-03 0.  1.
         11    1    4    4    0    0  0.17675680643E-01 -0.15569562490E-01  0.20607122296E-01  0.31301047469E-01  0.51100000000E-03 0. -1.
</event>
<event>
 8    1  0.1060404E+005  0.1043930E+01  0.7957747E-01            NaN
         13   -1    0    0    0    0  0.00000000000E+00  0.00000000000E+00  0.74505805969E-08  0.10566000000E+00  0.10566000000E+00 0. -1.
     999900   -1    0    0    0    0 -0.00000000000E+00 -0.00000000000E+00 -0.74505805969E-08  0.93827000000E+00  0.93827000000E+00 0. -1.
     999902    2    1    2    0    0 -0.18733113361E-01 -0.68433682105E-02  0.13171906045E-01  0.10200289470E+01  0.10197488869E+01 0.  0.
     999903    2    3    3    0    0 -0.30794234898E-01  0.10295269056E+00  0.72336480168E-01  0.13115263841E+00  0.20516013326E-01 0.  0.
         14    1    1    2    0    0  0.18733113361E-01  0.68433682105E-02 -0.13171906045E-01  0.23901052979E-01  0.00000000000E+00 0.  1.
     999901    1    3    3    0    0  0.12061121537E-01 -0.10979605877E+00 -0.59164574123E-01  0.88887630861E+00  0.88000000000E+00 0. -1.
        -11    1    4    4    0    0 -0.11415841329E-01  0.65843035081E-01  0.51605169372E-01  0.84433295144E-01  0.51100000000E-03 0.  1.
         11    1    4    4    0    0 -0.19378393569E-01  0.37109655480E-01  0.20731310796E-01  0.46719343269E-01  0.51100000000E-03 0. -1.
</event>
<event>
 8    1  0.1060404E+005  0.1043930E+01  0.7957747E-01            NaN
         13   -1    0    0    0    0  0.00000000000E+00  0.00000000000E+00  0.74505805969E-08  0.10566000000E+00  0.10566000000E+00 0. -1.
     999900   -1    0    0    0    0 -0.00000000000E+00 -0.00000000000E+00 -0.74505805969E-08  0.93827000000E+00  0.93827000000E+00 0.  1.
     999902    2    1    2    0    0  0.55650934952E-02  0.21455812866E-01  0.11913829815E-01  0.10187653122E+01  0.10184544662E+01 0.  0.
     999903    2    3    3    0    0  0.67857421491E-01 -0.43218885795E-02 -0.10686651809E+00  0.12822974577E+00  0.19977653503E-01 0.  0.
         14    1    1    2    0    0 -0.55650934952E-02 -0.21455812866E-01 -0.11913829815E-01  0.25164687803E-01  0.00000000000E+00 0.  1.
     999901    1    3    3    0    0 -0.62292327995E-01  0.25777701446E-01  0.11878034791E+00  0.89053556642E+00  0.88000000000E+00 0. -1.
        -11    1    4    4    0    0  0.35081117139E-01  0.15082637973E-02 -0.38029172386E-01  0.51763295034E-01  0.51100000000E-03 0. -1.
         11    1    4    4    0    0  0.32776304352E-01 -0.58301523767E-02 -0.68837345706E-01  0.76466450738E-01  0.51100000000E-03 0.  1.
</event>
<event>
 8    1  0.1060404E+005  0.1043930E+01  0.7957747E-01            NaN
         13   -1    0    0    0    0  0.00000000000E+00  0.00000000000E+00  0.74505805969E-08  0.10566000000E+00  0.10566000000E+00 0.  1.
     999900   -1    0    0    0    0 -0.00000000000E+00 -0.00000000000E+00 -0.74505805969E-08  0.93827000000E+00  0.93827000000E+00 0. -1.
     999902    2    1    2    0    0  0.21103128492E-01  0.78627464442E-02 -0.59068491337E-02  0.10206479107E+01  0.10203823313E+01 0.  0.
     999903    2    3    3    0    0 -0.21889753755E-01 -0.12597984103E+00 -0.54520545449E-02  0.12948999376E+00  0.19693956447E-01 0.  0.
         14    1    1    2    0    0 -0.21103128492E-01 -0.78627464442E-02  0.59068491337E-02  0.23282089263E-01  0.00000000000E+00 0.  1.
     999901    1    3    3    0    0  0.42992882247E-01  0.13384258747E+00 -0.45479458889E-03  0.89115791697E+00  0.88000000000E+00 0. -1.
        -11    1    4    4    0    0 -0.16812782825E-01 -0.10613667457E+00  0.25565631656E-02  0.10749167638E+00  0.51100000000E-03 0. -1.
         11    1    4    4    0    0 -0.50769709299E-02 -0.19843166462E-01 -0.80086177104E-02  0.21998317383E-01  0.51100000000E-03 0.  1.
</event>
<event>
 8    1  0.1060404E+005  0.1043930E+01  0.7957747E-01            NaN
         13   -1    0    0    0    0  0.00000000000E+00  0.00000000000E+00  0.74505805969E-08  0.10566000000E+00  0.10566000000E+00 0. -1.
     999900   -1    0    0    0    0 -0.00000000000E+00 -0.00000000000E+00 -0.74505805969E-08  0.93827000000E+00  0.93827000000E+00 0. -1.
     999902    2    1    2    0    0 -0.18565313720E-01 -0.16767258164E-01 -0.25201302847E-02  0.10187871506E+01  0.10184768507E+01 0.  0.
     999903    2    3    3    0    0 -0.51305306529E-01 -0.11246891560E+00  0.40728870429E-01  0.13193812712E+00  0.21617979703E-01 0.  0.
         14    1    1    2    0    0  0.18565313720E-01  0.16767258164E-01  0.25201302847E-02  0.25142849411E-01  0.00000000000E+00 0. -1.
     999901    1    3    3    0    0  0.32739992809E-01  0.95701657439E-01 -0.43249000713E-01  0.88684902347E+00  0.88000000000E+00 0.  1.
        -11    1    4    4    0    0 -0.23180067300E-01 -0.32413351229E-01  0.19998785288E-01  0.44588713728E-01  0.51100000000E-03 0. -1.
         11    1    4    4    0    0 -0.28125239229E-01 -0.80055564374E-01  0.20730085141E-01  0.87349413392E-01  0.51100000000E-03 0.  1.
</event>
<event>
 8    1  0.1060404E+005  0.1043930E+01  0.7957747E-01            NaN
         13   -1    0    0    0    0  0.00000000000E+00  0.00000000000E+00  0.74505805969E-08  0.10566000000E+00  0.10566000000E+00 0.  1.
     999900   -1    0    0    0    0 -0.00000000000E+00 -0.00000000000E+00 -0.74505805969E-08  0.93827000000E+00  0.93827000000E+00 0.  1.
     999902    2    1    2    0    0  0.17692485439E-01  0.84722185326E-02 -0.13302170249E-01  0.10202287287E+01  0.10199533855E+01 0.  0.
     999903    2    3    3    0    0 -0.81867389785E-01 -0.92126558755E-02 -0.98993406616E-01  0.13030293880E+00  0.19799463838E-01 0.  0.
         14    1    1    2    0    0 -0.17692485439E-01 -0.84722185326E-02  0.13302170249E-01  0.23701271300E-01  0.00000000000E+00 0.  1.
     999901    1    3    3    0    0  0.99559875225E-01  0.17684874408E-01  0.85691236367E-01  0.88992578990E+00  0.88000000000E+00 0. -1.
        -11    1    4    4    0    0 -0.55574738369E-01 -0.91004915789E-02 -0.53068297789E-01  0.77381366252E-01  0.51100000000E-03 0.  1.
         11    1    4    4    0    0 -0.26292651416E-01 -0.11216429659E-03 -0.45925108827E-01  0.52921572550E-01  0.51100000000E-03 0. -1.
</event>
<event>
 8    1  0.1060404E+005  0.1043930E+01  0.7957747E-01            NaN
         13   -1    0    0    0    0  0.00000000000E+00  0.00000000000E+00  0.74505805969E-08  0.10566000000E+00  0.10566000000E+00 0. -1.
     999900   -1    0    0    0    0 -0.00000000000E+00 -0.00000000000E+00 -0.74505805969E-08  0.93827000000E+00  0.93827000000E+00 0. -1.
     999902    2    1    2    0    0 -0.19418701726E-01  0.34190450277E-03  0.96929213739E-02  0.10222238810E+01  0.10219933989E+01 0.  0.
     999903    2    3    3    0    0 -0.77434600737E-01 -0.10288776406E+00 -0.28375981011E-01  0.13347675709E+00  0.20708428240E-01 0.  0.
         14    1    1    2    0    0  0.19418701726E-01 -0.34190450277E-03 -0.96929213739E-02  0.21706118957E-01  0.00000000000E+00 0.  1.
     999901    1    3    3    0    0  0.58015899012E-01  0.10322966856E+00  0.38068902385E-01  0.88874712395E+00  0.88000000000E+00 0.  1.
        -11    1    4    4    0    0 -0.54710922618E-01 -0.64500306169E-01 -0.27210637662E-01  0.88849617178E-01  0.51100000000E-03 0.  1.
         11    1    4    4    0    0 -0.22723678119E-01 -0.38387457890E-01 -0.11653433486E-02  0.44627139911E-01  0.51100000000E-03 0. -1.
</event>
<event>
 8    1  0.1060404E+005  0.1043930E+01  0.7957747E-01            NaN
         13   -1    0    0    0    0  0.00000000000E+00  0.00000000000E+00  0.74505805969E-08  0.10566000000E+00  0.10566000000E+00 0.  1.
     999900   -1    0    0    0    0 -0.00000000000E+00 -0.00000000000E+00 -0.74505805969E-08  0.93827000000E+00  0.93827000000E+00 0. -1.
     999902    2    1    2    0    0 -0.15598869434E-01 -0.66822112038E-02 -0.17823401252E-01  0.10193200364E+01  0.10190229077E+01 0.  0.
     999903    2    3    3    0    0  0.60109872109E-01 -0.11149218054E+00 -0.19970412273E-01  0.12986989569E+00  0.20583230900E-01 0.  0.
         14    1    1    2    0    0  0.15598869434E-01  0.66822112038E-02  0.17823401252E-01  0.24609963559E-01  0.00000000000E+00 0.  1.
     999901    1    3    3    0    0 -0.75708741542E-01  0.10480996934E+00  0.21470110205E-02  0.88945014075E+00  0.88000000000E+00 0.  1.
        -11    1    4    4    0    0  0.60392917393E-01 -0.10130978307E+00 -0.16488898125E-01  0.11909291120E+00  0.51100000000E-03 0. -1.
         11    1    4    4    0    0 -0.28304528428E-03 -0.10182397474E-01 -0.34815141476E-02  0.10776984491E-01  0.51100000000E-03 0.  1.
</event>
<event>
 8    1  0.1060404E+005  0.1043930E+01  0.7957747E-01            NaN
         13   -1    0    0    0    0  0.00000000000E+00  0.00000000000E+00  0.74505805969E-08  0.10566000000E+00  0.10566000000E+00 0. -1.
     999900   -1    0    0    0    0 -0.00000000000E+00 -0.00000000000E+00 -0.74505805969E-08  0.93827000000E+00  0.93827000000E+00 0. -1.
     999902    2    1    2    0    0  0.52811436968E-03 -0.16481442836E-01 -0.16839985468E-01  0.10203609106E+01  0.10200886657E+01 0.  0.
     999903    2    3    3    0    0 -0.42074974449E-01 -0.53892490714E-01  0.10826845195E+00  0.12970568509E+00  0.20659211682E-01 0.  0.
         14    1    1    2    0    0 -0.52811436968E-03  0.16481442836E-01  0.16839985468E-01  0.23569089362E-01  0.00000000000E+00 0. -1.
     999901    1    3    3    0    0  0.42603088819E-01  0.37411047877E-01 -0.12510843742E+00  0.89065522555E+00  0.88000000000E+00 0. -1.
        -11    1    4    4    0    0 -0.25016959381E-01 -0.46519231446E-01  0.79004879244E-01  0.95036409951E-01  0.51100000000E-03 0. -1.
         11    1    4    4    0    0 -0.17058015068E-01 -0.73732592674E-02  0.29263572706E-01  0.34669275141E-01  0.51100000000E-03 0.  1.
</event>
<event>
 8    1  0.1060404E+005  0.1043930E+01  0.7957747E-01            NaN
         13   -1    0    0    0    0  0.00000000000E+00  0.00000000000E+00  0.74505805969E-08  0.10566000000E+00  0.10566000000E+00 0. -1.
     999900   -1    0    0    0    0 -0.00000000000E+00 -0.00000000000E+00 -0.74505805969E-08  0.93827000000E+00  0.93827000000E+00 0.  1.
     999902    2    1    2    0    0  0.19809413888E-01  0.11507399198E-01  0.74074621644E-02  0.10198529651E+01  0.10195687161E+01 0.  0.
     999903    2    3    3    0    0  0.78738998236E-01 -0.17918432910E-01 -0.10077331916E+00  0.13078510661E+00  0.20702226386E-01 0.  0.
         14    1    1    2    0    0 -0.19809413888E-01 -0.11507399198E-01 -0.74074621644E-02  0.24077034921E-01  0.00000000000E+00 0.  1.
     999901    1    3    3    0    0 -0.58929584348E-01  0.29425832107E-01  0.10818078132E+00  0.88906785846E+00  0.88000000000E+00 0. -1.
        -11    1    4    4    0    0  0.21305235881E-01  0.28253466577E-02 -0.34646573942E-01  0.40774279474E-01  0.51100000000E-03 0. -1.
         11    1    4    4    0    0  0.57433762355E-01 -0.20743779567E-01 -0.66126745213E-01  0.90010827140E-01  0.51100000000E-03 0.  1.
</event>
<event>
 8    1  0.1060404E+005  0.1043930E+01  0.7957747E-01            NaN
         13   -1    0    0    0    0  0.00000000000E+00  0.00000000000E+00  0.74505805969E-08  0.10566000000E+00  0.10566000000E+00 0.  1.
     999900   -1    0    0    0    0 -0.00000000000E+00 -0.00000000000E+00 -0.74505805969E-08  0.93827000000E+00  0.93827000000E+00 0. -1.
     999902    2    1    2    0    0  0.79497017246E-04  0.24316379307E-01 -0.34912054536E-03  0.10196109847E+01  0.10193209237E+01 0.  0.
     999903    2    3    3    0    0  0.54823750207E-02 -0.57082099631E-01 -0.11341648870E+00  0.12863447923E+00  0.19877293716E-01 0.  0.
         14    1    1    2    0    0 -0.79497017246E-04 -0.24316379307E-01  0.34912054536E-03  0.24319015349E-01  0.00000000000E+00 0. -1.
     999901    1    3    3    0    0 -0.54028780034E-02  0.81398478938E-01  0.11306736815E+00  0.89097650542E+00  0.88000000000E+00 0.  1.
        -11    1    4    4    0    0  0.97794694267E-02 -0.17548016675E-01 -0.48581148654E-01  0.52573377646E-01  0.51100000000E-03 0.  1.
         11    1    4    4    0    0 -0.42970944060E-02 -0.39534082956E-01 -0.64835340042E-01  0.76061101589E-01  0.51100000000E-03 0. -1.
</event>
<event>
 8    1  0.1060404E+005  0.1043930E+01  0.7957747E-01            NaN
         13   -1    0    0    0    0  0.00000000000E+00  0.00000000000E+00  0.74505805969E-08  0.10566000000E+00  0.10566000000E+00 0.  1.
     999900   -1    0    0    0    0 -0.00000000000E+00 -0.00000000000E+00 -0.74505805969E-08  0.93827000000E+00  0.93827000000E+00 0.  1.
     999902    2    1    2    0    0  0.50527436942E-02 -0.13834810336E-01  0.18858173780E-01  0.10200017131E+01  0.10197210068E+01 0.  0.
     999903    2    3    3    0    0 -0.58387308992E-02  0.65316128808E-01  0.11201490635E+00  0.13148515601E+00  0.20993321443E-01 0.  0.
         14    1    1    2    0    0 -0.50527436942E-02  0.13834810336E-01 -0.18858173780E-01  0.23928286905E-01  0.00000000000E+00 0. -1.
     999901    1    3    3    0    0  0.10891474593E-01 -0.79150939144E-01 -0.93156732574E-01  0.88851655708E+00  0.88000000000E+00 0.  1.
        -11    1    4    4    0    0 -0.55031263011E-02  0.26970714142E-02  0.82797049582E-02  0.10313739792E-01  0.51100000000E-03 0.  1.
         11    1    4    4    0    0 -0.33560459813E-03  0.62619057394E-01  0.10373520140E+00  0.12117141622E+00  0.51100000000E-03 0. -1.
</event>
<event>
 8    1  0.1060404E+005  0.1043930E+01  0.7957747E-01            NaN
         13   -1    0    0    0    0  0.00000000000E+00  0.00000000000E+00  0.74505805969E-08  0.10566000000E+00  0.10566000000E+00 0. -1.
     999900   -1    0    0    0    0 -0.00000000000E+00 -0.00000000000E+00 -0.74505805969E-08  0.93827000000E+00  0.93827000000E+00 0. -1.
     999902    2    1    2    0    0  0.10837516642E-01 -0.20015358081E-01  0.87777241908E-02  0.10195350258E+01  0.10192431280E+01 0.  0.
     999903    2    3    3    0    0 -0.84067660585E-01  0.53806564560E-02  0.96375862043E-01  0.12974550909E+00  0.21195927095E-01 0.  0.
         14    1    1    2    0    0 -0.10837516642E-01  0.20015358081E-01 -0.87777241908E-02  0.24394974237E-01  0.00000000000E+00 0.  1.
     999901    1    3    3    0    0  0.94905177227E-01 -0.25396014537E-01 -0.87598137852E-01  0.88978951667E+00  0.88000000000E+00 0. -1.
        -11    1    4    4    0    0 -0.12718988757E-01  0.67832660457E-03  0.28203125424E-01  0.30950124502E-01  0.51100000000E-03 0. -1.
         11    1    4    4    0    0 -0.71348671828E-01  0.47023298514E-02  0.68172736618E-01  0.98795384592E-01  0.51100000000E-03 0.  1.
</event>
<event>
 8    1  0.1060404E+005  0.1043930E+01  0.7957747E-01            NaN
         13   -1    0    0    0    0  0.00000000000E+00  0.00000000000E+00  0.74505805969E-08  0.10566000000E+00  0.10566000000E+00 0.  1.
     999900   -1    0    0    0    0 -0.00000000000E+00 -0.00000000000E+00 -0.74505805969E-08  0.93827000000E+00  0.93827000000E+00 0. -1.
     999902    2    1    2    0    0  0.22198523951E-01  0.90704055786E-02  0.15903316792E-02  0.10198971916E+01  0.10196139983E+01 0.  0.
     999903    2    3    3    0    0  0.47283741023E-01 -0.16286736852E-02 -0.12056033208E+00  0.13104145358E+00  0.19966575621E-01 0.  0.
         14    1    1    2    0    0 -0.22198523951E-01 -0.90704055786E-02 -0.15903316792E-02  0.24032808363E-01  0.00000000000E+00 0. -1.
     999901    1    3    3    0    0 -0.25085217072E-01  0.10699079264E-01  0.12215066376E+00  0.88885573805E+00  0.88000000000E+00 0.  1.
        -11    1    4    4    0    0  0.45145860980E-01 -0.25710885667E-02 -0.93355718004E-01  0.10373191633E+00  0.51100000000E-03 0. -1.
         11    1    4    4    0    0  0.21378800433E-02  0.94241488151E-03 -0.27204614080E-01  0.27309537256E-01  0.51100000000E-03 0.  1.
</event>
<event>
 8    1  0.1060404E+005  0.1043930E+01  0.7957747E-01            NaN
         13   -1    0    0    0    0  0.00000000000E+00  0.00000000000E+00  0.74505805969E-08  0.10566000000E+00  0.10566000000E+00 0.  1.
     999900   -1    0    0    0    0 -0.00000000000E+00 -0.00000000000E+00 -0.74505805969E-08  0.93827000000E+00  0.93827000000E+00 0.  1.
     999902    2    1    2    0    0  0.13898447019E-02 -0.22334159001E-01  0.75983762190E-02  0.10202977837E+01  0.10200240614E+01 0.  0.
     999903    2    3    3    0    0  0.11196223897E+00  0.30554233172E-01 -0.54408656408E-01  0.12964167245E+00  0.19430831775E-01 0.  0.
         14    1    1    2    0    0 -0.13898447019E-02  0.22334159001E-01 -0.75983762190E-02  0.23632216311E-01  0.00000000000E+00 0. -1.
     999901    1    3    3    0    0 -0.11057239426E+00 -0.52888392173E-01  0.62007032628E-01  0.89065611124E+00  0.88000000000E+00 0. -1.
        -11    1    4    4    0    0  0.76071172575E-01  0.11615397422E-01 -0.32676283315E-01  0.83604673114E-01  0.51100000000E-03 0.  1.
         11    1    4    4    0    0  0.35891066391E-01  0.18938835750E-01 -0.21732373094E-01  0.46036999332E-01  0.51100000000E-03 0. -1.
</event>
<event>
 8    1  0.1060404E+005  0.1043930E+01  0.7957747E-01            NaN
         13   -1    0    0    0    0  0.00000000000E+00  0.00000000000E+00  0.74505805969E-08  0.10566000000E+00  0.10566000000E+00 0. -1.
     999900   -1    0    0    0    0 -0.00000000000E+00 -0.00000000000E+00 -0.74505805969E-08  0.93827000000E+00  0.93827000000E+00 0.  1.
     999902    2    1    2    0    0  0.16331896151E-01 -0.34884627971E-02 -0.16856428284E-01  0.10202015492E+01  0.10199255667E+01 0.  0.
     999903    2    3    3    0    0 -0.61968430680E-01  0.96026425090E-01 -0.58868317066E-01  0.13014584704E+00  0.20280582585E-01 0.  0.
         14    1    1    2    0    0 -0.16331896151E-01  0.34884627971E-02  0.16856428284E-01  0.23728450836E-01  0.00000000000E+00 0. -1.
     999901    1    3    3    0    0  0.78300326831E-01 -0.99514887887E-01  0.42011888782E-01  0.89005570213E+00  0.88000000000E+00 0. -1.
        -11    1    4    4    0    0 -0.61121467471E-01  0.86073158285E-01 -0.50138920968E-01  0.11686999136E+00  0.51100000000E-03 0. -1.
         11    1    4    4    0    0 -0.84696320901E-03  0.99532668045E-02 -0.87293960978E-02  0.13275855678E-01  0.51100000000E-03 0.  1.
</event>
<event>
 8    1  0.1060404E+005  0.1043930E+01  0.7957747E-01            NaN
         13   -1    0    0    0    0  0.00000000000E+00  0.00000000000E+00  0.74505805969E-08  0.10566000000E+00  0.10566000000E+00 0. -1.
     999900   -1    0    0    0    0 -0.00000000000E+00 -0.00000000000E+00 -0.74505805969E-08  0.93827000000E+00  0.93827000000E+00 0.  1.
     999902    2    1    2    0    0  0.18681422379E-01 -0.85447304479E-02 -0.12390076677E-01  0.10199399612E+01  0.10196577870E+01 0.  0.
     999903    2    3    3    0    0 -0.54317624316E-01  0.21376597484E-01 -0.11495948206E+00  0.13047684810E+00  0.20029032517E-01 0.  0.
         14    1    1    2    0    0 -0.18681422379E-01  0.85447304479E-02  0.12390076677E-01  0.23990038778E-01  0.00000000000E+00 0.  1.
     999901    1    3    3    0    0  0.72999046696E-01 -0.29921327932E-01  0.10256940538E+00  0.88946311312E+00  0.88000000000E+00 0. -1.
        -11    1    4    4    0    0 -0.34415176661E-01  0.78233456515E-02 -0.84996999736E-01  0.92034559851E-01  0.51100000000E-03 0.  1.
         11    1    4    4    0    0 -0.19902447656E-01  0.13553251832E-01 -0.29962482323E-01  0.38442288249E-01  0.51100000000E-03 0. -1.
</event>
