<event>
 8    1  0.1099478E+005  0.1043930E+01  0.7957747E-01            NaN
         13   -1    0    0    0    0  0.00000000000E+00  0.00000000000E+00  0.74505805969E-08  0.10566000000E+00  0.10566000000E+00 0.  1.
     999900   -1    0    0    0    0 -0.00000000000E+00 -0.00000000000E+00 -0.74505805969E-08  0.93827000000E+00  0.93827000000E+00 0. -1.
     999902    2    1    2    0    0 -0.95953055180E-02  0.18022399924E-01  0.90971686332E-02  0.10215774775E+01  0.10213329071E+01 0.  0.
     999903    2    3    3    0    0 -0.12442027528E+00  0.97525646676E-02  0.45300790808E-01  0.13334109782E+00  0.12335692145E-01 0.  0.
         14    1    1    2    0    0  0.95953055180E-02 -0.18022399924E-01 -0.90971686332E-02  0.22352522545E-01  0.00000000000E+00 0.  1.
     999901    1    3    3    0    0  0.11482496976E+00  0.82698352560E-02 -0.36203622174E-01  0.88823637964E+00  0.88000000000E+00 0.  1.
        -11    1    4    4    0    0 -0.18375035071E-01  0.42451826711E-02  0.33268532179E-02  0.19157049958E-01  0.51100000000E-03 0.  1.
         11    1    4    4    0    0 -0.10604524021E+00  0.55073819965E-02  0.41973937590E-01  0.11418404786E+00  0.51100000000E-03 0. -1.
</event>
<event>
 8    1  0.1099478E+005  0.1043930E+01  0.7957747E-01            NaN
         13   -1    0    0    0    0  0.00000000000E+00  0.00000000000E+00  0.74505805969E-08  0.10566000000E+00  0.10566000000E+00 0. -1.
     999900   -1    0    0    0    0 -0.00000000000E+00 -0.00000000000E+00 -0.74505805969E-08  0.93827000000E+00  0.93827000000E+00 0. -1.
     999902    2    1    2    0    0 -0.18320330045E-01 -0.13626319931E-02  0.15703932631E-01  0.10197617407E+01  0.10194753077E+01 0.  0.
     999903    2    3    3    0    0  0.77588203729E-01 -0.97724291825E-01 -0.23806011741E-01  0.12844526935E+00  0.19013007489E-01 0.  0.
         14    1    1    2    0    0  0.18320330045E-01  0.13626319931E-02 -0.15703932631E-01  0.24168259329E-01  0.00000000000E+00 0.  1.
     999901    1    3    3    0    0 -0.95908533774E-01  0.96361659832E-01  0.39509944373E-01  0.89131647132E+00  0.88000000000E+00 0.  1.
        -11    1    4    4    0    0  0.11811875029E-01 -0.17776174830E-01 -0.11321643910E-01  0.24165130356E-01  0.51100000000E-03 0. -1.
         11    1    4    4    0    0  0.65776328700E-01 -0.79948116995E-01 -0.12484367831E-01  0.10428013900E+00  0.51100000000E-03 0.  1.
</event>
<event>
 8    1  0.1099478E+005  0.1043930E+01  0.7957747E-01            NaN
         13   -1    0    0    0    0  0.00000000000E+00  0.00000000000E+00  0.74505805969E-08  0.10566000000E+00  0.10566000000E+00 0. -1.
     999900   -1    0    0    0    0 -0.00000000000E+00 -0.00000000000E+00 -0.74505805969E-08  0.93827000000E+00  0.93827000000E+00 0. -1.
     999902    2    1    2    0    0 -0.18175791190E-01  0.91412661219E-02 -0.47924589357E-02  0.10230280911E+01  0.10228145411E+01 0.  0.
     999903    2    3    3    0    0  0.59624027997E-01 -0.52378747718E-01  0.10227502548E+00  0.13100736817E+00  0.20104520663E-01 0.  0.
         14    1    1    2    0    0  0.18175791190E-01 -0.91412661219E-02  0.47924589357E-02  0.20901908868E-01  0.00000000000E+00 0. -1.
     999901    1    3    3    0    0 -0.77799819186E-01  0.61520013840E-01 -0.10706748442E+00  0.89202072296E+00  0.88000000000E+00 0.  1.
        -11    1    4    4    0    0  0.24261429104E-01 -0.34507030780E-01  0.50240710702E-01  0.65602913413E-01  0.51100000000E-03 0. -1.
         11    1    4    4    0    0  0.35362598893E-01 -0.17871716937E-01  0.52034314781E-01  0.65404454760E-01  0.51100000000E-03 0.  1.
</event>
<event>
 8    1  0.1099478E+005  0.1043930E+01  0.7957747E-01            NaN
         13   -1    0    0    0    0  0.00000000000E+00  0.00000000000E+00  0.74505805969E-08  0.10566000000E+00  0.10566000000E+00 0. -1.
     999900   -1    0    0    0    0 -0.00000000000E+00 -0.00000000000E+00 -0.74505805969E-08  0.93827000000E+00  0.93827000000E+00 0.  1.
     999902    2    1    2    0    0 -0.11403548548E-01  0.19435207345E-01  0.10669271049E-01  0.10189980617E+01  0.10186930098E+01 0.  0.
     999903    2    3    3    0    0  0.15292984894E-01  0.12969902919E-01 -0.12504882560E+00  0.12817040897E+00  0.19706627902E-01 0.  0.
         14    1    1    2    0    0  0.11403548548E-01 -0.19435207345E-01 -0.10669271049E-01  0.24931938327E-01  0.00000000000E+00 0.  1.
     999901    1    3    3    0    0 -0.26696533442E-01  0.64653044251E-02  0.13571809665E+00  0.89082765270E+00  0.88000000000E+00 0. -1.
        -11    1    4    4    0    0  0.62084416699E-03  0.12524605227E-01 -0.42086658444E-01  0.43918095628E-01  0.51100000000E-03 0. -1.
         11    1    4    4    0    0  0.14672140727E-01  0.44529769193E-03 -0.82962167156E-01  0.84252313344E-01  0.51100000000E-03 0.  1.
</event>
<event>
 8    1  0.1099478E+005  0.1043930E+01  0.7957747E-01            NaN
         13   -1    0    0    0    0  0.00000000000E+00  0.00000000000E+00  0.74505805969E-08  0.10566000000E+00  0.10566000000E+00 0.  1.
     999900   -1    0    0    0    0 -0.00000000000E+00 -0.00000000000E+00 -0.74505805969E-08  0.93827000000E+00  0.93827000000E+00 0.  1.
     999902    2    1    2    0    0  0.38894388723E-02  0.11422721016E-01 -0.20621958682E-01  0.10200370833E+01  0.10197572161E+01 0.  0.
     999903    2    3    3    0    0 -0.58271175023E-01 -0.16144283664E-01  0.11072835929E+00  0.12769365851E+00  0.19716316587E-01 0.  0.
         14    1    1    2    0    0 -0.38894388723E-02 -0.11422721016E-01  0.20621958682E-01  0.23892916734E-01  0.00000000000E+00 0.  1.
     999901    1    3    3    0    0  0.62160613896E-01  0.27567004680E-01 -0.13135031797E+00  0.89234342475E+00  0.88000000000E+00 0.  1.
        -11    1    4    4    0    0 -0.34759526932E-01 -0.33363471967E-02  0.77595313565E-01  0.85092007459E-01  0.51100000000E-03 0.  1.
         11    1    4    4    0    0 -0.23511648091E-01 -0.12807936467E-01  0.33133045726E-01  0.42601651055E-01  0.51100000000E-03 0. -1.
</event>
<event>
 8    1  0.1099478E+005  0.1043930E+01  0.7957747E-01            NaN
         13   -1    0    0    0    0  0.00000000000E+00  0.00000000000E+00  0.74505805969E-08  0.10566000000E+00  0.10566000000E+00 0. -1.
     999900   -1    0    0    0    0 -0.00000000000E+00 -0.00000000000E+00 -0.74505805969E-08  0.93827000000E+00  0.93827000000E+00 0.  1.
     999902    2    1    2    0    0 -0.16080922446E-01 -0.25264712540E-02  0.19616445690E-01  0.10184391376E+01  0.10181200779E+01 0.  0.
     999903    2    3    3    0    0  0.11024118897E+00  0.44923119473E-01 -0.37065594862E-01  0.12635080498E+00  0.20480751644E-01 0.  0.
         14    1    1    2    0    0  0.16080922446E-01  0.25264712540E-02 -0.19616445690E-01  0.25490862387E-01  0.00000000000E+00 0.  1.
     999901    1    3    3    0    0 -0.12632211142E+00 -0.47449590727E-01  0.56682040552E-01  0.89208833263E+00  0.88000000000E+00 0. -1.
        -11    1    4    4    0    0  0.54945570718E-01  0.25056713243E-01 -0.29160742587E-01  0.67063139274E-01  0.51100000000E-03 0.  1.
         11    1    4    4    0    0  0.55295618255E-01  0.19866406230E-01 -0.79048522758E-02  0.59287665709E-01  0.51100000000E-03 0. -1.
</event>
<event>
 8    1  0.1099478E+005  0.1043930E+01  0.7957747E-01            NaN
         13   -1    0    0    0    0  0.00000000000E+00  0.00000000000E+00  0.74505805969E-08  0.10566000000E+00  0.10566000000E+00 0.  1.
     999900   -1    0    0    0    0 -0.00000000000E+00 -0.00000000000E+00 -0.74505805969E-08  0.93827000000E+00  0.93827000000E+00 0.  1.
     999902    2    1    2    0    0 -0.18904890298E-01  0.12978306044E-01 -0.65306250288E-02  0.10200871737E+01  0.10198084926E+01 0.  0.
     999903    2    3    3    0    0 -0.61706253231E-01 -0.10159935409E+00  0.47852595611E-01  0.12996497330E+00  0.21700989380E-01 0.  0.
         14    1    1    2    0    0  0.18904890298E-01 -0.12978306044E-01  0.65306250288E-02  0.23842826347E-01  0.00000000000E+00 0.  1.
     999901    1    3    3    0    0  0.42801362933E-01  0.11457766013E+00 -0.54383220640E-01  0.89012220035E+00  0.88000000000E+00 0.  1.
        -11    1    4    4    0    0 -0.48356665563E-01 -0.69356037270E-01  0.24709638104E-01  0.88087765021E-01  0.51100000000E-03 0. -1.
         11    1    4    4    0    0 -0.13349587668E-01 -0.32243316816E-01  0.23142957507E-01  0.41877208281E-01  0.51100000000E-03 0.  1.
</event>
<event>
 8    1  0.1099478E+005  0.1043930E+01  0.7957747E-01            NaN
         13   -1    0    0    0    0  0.00000000000E+00  0.00000000000E+00  0.74505805969E-08  0.10566000000E+00  0.10566000000E+00 0. -1.
     999900   -1    0    0    0    0 -0.00000000000E+00 -0.00000000000E+00 -0.74505805969E-08  0.93827000000E+00  0.93827000000E+00 0. -1.
     999902    2    1    2    0    0 -0.52897101909E-02 -0.11443703168E-01 -0.19970928780E-01  0.10203126891E+01  0.10200393160E+01 0.  0.
     999903    2    3    3    0    0 -0.76462737297E-01  0.56660380294E-01  0.84731175244E-01  0.12864778764E+00  0.17718135252E-01 0.  0.
         14    1    1    2    0    0  0.52897101909E-02  0.11443703168E-01  0.19970928780E-01  0.23617310863E-01  0.00000000000E+00 0. -1.
     999901    1    3    3    0    0  0.71173027106E-01 -0.68104083462E-01 -0.10470210402E+00  0.89166490150E+00  0.88000000000E+00 0.  1.
        -11    1    4    4    0    0 -0.23517878624E-01  0.11515560149E-01  0.31951426142E-01  0.41314083483E-01  0.51100000000E-03 0. -1.
         11    1    4    4    0    0 -0.52944858673E-01  0.45144820145E-01  0.52779749102E-01  0.87333704159E-01  0.51100000000E-03 0.  1.
</event>
<event>
 8    1  0.1099478E+005  0.1043930E+01  0.7957747E-01            NaN
         13   -1    0    0    0    0  0.00000000000E+00  0.00000000000E+00  0.74505805969E-08  0.10566000000E+00  0.10566000000E+00 0.  1.
     999900   -1    0    0    0    0 -0.00000000000E+00 -0.00000000000E+00 -0.74505805969E-08  0.93827000000E+00  0.93827000000E+00 0.  1.
     999902    2    1    2    0    0  0.16936799654E-01 -0.14511457992E-01  0.75377612666E-02  0.10203873697E+01  0.10201157429E+01 0.  0.
     999903    2    3    3    0    0  0.16187162541E-01 -0.96254114168E-01 -0.86054880206E-01  0.13165681082E+00  0.20029845267E-01 0.  0.
         14    1    1    2    0    0 -0.16936799654E-01  0.14511457992E-01 -0.75377612666E-02  0.23542630279E-01  0.00000000000E+00 0.  1.
     999901    1    3    3    0    0  0.74963711297E-03  0.81742656176E-01  0.93592641473E-01  0.88873055891E+00  0.88000000000E+00 0. -1.
        -11    1    4    4    0    0  0.63045111111E-02 -0.72114947969E-01 -0.53924973464E-01  0.90268911952E-01  0.51100000000E-03 0. -1.
         11    1    4    4    0    0  0.98826514299E-02 -0.24139166199E-01 -0.32129906741E-01  0.41387898863E-01  0.51100000000E-03 0.  1.
</event>
<event>
 8    1  0.1099478E+005  0.1043930E+01  0.7957747E-01            NaN
         13   -1    0    0    0    0  0.00000000000E+00  0.00000000000E+00  0.74505805969E-08  0.10566000000E+00  0.10566000000E+00 0. -1.
     999900   -1    0    0    0    0 -0.00000000000E+00 -0.00000000000E+00 -0.74505805969E-08  0.93827000000E+00  0.93827000000E+00 0.  1.
     999902    2    1    2    0    0  0.69129812797E-02  0.28414888195E-01 -0.49581516025E-02  0.10142689405E+01  0.10138351470E+01 0.  0.
     999903    2    3    3    0    0  0.85624680722E-01  0.31589145846E-02 -0.90639692638E-01  0.12625164211E+00  0.19553990973E-01 0.  0.
         14    1    1    2    0    0 -0.69129812797E-02 -0.28414888195E-01  0.49581516025E-02  0.29661059466E-01  0.00000000000E+00 0. -1.
     999901    1    3    3    0    0 -0.78711699443E-01  0.25255973610E-01  0.85681541036E-01  0.88801729843E+00  0.88000000000E+00 0. -1.
        -11    1    4    4    0    0  0.19319272969E-01  0.83768935326E-02 -0.17431531738E-01  0.27340923047E-01  0.51100000000E-03 0. -1.
         11    1    4    4    0    0  0.66305407753E-01 -0.52179789480E-02 -0.73208160900E-01  0.98910719060E-01  0.51100000000E-03 0.  1.
</event>
<event>
 8    1  0.1099478E+005  0.1043930E+01  0.7957747E-01            NaN
         13   -1    0    0    0    0  0.00000000000E+00  0.00000000000E+00  0.74505805969E-08  0.10566000000E+00  0.10566000000E+00 0. -1.
     999900   -1    0    0    0    0 -0.00000000000E+00 -0.00000000000E+00 -0.74505805969E-08  0.93827000000E+00  0.93827000000E+00 0.  1.
     999902    2    1    2    0    0  0.53660080098E-02  0.17494548193E-01 -0.15560355799E-01  0.10199096351E+01  0.10196267385E+01 0.  0.
     999903    2    3    3    0    0  0.95670264759E-01 -0.37245731561E-01  0.75222782665E-01  0.12895905550E+00  0.20782850761E-01 0.  0.
         14    1    1    2    0    0 -0.53660080098E-02 -0.17494548193E-01  0.15560355799E-01  0.24020364923E-01  0.00000000000E+00 0. -1.
     999901    1    3    3    0    0 -0.90304256749E-01  0.54740279754E-01 -0.90783138464E-01  0.89095057957E+00  0.88000000000E+00 0.  1.
        -11    1    4    4    0    0  0.36362676131E-01 -0.12615435202E-01  0.16294267728E-01  0.41799015569E-01  0.51100000000E-03 0.  1.
         11    1    4    4    0    0  0.59307588628E-01 -0.24630296359E-01  0.58928514937E-01  0.87160039934E-01  0.51100000000E-03 0. -1.
</event>
<event>
 8    1  0.1099478E+005  0.1043930E+01  0.7957747E-01            NaN
         13   -1    0    0    0    0  0.00000000000E+00  0.00000000000E+00  0.74505805969E-08  0.10566000000E+00  0.10566000000E+00 0. -1.
     999900   -1    0    0    0    0 -0.00000000000E+00 -0.00000000000E+00 -0.74505805969E-08  0.93827000000E+00  0.93827000000E+00 0. -1.
     999902    2    1    2    0    0  0.74303710356E-04 -0.29994622199E-02 -0.23440378063E-01  0.10202983767E+01  0.10200246683E+01 0.  0.
     999903    2    3    3    0    0  0.46094513765E-01 -0.11208032076E+00  0.42104093463E-01  0.12995430213E+00  0.20704189277E-01 0.  0.
         14    1    1    2    0    0 -0.74303710356E-04  0.29994622199E-02  0.23440378063E-01  0.23631623270E-01  0.00000000000E+00 0. -1.
     999901    1    3    3    0    0 -0.46020210054E-01  0.10908085854E+00 -0.65544471526E-01  0.89034407460E+00  0.88000000000E+00 0. -1.
        -11    1    4    4    0    0  0.41880654321E-01 -0.90982122509E-01  0.41522123216E-01  0.10842547514E+00  0.51100000000E-03 0. -1.
         11    1    4    4    0    0  0.42138594441E-02 -0.21098198253E-01  0.58197024696E-03  0.21528826984E-01  0.51100000000E-03 0.  1.
</event>
<event>
 8    1  0.1099478E+005  0.1043930E+01  0.7957747E-01            NaN
         13   -1    0    0    0    0  0.00000000000E+00  0.00000000000E+00  0.74505805969E-08  0.10566000000E+00  0.10566000000E+00 0. -1.
     999900   -1    0    0    0    0 -0.00000000000E+00 -0.00000000000E+00 -0.74505805969E-08  0.93827000000E+00  0.93827000000E+00 0.  1.
     999902    2    1    2    0    0 -0.14811466606E-01  0.67473656672E-02 -0.17491362895E-01  0.10200374434E+01  0.10197575847E+01 0.  0.
     999903    2    3    3    0    0 -0.41211044490E-01  0.30127618157E-02 -0.12489226092E+00  0.13310687231E+00  0.20296199070E-01 0.  0.
         14    1    1    2    0    0  0.14811466606E-01 -0.67473656672E-02  0.17491362895E-01  0.23892556632E-01  0.00000000000E+00 0. -1.
     999901    1    3    3    0    0  0.26399577883E-01  0.37346038515E-02  0.10740089803E+00  0.88693057106E+00  0.88000000000E+00 0. -1.
        -11    1    4    4    0    0 -0.24963421618E-01  0.40135589213E-02 -0.10150277197E+00  0.10460571167E+00  0.51100000000E-03 0.  1.
         11    1    4    4    0    0 -0.16247622872E-01 -0.10007971055E-02 -0.23389488950E-01  0.28501160646E-01  0.51100000000E-03 0. -1.
</event>
<event>
 8    1  0.1099478E+005  0.1043930E+01  0.7957747E-01            NaN
         13   -1    0    0    0    0  0.00000000000E+00  0.00000000000E+00  0.74505805969E-08  0.10566000000E+00  0.10566000000E+00 0. -1.
     999900   -1    0    0    0    0 -0.00000000000E+00 -0.00000000000E+00 -0.74505805969E-08  0.93827000000E+00  0.93827000000E+00 0.  1.
     999902    2    1    2    0    0 -0.70323415074E-02 -0.23305021166E-02  0.22756241965E-01  0.10199981882E+01  0.10197173983E+01 0.  0.
     999903    2    3    3    0    0  0.12336258471E+00 -0.14401653219E-01 -0.27176837643E-01  0.12890792235E+00  0.21282317032E-01 0.  0.
         14    1    1    2    0    0  0.70323415074E-02  0.23305021166E-02 -0.22756241965E-01  0.23931811790E-01  0.00000000000E+00 0.  1.
     999901    1    3    3    0    0 -0.13039492622E+00  0.12071151103E-01  0.49933079609E-01  0.89109026586E+00  0.88000000000E+00 0. -1.
        -11    1    4    4    0    0  0.80518494520E-01 -0.80598180263E-02 -0.27873358336E-01  0.85588397884E-01  0.51100000000E-03 0. -1.
         11    1    4    4    0    0  0.42844090190E-01 -0.63418351931E-02  0.69652069255E-03  0.43319524465E-01  0.51100000000E-03 0.  1.
</event>
<event>
 8    1  0.1099478E+005  0.1043930E+01  0.7957747E-01            NaN
         13   -1    0    0    0    0  0.00000000000E+00  0.00000000000E+00  0.74505805969E-08  0.10566000000E+00  0.10566000000E+00 0. -1.
     999900   -1    0    0    0    0 -0.00000000000E+00 -0.00000000000E+00 -0.74505805969E-08  0.93827000000E+00  0.93827000000E+00 0.  1.
     999902    2    1    2    0    0  0.20894571814E-01  0.13583741916E-01  0.45580711224E-02  0.10185947047E+01  0.10182795762E+01 0.  0.
     999903    2    3    3    0    0  0.10241779469E+00  0.59018312477E-01  0.56212812067E-01  0.13215319601E+00  0.18221446086E-01 0.  0.
         14    1    1    2    0    0 -0.20894571814E-01 -0.13583741916E-01 -0.45580711224E-02  0.25335295303E-01  0.00000000000E+00 0.  1.
     999901    1    3    3    0    0 -0.81523222874E-01 -0.45434570561E-01 -0.51654740945E-01  0.88644150869E+00  0.88000000000E+00 0. -1.
        -11    1    4    4    0    0  0.43858851656E-01  0.21134194946E-01  0.14141485120E-01  0.50700057071E-01  0.51100000000E-03 0. -1.
         11    1    4    4    0    0  0.58558943032E-01  0.37884117531E-01  0.42071326947E-01  0.81453138934E-01  0.51100000000E-03 0.  1.
</event>
<event>
 8    1  0.1099478E+005  0.1043930E+01  0.7957747E-01            NaN
         13   -1    0    0    0    0  0.00000000000E+00  0.00000000000E+00  0.74505805969E-08  0.10566000000E+00  0.10566000000E+00 0.  1.
     999900   -1    0    0    0    0 -0.00000000000E+00 -0.00000000000E+00 -0.74505805969E-08  0.93827000000E+00  0.93827000000E+00 0.  1.
     999902    2    1    2    0    0 -0.72326719840E-02  0.80931998268E-02  0.23898730622E-01  0.10176819381E+01  0.10173433867E+01 0.  0.
     999903    2    3    3    0    0 -0.65503703993E-01 -0.10282110587E+00  0.35951511340E-01  0.12872594038E+00  0.20370113163E-01 0.  0.
         14    1    1    2    0    0  0.72326719840E-02 -0.80931998268E-02 -0.23898730622E-01  0.26248061887E-01  0.00000000000E+00 0.  1.
     999901    1    3    3    0    0  0.58271032009E-01  0.11091430570E+00 -0.12052780718E-01  0.88895599773E+00  0.88000000000E+00 0. -1.
        -11    1    4    4    0    0 -0.21533510388E-01 -0.18050275000E-01  0.77649874537E-02  0.29155799567E-01  0.51100000000E-03 0. -1.
         11    1    4    4    0    0 -0.43970193605E-01 -0.84770830871E-01  0.28186523886E-01  0.99570140815E-01  0.51100000000E-03 0.  1.
</event>
<event>
 8    1  0.1099478E+005  0.1043930E+01  0.7957747E-01            NaN
         13   -1    0    0    0    0  0.00000000000E+00  0.00000000000E+00  0.74505805969E-08  0.10566000000E+00  0.10566000000E+00 0. -1.
     999900   -1    0    0    0    0 -0.00000000000E+00 -0.00000000000E+00 -0.74505805969E-08  0.93827000000E+00  0.93827000000E+00 0.  1.
     999902    2    1    2    0    0  0.29290390662E-02 -0.23447022830E-01 -0.87407472092E-03  0.10202845743E+01  0.10200105423E+01 0.  0.
     999903    2    3    3    0    0 -0.10463698476E-01 -0.13072337247E+00  0.15472053521E-01  0.13351810194E+00  0.19738541235E-01 0.  0.
         14    1    1    2    0    0 -0.29290390662E-02  0.23447022830E-01  0.87407472092E-03  0.23645425690E-01  0.00000000000E+00 0. -1.
     999901    1    3    3    0    0  0.13392737542E-01  0.10727634964E+00 -0.16346128242E-01  0.88676647237E+00  0.88000000000E+00 0. -1.
        -11    1    4    4    0    0 -0.30050688718E-02 -0.27235524371E-01  0.11395987357E-01  0.29680530243E-01  0.51100000000E-03 0. -1.
         11    1    4    4    0    0 -0.74586296045E-02 -0.10348784810E+00  0.40760661642E-02  0.10383757170E+00  0.51100000000E-03 0.  1.
</event>
<event>
 8    1  0.1099478E+005  0.1043930E+01  0.7957747E-01            NaN
         13   -1    0    0    0    0  0.00000000000E+00  0.00000000000E+00  0.74505805969E-08  0.10566000000E+00  0.10566000000E+00 0. -1.
     999900   -1    0    0    0    0 -0.00000000000E+00 -0.00000000000E+00 -0.74505805969E-08  0.93827000000E+00  0.93827000000E+00 0.  1.
     999902    2    1    2    0    0  0.97630018327E-02 -0.10720025780E-01  0.59052556842E-02  0.10282741001E+01  0.10281549094E+01 0.  0.
     999903    2    3    3    0    0 -0.63764612461E-01 -0.55228985263E-01  0.10764978041E+00  0.13825201842E+00  0.20223223249E-01 0.  0.
         14    1    1    2    0    0 -0.97630018327E-02  0.10720025780E-01 -0.59052556842E-02  0.15655899917E-01  0.00000000000E+00 0. -1.
     999901    1    3    3    0    0  0.73527614293E-01  0.44508959483E-01 -0.10174452473E+00  0.89002208166E+00  0.88000000000E+00 0.  1.
        -11    1    4    4    0    0 -0.39747751498E-01 -0.28455629479E-01  0.47470406546E-01  0.68141816947E-01  0.51100000000E-03 0.  1.
         11    1    4    4    0    0 -0.24016860962E-01 -0.26773355783E-01  0.60179373866E-01  0.70110201471E-01  0.51100000000E-03 0. -1.
</event>
<event>
 8    1  0.1099478E+005  0.1043930E+01  0.7957747E-01            NaN
         13   -1    0    0    0    0  0.00000000000E+00  0.00000000000E+00  0.74505805969E-08  0.10566000000E+00  0.10566000000E+00 0. -1.
     999900   -1    0    0    0    0 -0.00000000000E+00 -0.00000000000E+00 -0.74505805969E-08  0.93827000000E+00  0.93827000000E+00 0. -1.
     999902    2    1    2    0    0 -0.19450283048E-01  0.17568944750E-01  0.66678468670E-02  0.10168848246E+01  0.10165251128E+01 0.  0.
     999903    2    3    3    0    0  0.86558942881E-01  0.22361519680E-01 -0.86012160826E-01  0.12567749262E+00  0.20106023638E-01 0.  0.
         14    1    1    2    0    0  0.19450283048E-01 -0.17568944750E-01 -0.66678468670E-02  0.27045175395E-01  0.00000000000E+00 0.  1.
     999901    1    3    3    0    0 -0.10600922593E+00 -0.47925749306E-02  0.92680007693E-01  0.89120733198E+00  0.88000000000E+00 0.  1.
        -11    1    4    4    0    0  0.35493732390E-01  0.41845793865E-02 -0.46246868710E-01  0.58449548587E-01  0.51100000000E-03 0.  1.
         11    1    4    4    0    0  0.51065210491E-01  0.18176940294E-01 -0.39765292117E-01  0.67227944034E-01  0.51100000000E-03 0. -1.
</event>
<event>
 8    1  0.1099478E+005  0.1043930E+01  0.7957747E-01            NaN
         13   -1    0    0    0    0  0.00000000000E+00  0.00000000000E+00  0.74505805969E-08  0.10566000000E+00  0.10566000000E+00 0.  1.
     999900   -1    0    0    0    0 -0.00000000000E+00 -0.00000000000E+00 -0.74505805969E-08  0.93827000000E+00  0.93827000000E+00 0. -1.
     999902    2    1    2    0    0  0.56297798832E-02 -0.14345657901E-01 -0.15914189916E-01  0.10217770372E+01  0.10215368617E+01 0.  0.
     999903    2    3    3    0    0 -0.12908731747E-01  0.12720025863E+00  0.10935743371E-01  0.12986905882E+00  0.19996019718E-01 0.  0.
         14    1    1    2    0    0 -0.56297798832E-02  0.14345657901E-01  0.15914189916E-01  0.22152962845E-01  0.00000000000E+00 0.  1.
     999901    1    3    3    0    0  0.18538511630E-01 -0.14154591653E+00 -0.26849933287E-01  0.89190797834E+00  0.88000000000E+00 0.  1.
        -11    1    4    4    0    0 -0.15566710840E-01  0.68083443842E-01  0.10917015611E-01  0.70690311661E-01  0.51100000000E-03 0. -1.
         11    1    4    4    0    0  0.26579790931E-02  0.59116814789E-01  0.18727759838E-04  0.59178747159E-01  0.51100000000E-03 0.  1.
</event>
<event>
 8    1  0.1099478E+005  0.1043930E+01  0.7957747E-01            NaN
         13   -1    0    0    0    0  0.00000000000E+00  0.00000000000E+00  0.74505805969E-08  0.10566000000E+00  0.10566000000E+00 0. -1.
     999900   -1    0    0    0    0 -0.00000000000E+00 -0.00000000000E+00 -0.74505805969E-08  0.93827000000E+00  0.93827000000E+00 0. -1.
     999902    2    1    2    0    0 -0.11139850029E-01 -0.20596356025E-01  0.36198152783E-02  0.10202359247E+01  0.10199607507E+01 0.  0.
     999903    2    3    3    0    0 -0.49355636880E-01 -0.74676001966E-01 -0.95242859169E-01  0.13222754478E+00  0.20010927359E-01 0.  0.
         14    1    1    2    0    0  0.11139850029E-01  0.20596356025E-01 -0.36198152783E-02  0.23694075268E-01  0.00000000000E+00 0. -1.
     999901    1    3    3    0    0  0.38215786852E-01  0.54079645941E-01  0.98862674447E-01  0.88800837995E+00  0.88000000000E+00 0.  1.
        -11    1    4    4    0    0 -0.47388231751E-01 -0.67195364118E-01 -0.78062732715E-01  0.11337950797E+00  0.51100000000E-03 0.  1.
         11    1    4    4    0    0 -0.19674051292E-02 -0.74806378481E-02 -0.17180126454E-01  0.18848036808E-01  0.51100000000E-03 0. -1.
</event>
<event>
 8    1  0.1099478E+005  0.1043930E+01  0.7957747E-01            NaN
         13   -1    0    0    0    0  0.00000000000E+00  0.00000000000E+00  0.74505805969E-08  0.10566000000E+00  0.10566000000E+00 0.  1.
     999900   -1    0    0    0    0 -0.00000000000E+00 -0.00000000000E+00 -0.74505805969E-08  0.93827000000E+00  0.93827000000E+00 0.  1.
     999902    2    1    2    0    0 -0.21329730794E-01 -0.45360294763E-02  0.96091912321E-02  0.10200999867E+01  0.10198216086E+01 0.  0.
     999903    2    3    3    0    0  0.22734389000E-01  0.55039621471E-01 -0.11218654840E+00  0.12862642731E+00  0.20315604506E-01 0.  0.
         14    1    1    2    0    0  0.21329730794E-01  0.45360294763E-02 -0.96091912321E-02  0.23830013329E-01  0.00000000000E+00 0. -1.
     999901    1    3    3    0    0 -0.44064119794E-01 -0.59575650948E-01  0.12179573963E+00  0.89147355936E+00  0.88000000000E+00 0. -1.
        -11    1    4    4    0    0  0.15350231644E-01  0.20048639616E-01 -0.62468855773E-01  0.67380981178E-01  0.51100000000E-03 0.  1.
         11    1    4    4    0    0  0.73841573564E-02  0.34990981856E-01 -0.49717692629E-01  0.61245446136E-01  0.51100000000E-03 0. -1.
</event>
<event>
 8    1  0.1099478E+005  0.1043930E+01  0.7957747E-01            NaN
         13   -1    0    0    0    0  0.00000000000E+00  0.00000000000E+00  0.74505805969E-08  0.10566000000E+00  0.10566000000E+00 0. -1.
     999900   -1    0    0    0    0 -0.00000000000E+00 -0.00000000000E+00 -0.74505805969E-08  0.93827000000E+00  0.93827000000E+00 0. -1.
     999902    2    1    2    0    0 -0.17190872429E-01  0.14861182109E-01  0.41637187812E-02  0.10208276758E+01  0.10205662283E+01 0.  0.
     999903    2    3    3    0    0 -0.74251394711E-01  0.92639457861E-01  0.58521398630E-01  0.13388905295E+00  0.20154047530E-01 0.  0.
         14    1    1    2    0    0  0.17190872429E-01 -0.14861182109E-01 -0.41637187812E-02  0.23102324183E-01  0.00000000000E+00 0.  1.
     999901    1    3    3    0    0  0.57060522281E-01 -0.77778275752E-01 -0.54357679848E-01  0.88693862287E+00  0.88000000000E+00 0. -1.
        -11    1    4    4    0    0 -0.42275707896E-01  0.36696628875E-01  0.27399648920E-01  0.62328804985E-01  0.51100000000E-03 0.  1.
         11    1    4    4    0    0 -0.31975686815E-01  0.55942828986E-01  0.31121749710E-01  0.71560247961E-01  0.51100000000E-03 0. -1.
</event>
<event>
 8    1  0.1099478E+005  0.1043930E+01  0.7957747E-01            NaN
         13   -1    0    0    0    0  0.00000000000E+00  0.00000000000E+00  0.74505805969E-08  0.10566000000E+00  0.10566000000E+00 0.  1.
     999900   -1    0    0    0    0 -0.00000000000E+00 -0.00000000000E+00 -0.74505805969E-08  0.93827000000E+00  0.93827000000E+00 0. -1.
     999902    2    1    2    0    0 -0.84460722162E-02  0.14570379485E-01  0.16140052332E-01  0.10206033332E+01  0.10203367240E+01 0.  0.
     999903    2    3    3    0    0  0.69930123570E-01 -0.99810193121E-01  0.39034505808E-01  0.12945244842E+00  0.19543462486E-01 0.  0.
         14    1    1    2    0    0  0.84460722162E-02 -0.14570379485E-01 -0.16140052332E-01  0.23326666789E-01  0.00000000000E+00 0. -1.
     999901    1    3    3    0    0 -0.78376195786E-01  0.11438057261E+00 -0.22894453476E-01  0.89115088479E+00  0.88000000000E+00 0. -1.
        -11    1    4    4    0    0  0.45580345058E-01 -0.79819140410E-01  0.29134598060E-01  0.96424835787E-01  0.51100000000E-03 0.  1.
         11    1    4    4    0    0  0.24349778513E-01 -0.19991052710E-01  0.98999077483E-02  0.33027612637E-01  0.51100000000E-03 0. -1.
</event>
<event>
 7    1  0.1099478E+005  0.1043930E+01  0.7957747E-01            NaN
         13   -1    0    0    0    0  0.00000000000E+00  0.00000000000E+00  0.74505805969E-08  0.10566000000E+00  0.10566000000E+00 0.  1.
     999900   -1    0    0    0    0 -0.00000000000E+00 -0.00000000000E+00 -0.74505805969E-08  0.93827000000E+00  0.93827000000E+00 0. -1.
     999903    2    1    2    0    0 -0.13127790887E-01  0.37858819479E-01  0.11064925504E+00  0.11914719348E+00  0.18632417094E-01 0.  0.
         14    1    1    2    0    0 -0.20676475445E-01 -0.18396994452E-01 -0.29088227853E-01  0.40150853557E-01  0.00000000000E+00 0. -1.
     999901    1    1    2    0    0  0.33804266332E-01 -0.19461825027E-01 -0.81561027185E-01  0.88463195297E+00  0.88000000000E+00 0. -1.
        -11    1    3    3    0    0 -0.13612705471E-01  0.12046439201E-01  0.40457348179E-01  0.44356291440E-01  0.51100000000E-03 0. -1.
         11    1    3    3    0    0  0.48491458379E-03  0.25812380278E-01  0.70191906859E-01  0.74790902036E-01  0.51100000000E-03 0.  1.
</event>
<event>
 8    1  0.1099478E+005  0.1043930E+01  0.7957747E-01            NaN
         13   -1    0    0    0    0  0.00000000000E+00  0.00000000000E+00  0.74505805969E-08  0.10566000000E+00  0.10566000000E+00 0.  1.
     999900   -1    0    0    0    0 -0.00000000000E+00 -0.00000000000E+00 -0.74505805969E-08  0.93827000000E+00  0.93827000000E+00 0. -1.
     999902    2    1    2    0    0  0.10933196876E-02 -0.15775013996E-01  0.15130814473E-01  0.10220442064E+01  0.10218098511E+01 0.  0.
     999903    2    3    3    0    0 -0.93204214201E-01 -0.89739789198E-01  0.25348890623E-01  0.13386223071E+00  0.23157617450E-01 0.  0.
         14    1    1    2    0    0 -0.10933196876E-02  0.15775013996E-01 -0.15130814473E-01  0.21885793592E-01  0.00000000000E+00 0.  1.
     999901    1    3    3    0    0  0.94297533889E-01  0.73964775201E-01 -0.10218076150E-01  0.88818197569E+00  0.88000000000E+00 0. -1.
        -11    1    4    4    0    0 -0.66252752341E-02 -0.16868386668E-01  0.56899275158E-02  0.19001924556E-01  0.51100000000E-03 0.  1.
         11    1    4    4    0    0 -0.86578938967E-01 -0.72871402530E-01  0.19658963107E-01  0.11486030616E+00  0.51100000000E-03 0. -1.
</event>
<event>
 8    1  0.1099478E+005  0.1043930E+01  0.7957747E-01            NaN
         13   -1    0    0    0    0  0.00000000000E+00  0.00000000000E+00  0.74505805969E-08  0.10566000000E+00  0.10566000000E+00 0. -1.
     999900   -1    0    0    0    0 -0.00000000000E+00 -0.00000000000E+00 -0.74505805969E-08  0.93827000000E+00  0.93827000000E+00 0.  1.
     999902    2    1    2    0    0 -0.15924076745E-01 -0.67681996596E-02 -0.17025125859E-01  0.10196557408E+01  0.10193667594E+01 0.  0.
     999903    2    3    3    0    0 -0.11923025910E+00 -0.48451828582E-01 -0.25383067723E-01  0.13259342769E+00  0.19320521785E-01 0.  0.
         14    1    1    2    0    0  0.15924076745E-01  0.67681996596E-02  0.17025125859E-01  0.24274259151E-01  0.00000000000E+00 0. -1.
     999901    1    3    3    0    0  0.10330618236E+00  0.41683628922E-01  0.83579418643E-02  0.88706231316E+00  0.88000000000E+00 0.  1.
        -11    1    4    4    0    0 -0.61646744833E-01 -0.20122636624E-01 -0.40990463771E-02  0.64979265581E-01  0.51100000000E-03 0.  1.
         11    1    4    4    0    0 -0.57583514267E-01 -0.28329191958E-01 -0.21284021346E-01  0.67614162111E-01  0.51100000000E-03 0. -1.
</event>
<event>
 8    1  0.1099478E+005  0.1043930E+01  0.7957747E-01            NaN
         13   -1    0    0    0    0  0.00000000000E+00  0.00000000000E+00  0.74505805969E-08  0.10566000000E+00  0.10566000000E+00 0.  1.
     999900   -1    0    0    0    0 -0.00000000000E+00 -0.00000000000E+00 -0.74505805969E-08  0.93827000000E+00  0.93827000000E+00 0.  1.
     999902    2    1    2    0    0 -0.56796219762E-03 -0.15305143414E-01  0.95607116009E-02  0.10258751612E+01  0.10257162713E+01 0.  0.
     999903    2    3    3    0    0  0.88310565185E-01 -0.54912781574E-01 -0.84603860663E-01  0.13551842134E+00  0.19830778612E-01 0.  0.
         14    1    1    2    0    0  0.56796219762E-03  0.15305143414E-01 -0.95607116009E-02  0.18054838751E-01  0.00000000000E+00 0.  1.
     999901    1    3    3    0    0 -0.88878527383E-01  0.39607638159E-01  0.94164572263E-01  0.89035673991E+00  0.88000000000E+00 0.  1.
        -11    1    4    4    0    0  0.14497560822E-01 -0.24236254705E-02 -0.72006977170E-02  0.16375725902E-01  0.51100000000E-03 0. -1.
         11    1    4    4    0    0  0.73813004363E-01 -0.52489156103E-01 -0.77403162946E-01  0.11914269544E+00  0.51100000000E-03 0.  1.
</event>
<event>
 8    1  0.1099478E+005  0.1043930E+01  0.7957747E-01            NaN
         13   -1    0    0    0    0  0.00000000000E+00  0.00000000000E+00  0.74505805969E-08  0.10566000000E+00  0.10566000000E+00 0.  1.
     999900   -1    0    0    0    0 -0.00000000000E+00 -0.00000000000E+00 -0.74505805969E-08  0.93827000000E+00  0.93827000000E+00 0. -1.
     999902    2    1    2    0    0  0.45668800215E-02 -0.17776562420E-01 -0.65100296111E-02  0.10244558363E+01  0.10242707247E+01 0.  0.
     999903    2    3    3    0    0  0.12562650584E+00 -0.33821380679E-01 -0.32884904065E-01  0.13563161120E+00  0.19713251379E-01 0.  0.
         14    1    1    2    0    0 -0.45668800215E-02  0.17776562420E-01  0.65100296111E-02  0.19474163657E-01  0.00000000000E+00 0.  1.
     999901    1    3    3    0    0 -0.12105962582E+00  0.16044818258E-01  0.26374874454E-01  0.88882422514E+00  0.88000000000E+00 0.  1.
        -11    1    4    4    0    0  0.54601729875E-01 -0.24440442063E-01 -0.12120287939E-01  0.61039713419E-01  0.51100000000E-03 0.  1.
         11    1    4    4    0    0  0.71024775969E-01 -0.93809386156E-02 -0.20764616126E-01  0.74591897781E-01  0.51100000000E-03 0. -1.
</event>
<event>
 8    1  0.1099478E+005  0.1043930E+01  0.7957747E-01            NaN
         13   -1    0    0    0    0  0.00000000000E+00  0.00000000000E+00  0.74505805969E-08  0.10566000000E+00  0.10566000000E+00 0. -1.
     999900   -1    0    0    0    0 -0.00000000000E+00 -0.00000000000E+00 -0.74505805969E-08  0.93827000000E+00  0.93827000000E+00 0.  1.
     999902    2    1    2    0    0  0.42666397115E-02  0.14614048045E-01 -0.17815734838E-01  0.10204955164E+01  0.10202264082E+01 0.  0.
     999903    2    3    3    0    0  0.60714398451E-01 -0.11241098859E+00  0.72422670290E-02  0.12923258500E+00  0.18059403608E-01 0.  0.
         14    1    1    2    0    0 -0.42666397115E-02 -0.14614048045E-01  0.17815734838E-01  0.23434483619E-01  0.00000000000E+00 0. -1.
     999901    1    3    3    0    0 -0.56447758740E-01  0.12702503663E+00 -0.25058001867E-01  0.89126293138E+00  0.88000000000E+00 0. -1.
        -11    1    4    4    0    0  0.35162691670E-01 -0.71088600590E-01 -0.38166536555E-02  0.79402972145E-01  0.51100000000E-03 0.  1.
         11    1    4    4    0    0  0.25551706781E-01 -0.41322387999E-01  0.11058920685E-01  0.49829612853E-01  0.51100000000E-03 0. -1.
</event>
<event>
 8    1  0.1099478E+005  0.1043930E+01  0.7957747E-01            NaN
         13   -1    0    0    0    0  0.00000000000E+00  0.00000000000E+00  0.74505805969E-08  0.10566000000E+00  0.10566000000E+00 0. -1.
     999900   -1    0    0    0    0 -0.00000000000E+00 -0.00000000000E+00 -0.74505805969E-08  0.93827000000E+00  0.93827000000E+00 0.  1.
     999902    2    1    2    0    0 -0.39197181829E-02 -0.14450842225E-01 -0.18778358285E-01  0.10199129691E+01  0.10196301520E+01 0.  0.
     999903    2    3    3    0    0 -0.51854942871E-01 -0.88405022948E-01  0.77828615864E-01  0.13025015994E+00  0.20085505580E-01 0.  0.
         14    1    1    2    0    0  0.39197181829E-02  0.14450842225E-01  0.18778358285E-01  0.24017030864E-01  0.00000000000E+00 0. -1.
     999901    1    3    3    0    0  0.47935224689E-01  0.73954180723E-01 -0.96606974149E-01  0.88966280920E+00  0.88000000000E+00 0.  1.
        -11    1    4    4    0    0 -0.29791966036E-01 -0.35405759474E-01  0.27023951281E-01  0.53588096701E-01  0.51100000000E-03 0.  1.
         11    1    4    4    0    0 -0.22062976836E-01 -0.52999263474E-01  0.50804664582E-01  0.76662063239E-01  0.51100000000E-03 0. -1.
</event>
<event>
 8    1  0.1099478E+005  0.1043930E+01  0.7957747E-01            NaN
         13   -1    0    0    0    0  0.00000000000E+00  0.00000000000E+00  0.74505805969E-08  0.10566000000E+00  0.10566000000E+00 0.  1.
     999900   -1    0    0    0    0 -0.00000000000E+00 -0.00000000000E+00 -0.74505805969E-08  0.93827000000E+00  0.93827000000E+00 0. -1.
     999902    2    1    2    0    0 -0.96790455387E-02 -0.13718065207E-01 -0.15879181320E-01  0.10208211784E+01  0.10205595821E+01 0.  0.
     999903    2    3    3    0    0  0.11392822801E+00  0.44884818682E-01 -0.38805057719E-01  0.12995718662E+00  0.19716738191E-01 0.  0.
         14    1    1    2    0    0  0.96790455387E-02  0.13718065207E-01  0.15879181320E-01  0.23108821583E-01  0.00000000000E+00 0.  1.
     999901    1    3    3    0    0 -0.12360727354E+00 -0.58602883889E-01  0.22925876399E-01  0.89086399180E+00  0.88000000000E+00 0.  1.
        -11    1    4    4    0    0  0.77020241371E-01  0.31882090344E-01 -0.16717467633E-01  0.85019527819E-01  0.51100000000E-03 0.  1.
         11    1    4    4    0    0  0.36907986635E-01  0.13002728338E-01 -0.22087590086E-01  0.44937658800E-01  0.51100000000E-03 0. -1.
</event>
<event>
 8    1  0.1099478E+005  0.1043930E+01  0.7957747E-01            NaN
         13   -1    0    0    0    0  0.00000000000E+00  0.00000000000E+00  0.74505805969E-08  0.10566000000E+00  0.10566000000E+00 0. -1.
     999900   -1    0    0    0    0 -0.00000000000E+00 -0.00000000000E+00 -0.74505805969E-08  0.93827000000E+00  0.93827000000E+00 0. -1.
     999902    2    1    2    0    0  0.23551696270E-01  0.61981913870E-02 -0.13501594107E-01  0.10160841203E+01  0.10157024892E+01 0.  0.
     999903    2    3    3    0    0 -0.33661715224E-01 -0.39068035943E-01  0.11132132430E+00  0.12428640401E+00  0.19880907301E-01 0.  0.
         14    1    1    2    0    0 -0.23551696270E-01 -0.61981913870E-02  0.13501594107E-01  0.27845879715E-01  0.00000000000E+00 0.  1.
     999901    1    3    3    0    0  0.57213411494E-01  0.45266227330E-01 -0.12482291840E+00  0.89179771627E+00  0.88000000000E+00 0. -1.
        -11    1    4    4    0    0 -0.33196421651E-01 -0.35329003444E-01  0.86364240357E-01  0.99041324851E-01  0.51100000000E-03 0. -1.
         11    1    4    4    0    0 -0.46529357223E-03 -0.37390324986E-02  0.24957083938E-01  0.25245079161E-01  0.51100000000E-03 0.  1.
</event>
<event>
 8    1  0.1099478E+005  0.1043930E+01  0.7957747E-01            NaN
         13   -1    0    0    0    0  0.00000000000E+00  0.00000000000E+00  0.74505805969E-08  0.10566000000E+00  0.10566000000E+00 0. -1.
     999900   -1    0    0    0    0 -0.00000000000E+00 -0.00000000000E+00 -0.74505805969E-08  0.93827000000E+00  0.93827000000E+00 0. -1.
     999902    2    1    2    0    0 -0.21439046079E-01  0.58825994121E-02 -0.13250783703E-02  0.10216590884E+01  0.10214163203E+01 0.  0.
     999903    2    3    3    0    0 -0.97701711420E-01 -0.87007960473E-01 -0.18793084923E-01  0.13331806066E+00  0.17450377000E-01 0.  0.
         14    1    1    2    0    0  0.21439046079E-01 -0.58825994121E-02  0.13250783703E-02  0.22270911640E-01  0.00000000000E+00 0.  1.
     999901    1    3    3    0    0  0.76262665341E-01  0.92890559885E-01  0.17468006553E-01  0.88834102770E+00  0.88000000000E+00 0.  1.
        -11    1    4    4    0    0 -0.87172060688E-01 -0.69440804074E-01 -0.17180809396E-01  0.11276717061E+00  0.51100000000E-03 0.  1.
         11    1    4    4    0    0 -0.10529650732E-01 -0.17567156399E-01 -0.16122755270E-02  0.20550890050E-01  0.51100000000E-03 0. -1.
</event>
<event>
 8    1  0.1099478E+005  0.1043930E+01  0.7957747E-01            NaN
         13   -1    0    0    0    0  0.00000000000E+00  0.00000000000E+00  0.74505805969E-08  0.10566000000E+00  0.10566000000E+00 0. -1.
     999900   -1    0    0    0    0 -0.00000000000E+00 -0.00000000000E+00 -0.74505805969E-08  0.93827000000E+00  0.93827000000E+00 0. -1.
     999902    2    1    2    0    0  0.35530816607E-02 -0.17474782244E-01 -0.15960431082E-01  0.10199982687E+01  0.10197174806E+01 0.  0.
     999903    2    3    3    0    0 -0.11763874563E+00 -0.45167524660E-02 -0.52845683177E-01  0.13083242849E+00  0.21568091868E-01 0.  0.
         14    1    1    2    0    0 -0.35530816607E-02  0.17474782244E-01  0.15960431082E-01  0.23931731322E-01  0.00000000000E+00 0. -1.
     999901    1    3    3    0    0  0.12119182729E+00 -0.12958029778E-01  0.36885252095E-01  0.88916584019E+00  0.88000000000E+00 0.  1.
        -11    1    4    4    0    0 -0.67744927620E-01 -0.12196154406E-01 -0.25417521782E-01  0.73378695376E-01  0.51100000000E-03 0.  1.
         11    1    4    4    0    0 -0.49893818012E-01  0.76794019397E-02 -0.27428161395E-01  0.57453733112E-01  0.51100000000E-03 0. -1.
</event>
<event>
 8    1  0.1099478E+005  0.1043930E+01  0.7957747E-01            NaN
         13   -1    0    0    0    0  0.00000000000E+00  0.00000000000E+00  0.74505805969E-08  0.10566000000E+00  0.10566000000E+00 0.  1.
     999900   -1    0    0    0    0 -0.00000000000E+00 -0.00000000000E+00 -0.74505805969E-08  0.93827000000E+00  0.93827000000E+00 0. -1.
     999902    2    1    2    0    0 -0.10524122164E-01  0.20930998191E-01 -0.50367915421E-02  0.10199668387E+01  0.10196853038E+01 0.  0.
     999903    2    3    3    0    0  0.87848608700E-01 -0.90269152254E-01  0.31696076540E-02  0.12749274232E+00  0.19453920762E-01 0.  0.
         14    1    1    2    0    0  0.10524122164E-01 -0.20930998191E-01  0.50367915421E-02  0.23963161344E-01  0.00000000000E+00 0.  1.
     999901    1    3    3    0    0 -0.98372730864E-01  0.11120015045E+00 -0.82063991961E-02  0.89247409633E+00  0.88000000000E+00 0.  1.
        -11    1    4    4    0    0  0.27234695155E-01 -0.33742128253E-01  0.94129023597E-02  0.44374809194E-01  0.51100000000E-03 0.  1.
         11    1    4    4    0    0  0.60613913546E-01 -0.56527024002E-01 -0.62432947057E-02  0.83117933129E-01  0.51100000000E-03 0. -1.
</event>
<event>
 7    1  0.1145247E+005  0.1043930E+01  0.7957747E-01            NaN
         13   -1    0    0    0    0  0.00000000000E+00  0.00000000000E+00  0.74505805969E-08  0.10566000000E+00  0.10566000000E+00 0.  1.
     999900   -1    0    0    0    0 -0.00000000000E+00 -0.00000000000E+00 -0.74505805969E-08  0.93827000000E+00  0.93827000000E+00 0. -1.
     999903    2    1    2    0    0 -0.57518060558E-01  0.65597003267E-01  0.71430826732E-01  0.11458673292E+00  0.20407406148E-01 0.  0.
         14    1    1    2    0    0  0.21352931588E-01  0.19233352396E-01  0.26538653242E-01  0.39117382935E-01  0.00000000000E+00 0.  1.
     999901    1    1    2    0    0  0.36165128970E-01 -0.84830355663E-01 -0.97969479974E-01  0.89022588415E+00  0.88000000000E+00 0. -1.
        -11    1    3    3    0    0 -0.34239905601E-01  0.24580409103E-01  0.29198826120E-01  0.51277677551E-01  0.51100000000E-03 0. -1.
         11    1    3    3    0    0 -0.23278154957E-01  0.41016594164E-01  0.42232000612E-01  0.63309055369E-01  0.51100000000E-03 0.  1.
</event>
<event>
 8    1  0.1099478E+005  0.1043930E+01  0.7957747E-01            NaN
         13   -1    0    0    0    0  0.00000000000E+00  0.00000000000E+00  0.74505805969E-08  0.10566000000E+00  0.10566000000E+00 0. -1.
     999900   -1    0    0    0    0 -0.00000000000E+00 -0.00000000000E+00 -0.74505805969E-08  0.93827000000E+00  0.93827000000E+00 0.  1.
     999902    2    1    2    0    0  0.25492894237E-02 -0.39416888755E-02  0.22817036443E-01  0.10206350877E+01  0.10203692122E+01 0.  0.
     999903    2    3    3    0    0  0.75006023477E-01 -0.57927585779E-01 -0.85945990211E-01  0.12934733878E+00  0.19039749599E-01 0.  0.
         14    1    1    2    0    0 -0.25492894237E-02  0.39416888755E-02 -0.22817036443E-01  0.23294912316E-01  0.00000000000E+00 0.  1.
     999901    1    3    3    0    0 -0.72456734054E-01  0.53985896903E-01  0.10876302665E+00  0.89128774890E+00  0.88000000000E+00 0.  1.
        -11    1    4    4    0    0  0.53327987803E-01 -0.30237870773E-01 -0.50684957570E-01  0.79545139116E-01  0.51100000000E-03 0. -1.
         11    1    4    4    0    0  0.21678035674E-01 -0.27689715006E-01 -0.35261032641E-01  0.49802199667E-01  0.51100000000E-03 0.  1.
</event>
<event>
 8    1  0.1099478E+005  0.1043930E+01  0.7957747E-01            NaN
         13   -1    0    0    0    0  0.00000000000E+00  0.00000000000E+00  0.74505805969E-08  0.10566000000E+00  0.10566000000E+00 0. -1.
     999900   -1    0    0    0    0 -0.00000000000E+00 -0.00000000000E+00 -0.74505805969E-08  0.93827000000E+00  0.93827000000E+00 0. -1.
     999902    2    1    2    0    0  0.18718377088E-01 -0.57927509252E-02  0.35875227993E-02  0.10240100622E+01  0.10238162938E+01 0.  0.
     999903    2    3    3    0    0  0.77254740120E-01 -0.81142142533E-01  0.74458507342E-01  0.13601978458E+00  0.20123874262E-01 0.  0.
         14    1    1    2    0    0 -0.18718377088E-01  0.57927509252E-02 -0.35875227993E-02  0.19919937849E-01  0.00000000000E+00 0. -1.
     999901    1    3    3    0    0 -0.58536363032E-01  0.75349391608E-01 -0.70870984543E-01  0.88799027757E+00  0.88000000000E+00 0. -1.
        -11    1    4    4    0    0  0.27218187469E-01 -0.23779388038E-01  0.13818466445E-01  0.38697547214E-01  0.51100000000E-03 0.  1.
         11    1    4    4    0    0  0.50036552651E-01 -0.57362754496E-01  0.60640040897E-01  0.97322237364E-01  0.51100000000E-03 0. -1.
</event>
<event>
 8    1  0.1099478E+005  0.1043930E+01  0.7957747E-01            NaN
         13   -1    0    0    0    0  0.00000000000E+00  0.00000000000E+00  0.74505805969E-08  0.10566000000E+00  0.10566000000E+00 0.  1.
     999900   -1    0    0    0    0 -0.00000000000E+00 -0.00000000000E+00 -0.74505805969E-08  0.93827000000E+00  0.93827000000E+00 0.  1.
     999902    2    1    2    0    0 -0.15734529600E-01 -0.17177680590E-01  0.83479142663E-02  0.10191845801E+01  0.10188841311E+01 0.  0.
     999903    2    3    3    0    0 -0.11333525862E+00 -0.20356355001E-01 -0.59461176117E-01  0.13119016628E+00  0.20395250181E-01 0.  0.
         14    1    1    2    0    0  0.15734529600E-01  0.17177680590E-01 -0.83479142663E-02  0.24745419875E-01  0.00000000000E+00 0. -1.
     999901    1    3    3    0    0  0.97600729015E-01  0.31786744103E-02  0.67809090383E-01  0.88799441384E+00  0.88000000000E+00 0. -1.
        -11    1    4    4    0    0 -0.38047391503E-01 -0.39427375108E-02 -0.97116207163E-02  0.39468036146E-01  0.51100000000E-03 0. -1.
         11    1    4    4    0    0 -0.75287867112E-01 -0.16413617490E-01 -0.49749555401E-01  0.91722130137E-01  0.51100000000E-03 0.  1.
</event>
<event>
 8    1  0.1099478E+005  0.1043930E+01  0.7957747E-01            NaN
         13   -1    0    0    0    0  0.00000000000E+00  0.00000000000E+00  0.74505805969E-08  0.10566000000E+00  0.10566000000E+00 0. -1.
     999900   -1    0    0    0    0 -0.00000000000E+00 -0.00000000000E+00 -0.74505805969E-08  0.93827000000E+00  0.93827000000E+00 0. -1.
     999902    2    1    2    0    0  0.22058721021E-01 -0.53719736816E-03  0.13916623944E-01  0.10178426817E+01  0.10175083177E+01 0.  0.
     999903    2    3    3    0    0  0.11777075037E+00 -0.50248256793E-02 -0.52803744138E-01  0.13013071327E+00  0.15829359591E-01 0.  0.
         14    1    1    2    0    0 -0.22058721021E-01  0.53719736816E-03 -0.13916623944E-01  0.26087318301E-01  0.00000000000E+00 0. -1.
     999901    1    3    3    0    0 -0.95712029353E-01  0.44876283112E-02  0.66720368082E-01  0.88771196843E+00  0.88000000000E+00 0.  1.
        -11    1    4    4    0    0  0.68935619039E-01 -0.99821289549E-02 -0.27332160287E-01  0.74826937514E-01  0.51100000000E-03 0.  1.
         11    1    4    4    0    0  0.48835131336E-01  0.49573032756E-02 -0.25471583851E-01  0.55303775759E-01  0.51100000000E-03 0. -1.
</event>
<event>
 8    1  0.1099478E+005  0.1043930E+01  0.7957747E-01            NaN
         13   -1    0    0    0    0  0.00000000000E+00  0.00000000000E+00  0.74505805969E-08  0.10566000000E+00  0.10566000000E+00 0. -1.
     999900   -1    0    0    0    0 -0.00000000000E+00 -0.00000000000E+00 -0.74505805969E-08  0.93827000000E+00  0.93827000000E+00 0. -1.
     999902    2    1    2    0    0  0.19900017987E-01  0.11832077219E-01 -0.42514859225E-02  0.10203910132E+01  0.10201194714E+01 0.  0.
     999903    2    3    3    0    0 -0.87796921089E-01  0.78843039818E-01  0.49846474871E-01  0.12965216866E+00  0.20012233806E-01 0.  0.
         14    1    1    2    0    0 -0.19900017987E-01 -0.11832077219E-01  0.42514859225E-02  0.23538986804E-01  0.00000000000E+00 0. -1.
     999901    1    3    3    0    0  0.10769693908E+00 -0.67010962600E-01 -0.54097960794E-01  0.89073884453E+00  0.88000000000E+00 0. -1.
        -11    1    4    4    0    0 -0.61964119774E-01  0.65887597506E-01  0.41856451649E-01  0.99664192718E-01  0.51100000000E-03 0. -1.
         11    1    4    4    0    0 -0.25832801315E-01  0.12955442312E-01  0.79900232220E-02  0.29987975947E-01  0.51100000000E-03 0.  1.
</event>
<event>
 8    1  0.1099478E+005  0.1043930E+01  0.7957747E-01            NaN
         13   -1    0    0    0    0  0.00000000000E+00  0.00000000000E+00  0.74505805969E-08  0.10566000000E+00  0.10566000000E+00 0. -1.
     999900   -1    0    0    0    0 -0.00000000000E+00 -0.00000000000E+00 -0.74505805969E-08  0.93827000000E+00  0.93827000000E+00 0. -1.
     999902    2    1    2    0    0  0.29789611287E-03 -0.23315429990E-01 -0.22355725189E-02  0.10205057433E+01  0.10202368726E+01 0.  0.
     999903    2    3    3    0    0 -0.11545509453E+00 -0.68088056123E-02  0.58782107964E-01  0.13067745603E+00  0.15653198060E-01 0.  0.
         14    1    1    2    0    0 -0.29789611287E-03  0.23315429990E-01  0.22355725189E-02  0.23424256706E-01  0.00000000000E+00 0.  1.
     999901    1    3    3    0    0  0.11575299064E+00 -0.16506624378E-01 -0.61017680483E-01  0.88982828727E+00  0.88000000000E+00 0.  1.
        -11    1    4    4    0    0 -0.69158144425E-01 -0.55815783000E-03  0.42627180110E-01  0.81243449493E-01  0.51100000000E-03 0.  1.
         11    1    4    4    0    0 -0.46296950107E-01 -0.62506477823E-02  0.16154927854E-01  0.49434006533E-01  0.51100000000E-03 0. -1.
</event>
<event>
 8    1  0.1099478E+005  0.1043930E+01  0.7957747E-01            NaN
         13   -1    0    0    0    0  0.00000000000E+00  0.00000000000E+00  0.74505805969E-08  0.10566000000E+00  0.10566000000E+00 0. -1.
     999900   -1    0    0    0    0 -0.00000000000E+00 -0.00000000000E+00 -0.74505805969E-08  0.93827000000E+00  0.93827000000E+00 0.  1.
     999902    2    1    2    0    0 -0.19458232195E-02 -0.19204486993E-01  0.13881914591E-01  0.10201538333E+01  0.10198767267E+01 0.  0.
     999903    2    3    3    0    0  0.11112298203E+00 -0.15760002392E-01 -0.59455356806E-01  0.12988714600E+00  0.27185224514E-01 0.  0.
         14    1    1    2    0    0  0.19458232195E-02  0.19204486993E-01 -0.13881914591E-01  0.23776166667E-01  0.00000000000E+00 0.  1.
     999901    1    3    3    0    0 -0.11306880525E+00 -0.34444846007E-02  0.73337271397E-01  0.89026668733E+00  0.88000000000E+00 0. -1.
        -11    1    4    4    0    0  0.34607644573E-01 -0.81721435582E-03 -0.32248848586E-01  0.47313911890E-01  0.51100000000E-03 0. -1.
         11    1    4    4    0    0  0.76515337462E-01 -0.14942788036E-01 -0.27206508220E-01  0.82573234112E-01  0.51100000000E-03 0.  1.
</event>
<event>
 8    1  0.1099478E+005  0.1043930E+01  0.7957747E-01            NaN
         13   -1    0    0    0    0  0.00000000000E+00  0.00000000000E+00  0.74505805969E-08  0.10566000000E+00  0.10566000000E+00 0. -1.
     999900   -1    0    0    0    0 -0.00000000000E+00 -0.00000000000E+00 -0.74505805969E-08  0.93827000000E+00  0.93827000000E+00 0. -1.
     999902    2    1    2    0    0  0.17822509180E-01 -0.11485991781E-01 -0.11430755179E-01  0.10198419946E+01  0.10195574834E+01 0.  0.
     999903    2    3    3    0    0  0.51440621773E-02 -0.99768808158E-01 -0.84582577821E-01  0.13231408639E+00  0.19300998121E-01 0.  0.
         14    1    1    2    0    0 -0.17822509180E-01  0.11485991781E-01  0.11430755179E-01  0.24088005409E-01  0.00000000000E+00 0. -1.
     999901    1    3    3    0    0  0.12678447002E-01  0.88282816377E-01  0.73151822642E-01  0.88752790820E+00  0.88000000000E+00 0.  1.
        -11    1    4    4    0    0  0.98325686293E-02 -0.60882786002E-01 -0.42980121646E-01  0.75172767774E-01  0.51100000000E-03 0.  1.
         11    1    4    4    0    0 -0.46885064520E-02 -0.38886022156E-01 -0.41602456176E-01  0.57141318612E-01  0.51100000000E-03 0. -1.
</event>
<event>
 8    1  0.1099478E+005  0.1043930E+01  0.7957747E-01            NaN
         13   -1    0    0    0    0  0.00000000000E+00  0.00000000000E+00  0.74505805969E-08  0.10566000000E+00  0.10566000000E+00 0. -1.
     999900   -1    0    0    0    0 -0.00000000000E+00 -0.00000000000E+00 -0.74505805969E-08  0.93827000000E+00  0.93827000000E+00 0. -1.
     999902    2    1    2    0    0  0.18640332002E-01 -0.24984148083E-02 -0.12258785098E-01  0.10214804596E+01  0.10212337379E+01 0.  0.
     999903    2    3    3    0    0 -0.91680347768E-01 -0.11240912899E-01 -0.90749712811E-01  0.13108284648E+00  0.20385239162E-01 0.  0.
         14    1    1    2    0    0 -0.18640332002E-01  0.24984148083E-02  0.12258785098E-01  0.22449540436E-01  0.00000000000E+00 0. -1.
     999901    1    3    3    0    0  0.11032067977E+00  0.87424980910E-02  0.78490927713E-01  0.89039761309E+00  0.88000000000E+00 0.  1.
        -11    1    4    4    0    0 -0.34822346418E-01  0.25469016087E-02 -0.44118322536E-01  0.56265175928E-01  0.51100000000E-03 0.  1.
         11    1    4    4    0    0 -0.56858001350E-01 -0.13787814508E-01 -0.46631390275E-01  0.74817670549E-01  0.51100000000E-03 0. -1.
</event>
<event>
 8    1  0.1099478E+005  0.1043930E+01  0.7957747E-01            NaN
         13   -1    0    0    0    0  0.00000000000E+00  0.00000000000E+00  0.74505805969E-08  0.10566000000E+00  0.10566000000E+00 0. -1.
     999900   -1    0    0    0    0 -0.00000000000E+00 -0.00000000000E+00 -0.74505805969E-08  0.93827000000E+00  0.93827000000E+00 0. -1.
     999902    2    1    2    0    0  0.32226110448E-02 -0.21155962689E-01  0.74200229612E-02  0.10212801276E+01  0.10210289331E+01 0.  0.
     999903    2    3    3    0    0  0.48686632025E-01  0.60525904408E-01  0.10376282682E+00  0.13109989839E+00  0.19664330292E-01 0.  0.
         14    1    1    2    0    0 -0.32226110448E-02  0.21155962689E-01 -0.74200229612E-02  0.22649872406E-01  0.00000000000E+00 0.  1.
     999901    1    3    3    0    0 -0.45464020980E-01 -0.81681867097E-01 -0.96342803856E-01  0.89018022921E+00  0.88000000000E+00 0. -1.
        -11    1    4    4    0    0  0.47339025623E-01  0.47886949742E-01  0.89203549971E-01  0.11176617445E+00  0.51100000000E-03 0.  1.
         11    1    4    4    0    0  0.13476064025E-02  0.12638954666E-01  0.14559276846E-01  0.19333723939E-01  0.51100000000E-03 0. -1.
</event>
<event>
 8    1  0.1099478E+005  0.1043930E+01  0.7957747E-01            NaN
         13   -1    0    0    0    0  0.00000000000E+00  0.00000000000E+00  0.74505805969E-08  0.10566000000E+00  0.10566000000E+00 0. -1.
     999900   -1    0    0    0    0 -0.00000000000E+00 -0.00000000000E+00 -0.74505805969E-08  0.93827000000E+00  0.93827000000E+00 0.  1.
     999902    2    1    2    0    0  0.56721111764E-02 -0.16856049272E-01 -0.14071354181E-01  0.10212517670E+01  0.10209999360E+01 0.  0.
     999903    2    3    3    0    0 -0.11547617641E-01 -0.25116910918E-01 -0.12913015750E+00  0.13355627356E+00  0.19961812159E-01 0.  0.
         14    1    1    2    0    0 -0.56721111764E-02  0.16856049272E-01  0.14071354181E-01  0.22678232972E-01  0.00000000000E+00 0. -1.
     999901    1    3    3    0    0  0.17219728818E-01  0.82608616467E-02  0.11505880332E+00  0.88769549346E+00  0.88000000000E+00 0. -1.
        -11    1    4    4    0    0 -0.99499604769E-02 -0.78957109263E-02 -0.25516483144E-01  0.28507823445E-01  0.51100000000E-03 0.  1.
         11    1    4    4    0    0 -0.15976571645E-02 -0.17221199992E-01 -0.10361367436E+00  0.10504845012E+00  0.51100000000E-03 0. -1.
</event>
<event>
 8    1  0.1099478E+005  0.1043930E+01  0.7957747E-01            NaN
         13   -1    0    0    0    0  0.00000000000E+00  0.00000000000E+00  0.74505805969E-08  0.10566000000E+00  0.10566000000E+00 0. -1.
     999900   -1    0    0    0    0 -0.00000000000E+00 -0.00000000000E+00 -0.74505805969E-08  0.93827000000E+00  0.93827000000E+00 0. -1.
     999902    2    1    2    0    0 -0.26266422955E-02 -0.16776615779E-01 -0.16660012212E-01  0.10201411351E+01  0.10198637288E+01 0.  0.
     999903    2    3    3    0    0 -0.91782989678E-01 -0.91663808110E-01  0.13676317714E-01  0.13195352047E+00  0.19957930419E-01 0.  0.
         14    1    1    2    0    0  0.26266422955E-02  0.16776615779E-01  0.16660012212E-01  0.23788864909E-01  0.00000000000E+00 0. -1.
     999901    1    3    3    0    0  0.89156347383E-01  0.74887192331E-01 -0.30336329926E-01  0.88818761462E+00  0.88000000000E+00 0. -1.
        -11    1    4    4    0    0 -0.72194134371E-01 -0.61521570727E-01  0.14707639134E-01  0.95986834890E-01  0.51100000000E-03 0. -1.
         11    1    4    4    0    0 -0.19588855307E-01 -0.30142237383E-01 -0.10313214204E-02  0.35966685579E-01  0.51100000000E-03 0.  1.
</event>
<event>
 8    1  0.1099478E+005  0.1043930E+01  0.7957747E-01            NaN
         13   -1    0    0    0    0  0.00000000000E+00  0.00000000000E+00  0.74505805969E-08  0.10566000000E+00  0.10566000000E+00 0. -1.
     999900   -1    0    0    0    0 -0.00000000000E+00 -0.00000000000E+00 -0.74505805969E-08  0.93827000000E+00  0.93827000000E+00 0. -1.
     999902    2    1    2    0    0  0.10351419563E-01 -0.15211060835E-01  0.47953733601E-02  0.10249162191E+01  0.10247398364E+01 0.  0.
     999903    2    3    3    0    0  0.10123265192E+00  0.84107103864E-01  0.19791030432E-01  0.13455204306E+00  0.19761393413E-01 0.  0.
         14    1    1    2    0    0 -0.10351419563E-01  0.15211060835E-01 -0.47953733601E-02  0.19013780907E-01  0.00000000000E+00 0. -1.
     999901    1    3    3    0    0 -0.90881232362E-01 -0.99318164699E-01 -0.14995657071E-01  0.89036417603E+00  0.88000000000E+00 0. -1.
        -11    1    4    4    0    0  0.33243266624E-01  0.22664082121E-01  0.14458409170E-01  0.42756076889E-01  0.51100000000E-03 0. -1.
         11    1    4    4    0    0  0.67989385300E-01  0.61443021743E-01  0.53326212617E-02  0.91795966170E-01  0.51100000000E-03 0.  1.
</event>
<event>
 8    1  0.1099478E+005  0.1043930E+01  0.7957747E-01            NaN
         13   -1    0    0    0    0  0.00000000000E+00  0.00000000000E+00  0.74505805969E-08  0.10566000000E+00  0.10566000000E+00 0. -1.
     999900   -1    0    0    0    0 -0.00000000000E+00 -0.00000000000E+00 -0.74505805969E-08  0.93827000000E+00  0.93827000000E+00 0. -1.
     999902    2    1    2    0    0 -0.20958604960E-01 -0.11433619328E-01 -0.44113210619E-03  0.10200514454E+01  0.10197719186E+01 0.  0.
     999903    2    3    3    0    0 -0.37872489853E-02  0.23126277908E-02 -0.12899261582E+00  0.13043956443E+00  0.18859839100E-01 0.  0.
         14    1    1    2    0    0  0.20958604960E-01  0.11433619328E-01  0.44113210619E-03  0.23878554611E-01  0.00000000000E+00 0. -1.
     999901    1    3    3    0    0 -0.17171355974E-01 -0.13746247119E-01  0.12855148371E+00  0.88961188096E+00  0.88000000000E+00 0.  1.
        -11    1    4    4    0    0 -0.93862106141E-02  0.61841310760E-02 -0.55404465929E-01  0.56535479062E-01  0.51100000000E-03 0. -1.
         11    1    4    4    0    0  0.55989616288E-02 -0.38715032852E-02 -0.73588149890E-01  0.73904085369E-01  0.51100000000E-03 0.  1.
</event>
<event>
 8    1  0.1099478E+005  0.1043930E+01  0.7957747E-01            NaN
         13   -1    0    0    0    0  0.00000000000E+00  0.00000000000E+00  0.74505805969E-08  0.10566000000E+00  0.10566000000E+00 0.  1.
     999900   -1    0    0    0    0 -0.00000000000E+00 -0.00000000000E+00 -0.74505805969E-08  0.93827000000E+00  0.93827000000E+00 0.  1.
     999902    2    1    2    0    0 -0.70809885522E-02  0.12505840746E-01  0.18451707724E-01  0.10205419268E+01  0.10202738957E+01 0.  0.
     999903    2    3    3    0    0  0.52756863119E-01  0.11638573819E+00  0.28193664006E-01  0.13236035338E+00  0.19886020175E-01 0.  0.
         14    1    1    2    0    0  0.70809885522E-02 -0.12505840746E-01 -0.18451707724E-01  0.23388073233E-01  0.00000000000E+00 0.  1.
     999901    1    3    3    0    0 -0.59837851671E-01 -0.10387989744E+00 -0.97419562818E-02  0.88818157338E+00  0.88000000000E+00 0. -1.
        -11    1    4    4    0    0  0.26077796871E-01  0.63279037097E-01  0.52250817384E-02  0.68642921163E-01  0.51100000000E-03 0. -1.
         11    1    4    4    0    0  0.26679066248E-01  0.53106701090E-01  0.22968582267E-01  0.63717432221E-01  0.51100000000E-03 0.  1.
</event>
<event>
 8    1  0.1099478E+005  0.1043930E+01  0.7957747E-01            NaN
         13   -1    0    0    0    0  0.00000000000E+00  0.00000000000E+00  0.74505805969E-08  0.10566000000E+00  0.10566000000E+00 0.  1.
     999900   -1    0    0    0    0 -0.00000000000E+00 -0.00000000000E+00 -0.74505805969E-08  0.93827000000E+00  0.93827000000E+00 0. -1.
     999902    2    1    2    0    0 -0.20232742602E-01 -0.82921394316E-02 -0.23927618483E-01  0.10115162008E+01  0.10109967212E+01 0.  0.
     999903    2    3    3    0    0  0.16437459546E-02  0.56749976387E-01  0.10381578397E+00  0.11964881471E+00  0.17744298733E-01 0.  0.
         14    1    1    2    0    0  0.20232742602E-01  0.82921394316E-02  0.23927618483E-01  0.32413799158E-01  0.00000000000E+00 0.  1.
     999901    1    3    3    0    0 -0.21876488557E-01 -0.65042115819E-01 -0.12774340246E+00  0.89186738614E+00  0.88000000000E+00 0. -1.
        -11    1    4    4    0    0  0.46274063965E-02  0.28871543660E-01  0.69017945734E-01  0.74958100814E-01  0.51100000000E-03 0. -1.
         11    1    4    4    0    0 -0.29836604418E-02  0.27878432727E-01  0.34797838241E-01  0.44690713892E-01  0.51100000000E-03 0.  1.
</event>
<event>
 8    1  0.1099478E+005  0.1043930E+01  0.7957747E-01            NaN
         13   -1    0    0    0    0  0.00000000000E+00  0.00000000000E+00  0.74505805969E-08  0.10566000000E+00  0.10566000000E+00 0.  1.
     999900   -1    0    0    0    0 -0.00000000000E+00 -0.00000000000E+00 -0.74505805969E-08  0.93827000000E+00  0.93827000000E+00 0.  1.
     999902    2    1    2    0    0 -0.10810340423E-01  0.65084336546E-02 -0.17553408287E-01  0.10223118291E+01  0.10220832308E+01 0.  0.
     999903    2    3    3    0    0  0.46934715955E-01  0.60819962729E-01  0.10354022039E+00  0.13048903249E+00  0.20121504246E-01 0.  0.
         14    1    1    2    0    0  0.10810340423E-01 -0.65084336546E-02  0.17553408287E-01  0.21618170856E-01  0.00000000000E+00 0.  1.
     999901    1    3    3    0    0 -0.57745056377E-01 -0.54311529075E-01 -0.12109362868E+00  0.89182279665E+00  0.88000000000E+00 0.  1.
        -11    1    4    4    0    0  0.43917065402E-01  0.51457515625E-01  0.78782203434E-01  0.10384354215E+00  0.51100000000E-03 0. -1.
         11    1    4    4    0    0  0.30176505532E-02  0.93624471045E-02  0.24758016957E-01  0.26645490337E-01  0.51100000000E-03 0.  1.
</event>
<event>
 8    1  0.1099478E+005  0.1043930E+01  0.7957747E-01            NaN
         13   -1    0    0    0    0  0.00000000000E+00  0.00000000000E+00  0.74505805969E-08  0.10566000000E+00  0.10566000000E+00 0. -1.
     999900   -1    0    0    0    0 -0.00000000000E+00 -0.00000000000E+00 -0.74505805969E-08  0.93827000000E+00  0.93827000000E+00 0.  1.
     999902    2    1    2    0    0 -0.15340296438E-01  0.18427998086E-01  0.18899412928E-02  0.10198782290E+01  0.10195945833E+01 0.  0.
     999903    2    3    3    0    0  0.31206830298E-01 -0.73488707060E-01  0.98912875291E-01  0.12857089405E+00  0.19294081344E-01 0.  0.
         14    1    1    2    0    0  0.15340296438E-01 -0.18427998086E-01 -0.18899412928E-02  0.24051770961E-01  0.00000000000E+00 0. -1.
     999901    1    3    3    0    0 -0.46547126735E-01  0.91916705146E-01 -0.97022933998E-01  0.89130733499E+00  0.88000000000E+00 0.  1.
        -11    1    4    4    0    0  0.25452904305E-02 -0.22424862554E-01  0.37061270779E-01  0.43395297864E-01  0.51100000000E-03 0.  1.
         11    1    4    4    0    0  0.28661539867E-01 -0.51063844506E-01  0.61851604512E-01  0.85175596182E-01  0.51100000000E-03 0. -1.
</event>
<event>
 8    1  0.1099478E+005  0.1043930E+01  0.7957747E-01            NaN
         13   -1    0    0    0    0  0.00000000000E+00  0.00000000000E+00  0.74505805969E-08  0.10566000000E+00  0.10566000000E+00 0.  1.
     999900   -1    0    0    0    0 -0.00000000000E+00 -0.00000000000E+00 -0.74505805969E-08  0.93827000000E+00  0.93827000000E+00 0. -1.
     999902    2    1    2    0    0 -0.19527126367E-01  0.61129330163E-02 -0.12228066242E-01  0.10200930074E+01  0.10198144642E+01 0.  0.
     999903    2    3    3    0    0 -0.15010467624E-01  0.66852656266E-01  0.10846586380E+00  0.12976905568E+00  0.19508265281E-01 0.  0.
         14    1    1    2    0    0  0.19527126367E-01 -0.61129330163E-02  0.12228066242E-01  0.23836992642E-01  0.00000000000E+00 0.  1.
     999901    1    3    3    0    0 -0.45166587429E-02 -0.60739723250E-01 -0.12069393004E+00  0.89032395168E+00  0.88000000000E+00 0. -1.
        -11    1    4    4    0    0  0.40176025027E-03  0.28595519597E-01  0.57342766131E-01  0.64080567264E-01  0.51100000000E-03 0. -1.
         11    1    4    4    0    0 -0.15412227874E-01  0.38257136670E-01  0.51123097665E-01  0.65688488414E-01  0.51100000000E-03 0.  1.
</event>
<event>
 8    1  0.1099478E+005  0.1043930E+01  0.7957747E-01            NaN
         13   -1    0    0    0    0  0.00000000000E+00  0.00000000000E+00  0.74505805969E-08  0.10566000000E+00  0.10566000000E+00 0.  1.
     999900   -1    0    0    0    0 -0.00000000000E+00 -0.00000000000E+00 -0.74505805969E-08  0.93827000000E+00  0.93827000000E+00 0.  1.
     999902    2    1    2    0    0 -0.15163319312E-01  0.32820096518E-02 -0.23261927482E-01  0.10159690431E+01  0.10155842070E+01 0.  0.
     999903    2    3    3    0    0 -0.51543230811E-01 -0.86384117299E-01 -0.77837744885E-01  0.12898424497E+00  0.21431298575E-01 0.  0.
         14    1    1    2    0    0  0.15163319312E-01 -0.32820096518E-02  0.23261927482E-01  0.27960956888E-01  0.00000000000E+00 0.  1.
     999901    1    3    3    0    0  0.36379911498E-01  0.89666126951E-01  0.54575817403E-01  0.88698479814E+00  0.88000000000E+00 0.  1.
        -11    1    4    4    0    0 -0.20791053249E-01 -0.45995388830E-01 -0.50162527980E-01  0.71164485688E-01  0.51100000000E-03 0. -1.
         11    1    4    4    0    0 -0.30752177562E-01 -0.40388728469E-01 -0.27675216905E-01  0.57819759286E-01  0.51100000000E-03 0.  1.
</event>
<event>
 8    1  0.1099478E+005  0.1043930E+01  0.7957747E-01            NaN
         13   -1    0    0    0    0  0.00000000000E+00  0.00000000000E+00  0.74505805969E-08  0.10566000000E+00  0.10566000000E+00 0. -1.
     999900   -1    0    0    0    0 -0.00000000000E+00 -0.00000000000E+00 -0.74505805969E-08  0.93827000000E+00  0.93827000000E+00 0.  1.
     999902    2    1    2    0    0  0.12798265931E-02  0.18650062248E-01 -0.14723045354E-01  0.10201343945E+01  0.10198568291E+01 0.  0.
     999903    2    3    3    0    0 -0.11596074359E+00  0.39654293648E-01  0.40045268674E-01  0.13042315072E+00  0.19677846457E-01 0.  0.
         14    1    1    2    0    0 -0.12798265931E-02 -0.18650062248E-01  0.14723045354E-01  0.23795605528E-01  0.00000000000E+00 0. -1.
     999901    1    3    3    0    0  0.11724057019E+00 -0.21004231400E-01 -0.54768314028E-01  0.88971124375E+00  0.88000000000E+00 0.  1.
        -11    1    4    4    0    0 -0.79962061537E-01  0.36340195235E-01  0.31112149944E-01  0.93181371905E-01  0.51100000000E-03 0. -1.
         11    1    4    4    0    0 -0.35998682057E-01  0.33140984135E-02  0.89331187306E-02  0.37241778817E-01  0.51100000000E-03 0.  1.
</event>
<event>
 8    1  0.1099478E+005  0.1043930E+01  0.7957747E-01            NaN
         13   -1    0    0    0    0  0.00000000000E+00  0.00000000000E+00  0.74505805969E-08  0.10566000000E+00  0.10566000000E+00 0. -1.
     999900   -1    0    0    0    0 -0.00000000000E+00 -0.00000000000E+00 -0.74505805969E-08  0.93827000000E+00  0.93827000000E+00 0. -1.
     999902    2    1    2    0    0 -0.91739050691E-02 -0.51026012369E-02 -0.21031445737E-01  0.10204242819E+01  0.10201535160E+01 0.  0.
     999903    2    3    3    0    0  0.75283552689E-01 -0.65345669420E-01 -0.84566365576E-01  0.13205556595E+00  0.18695788156E-01 0.  0.
         14    1    1    2    0    0  0.91739050691E-02  0.51026012369E-02  0.21031445737E-01  0.23505718100E-01  0.00000000000E+00 0. -1.
     999901    1    3    3    0    0 -0.84457457758E-01  0.60243068183E-01  0.63534919839E-01  0.88836871595E+00  0.88000000000E+00 0.  1.
        -11    1    4    4    0    0  0.51173199678E-01 -0.32402399275E-01 -0.52028466896E-01  0.79848821736E-01  0.51100000000E-03 0. -1.
         11    1    4    4    0    0  0.24110353011E-01 -0.32943270145E-01 -0.32537898681E-01  0.52206744217E-01  0.51100000000E-03 0.  1.
</event>
<event>
 8    1  0.1099478E+005  0.1043930E+01  0.7957747E-01            NaN
         13   -1    0    0    0    0  0.00000000000E+00  0.00000000000E+00  0.74505805969E-08  0.10566000000E+00  0.10566000000E+00 0. -1.
     999900   -1    0    0    0    0 -0.00000000000E+00 -0.00000000000E+00 -0.74505805969E-08  0.93827000000E+00  0.93827000000E+00 0. -1.
     999902    2    1    2    0    0  0.15910153108E-02 -0.41089929274E-02 -0.23034531480E-01  0.10204778190E+01  0.10202082995E+01 0.  0.
     999903    2    3    3    0    0  0.10622895662E+00 -0.52851395142E-02 -0.76548934645E-01  0.13266349528E+00  0.20672195353E-01 0.  0.
         14    1    1    2    0    0 -0.15910153108E-02  0.41089929274E-02  0.23034531480E-01  0.23452180988E-01  0.00000000000E+00 0. -1.
     999901    1    3    3    0    0 -0.10463794131E+00  0.11761465868E-02  0.53514403165E-01  0.88781432373E+00  0.88000000000E+00 0.  1.
        -11    1    4    4    0    0  0.20410862095E-01  0.32983365185E-02 -0.23941567446E-01  0.31637668815E-01  0.51100000000E-03 0. -1.
         11    1    4    4    0    0  0.85818094521E-01 -0.85834760327E-02 -0.52607367198E-01  0.10102582646E+00  0.51100000000E-03 0.  1.
</event>
<event>
 8    1  0.1651646E+005  0.1043930E+01  0.7957747E-01            NaN
         13   -1    0    0    0    0  0.00000000000E+00  0.00000000000E+00  0.74505805969E-08  0.10566000000E+00  0.10566000000E+00 0.  1.
     999900   -1    0    0    0    0 -0.00000000000E+00 -0.00000000000E+00 -0.74505805969E-08  0.93827000000E+00  0.93827000000E+00 0. -1.
     999902    2    1    2    0    0  0.19620291226E-01  0.76318869244E-02  0.10440277395E-01  0.10204310443E+01  0.10201604361E+01 0.  0.
     999903    2    3    3    0    0 -0.17536435797E-01 -0.34926768652E-02  0.12888877595E+00  0.13164849212E+00  0.19982080510E-01 0.  0.
         14    1    1    2    0    0 -0.19620291226E-01 -0.76318869244E-02 -0.10440277395E-01  0.23498955677E-01  0.00000000000E+00 0. -1.
     999901    1    3    3    0    0  0.37156727023E-01  0.11124563790E-01 -0.11844849855E+00  0.88878255220E+00  0.88000000000E+00 0. -1.
        -11    1    4    4    0    0 -0.11562305952E-01 -0.11048876188E-01  0.60388197429E-01  0.62472074511E-01  0.51100000000E-03 0. -1.
         11    1    4    4    0    0 -0.59741298444E-02  0.75561993232E-02  0.68500578518E-01  0.69176417614E-01  0.51100000000E-03 0.  1.
</event>
<event>
 8    1  0.1099478E+005  0.1043930E+01  0.7957747E-01            NaN
         13   -1    0    0    0    0  0.00000000000E+00  0.00000000000E+00  0.74505805969E-08  0.10566000000E+00  0.10566000000E+00 0.  1.
     999900   -1    0    0    0    0 -0.00000000000E+00 -0.00000000000E+00 -0.74505805969E-08  0.93827000000E+00  0.93827000000E+00 0.  1.
     999902    2    1    2    0    0  0.36151848255E-02  0.20640490062E-01 -0.14172873581E-01  0.10186323769E+01  0.10183181966E+01 0.  0.
     999903    2    3    3    0    0 -0.99426562319E-01 -0.18855960137E-01  0.74719734585E-01  0.12729660004E+00  0.19498644034E-01 0.  0.
         14    1    1    2    0    0 -0.36151848255E-02 -0.20640490062E-01  0.14172873581E-01  0.25297623147E-01  0.00000000000E+00 0.  1.
     999901    1    3    3    0    0  0.10304174714E+00  0.39496450199E-01 -0.88892608166E-01  0.89133577681E+00  0.88000000000E+00 0.  1.
        -11    1    4    4    0    0 -0.53263102911E-01 -0.15512279924E-01  0.30633541415E-01  0.63374000511E-01  0.51100000000E-03 0.  1.
         11    1    4    4    0    0 -0.46163459408E-01 -0.33436802126E-02  0.44086193170E-01  0.63922599533E-01  0.51100000000E-03 0. -1.
</event>
<event>
 8    1  0.1099478E+005  0.1043930E+01  0.7957747E-01            NaN
         13   -1    0    0    0    0  0.00000000000E+00  0.00000000000E+00  0.74505805969E-08  0.10566000000E+00  0.10566000000E+00 0.  1.
     999900   -1    0    0    0    0 -0.00000000000E+00 -0.00000000000E+00 -0.74505805969E-08  0.93827000000E+00  0.93827000000E+00 0.  1.
     999902    2    1    2    0    0 -0.19827120402E-01  0.10906017781E-01  0.79923852314E-02  0.10199313719E+01  0.10196489932E+01 0.  0.
     999903    2    3    3    0    0  0.12072021538E+00  0.38338170462E-01  0.33008008050E-02  0.12834397434E+00  0.20447365283E-01 0.  0.
         14    1    1    2    0    0  0.19827120402E-01 -0.10906017781E-01 -0.79923852314E-02  0.23998628064E-01  0.00000000000E+00 0. -1.
     999901    1    3    3    0    0 -0.14054733578E+00 -0.27432152680E-01  0.46915844264E-02  0.89158739760E+00  0.88000000000E+00 0. -1.
        -11    1    4    4    0    0  0.20751937628E-01  0.15371226008E-02  0.63815785104E-02  0.21771341863E-01  0.51100000000E-03 0.  1.
         11    1    4    4    0    0  0.99968277749E-01  0.36801047861E-01 -0.30807777054E-02  0.10657263247E+00  0.51100000000E-03 0. -1.
</event>
<event>
 8    1  0.1192093E+005  0.1043930E+01  0.7957747E-01            NaN
         13   -1    0    0    0    0  0.00000000000E+00  0.00000000000E+00  0.74505805969E-08  0.10566000000E+00  0.10566000000E+00 0.  1.
     999900   -1    0    0    0    0 -0.00000000000E+00 -0.00000000000E+00 -0.74505805969E-08  0.93827000000E+00  0.93827000000E+00 0.  1.
     999902    2    1    2    0    0 -0.13972265000E-01 -0.59095828488E-02 -0.22245389614E-01  0.10170040884E+01  0.10166475845E+01 0.  0.
     999903    2    3    3    0    0 -0.87793973882E-01 -0.14228771381E-01 -0.94017071007E-01  0.13096231290E+00  0.20041905483E-01 0.  0.
         14    1    1    2    0    0  0.13972265000E-01  0.59095828488E-02  0.22245389614E-01  0.26925911643E-01  0.00000000000E+00 0. -1.
     999901    1    3    3    0    0  0.73821708881E-01  0.83191885322E-02  0.71771681392E-01  0.88604177545E+00  0.88000000000E+00 0. -1.
        -11    1    4    4    0    0 -0.50220853508E-01 -0.15305754006E-01 -0.44721432869E-01  0.68968600911E-01  0.51100000000E-03 0. -1.
         11    1    4    4    0    0 -0.37573120374E-01  0.10769826248E-02 -0.49295638138E-01  0.61993711993E-01  0.51100000000E-03 0.  1.
</event>
<event>
 7    1  0.1529128E+005  0.1043930E+01  0.7957747E-01            NaN
         13   -1    0    0    0    0  0.00000000000E+00  0.00000000000E+00  0.74505805969E-08  0.10566000000E+00  0.10566000000E+00 0.  1.
     999900   -1    0    0    0    0 -0.00000000000E+00 -0.00000000000E+00 -0.74505805969E-08  0.93827000000E+00  0.93827000000E+00 0. -1.
     999903    2    1    2    0    0 -0.17212526368E-01  0.42599481258E-01 -0.93427382514E-01  0.10637821354E+00  0.21832582203E-01 0.  0.
         14    1    1    2    0    0  0.23429574212E-02 -0.31090136742E-01 -0.36289840344E-01  0.47843897880E-01  0.00000000000E+00 0. -1.
     999901    1    1    2    0    0  0.14869568947E-01 -0.11509344516E-01  0.12971722286E+00  0.88970788858E+00  0.88000000000E+00 0.  1.
        -11    1    3    3    0    0 -0.20026591655E-01  0.31384384284E-01 -0.56378942218E-01  0.67563971144E-01  0.51100000000E-03 0. -1.
         11    1    3    3    0    0  0.28140652870E-02  0.11215096975E-01 -0.37048440295E-01  0.38814242398E-01  0.51100000000E-03 0.  1.
</event>
<event>
 8    1  0.1099478E+005  0.1043930E+01  0.7957747E-01            NaN
         13   -1    0    0    0    0  0.00000000000E+00  0.00000000000E+00  0.74505805969E-08  0.10566000000E+00  0.10566000000E+00 0. -1.
     999900   -1    0    0    0    0 -0.00000000000E+00 -0.00000000000E+00 -0.74505805969E-08  0.93827000000E+00  0.93827000000E+00 0. -1.
     999902    2    1    2    0    0  0.11192147124E-02  0.13519364424E-01  0.19957683964E-01  0.10197983816E+01  0.10195128269E+01 0.  0.
     999903    2    3    3    0    0  0.52280115122E-01 -0.23468616261E-01 -0.11238573763E+00  0.12766591967E+00  0.19597107861E-01 0.  0.
         14    1    1    2    0    0 -0.11192147124E-02 -0.13519364424E-01 -0.19957683964E-01  0.24131618371E-01  0.00000000000E+00 0.  1.
     999901    1    3    3    0    0 -0.51160900409E-01  0.36987980685E-01  0.13234342159E+00  0.89213246196E+00  0.88000000000E+00 0.  1.
        -11    1    4    4    0    0  0.42219746271E-01 -0.12037893466E-01 -0.94285084277E-01  0.10400651947E+00  0.51100000000E-03 0. -1.
         11    1    4    4    0    0  0.10060368851E-01 -0.11430722795E-01 -0.18100653350E-01  0.23659400198E-01  0.51100000000E-03 0.  1.
</event>
<event>
 8    1  0.1378774E+005  0.1043930E+01  0.7957747E-01            NaN
         13   -1    0    0    0    0  0.00000000000E+00  0.00000000000E+00  0.74505805969E-08  0.10566000000E+00  0.10566000000E+00 0.  1.
     999900   -1    0    0    0    0 -0.00000000000E+00 -0.00000000000E+00 -0.74505805969E-08  0.93827000000E+00  0.93827000000E+00 0.  1.
     999902    2    1    2    0    0 -0.22444865407E-01  0.23316269840E-01  0.28365686302E-03  0.10115648817E+01  0.10110469865E+01 0.  0.
     999903    2    3    3    0    0 -0.23596236697E-01  0.11689369941E+00  0.35412439811E-01  0.12590575292E+00  0.19424169914E-01 0.  0.
         14    1    1    2    0    0  0.22444865407E-01 -0.23316269840E-01 -0.28365686302E-03  0.32365118316E-01  0.00000000000E+00 0. -1.
     999901    1    3    3    0    0  0.11513712895E-02 -0.93577429566E-01 -0.35128782948E-01  0.88565912877E+00  0.88000000000E+00 0.  1.
        -11    1    4    4    0    0 -0.24381016061E-01  0.76016348541E-01  0.20950652263E-01  0.82535508364E-01  0.51100000000E-03 0. -1.
         11    1    4    4    0    0  0.78477936394E-03  0.40877350864E-01  0.14461787548E-01  0.43370244551E-01  0.51100000000E-03 0.  1.
</event>
<event>
 8    1  0.1099478E+005  0.1043930E+01  0.7957747E-01            NaN
         13   -1    0    0    0    0  0.00000000000E+00  0.00000000000E+00  0.74505805969E-08  0.10566000000E+00  0.10566000000E+00 0.  1.
     999900   -1    0    0    0    0 -0.00000000000E+00 -0.00000000000E+00 -0.74505805969E-08  0.93827000000E+00  0.93827000000E+00 0. -1.
     999902    2    1    2    0    0  0.91420773417E-02  0.22045458785E-01 -0.45757598489E-03  0.10200597422E+01  0.10197804119E+01 0.  0.
     999903    2    3    3    0    0 -0.38930296652E-01 -0.53520352867E-01 -0.10872785356E+00  0.12891239298E+00  0.20412318714E-01 0.  0.
         14    1    1    2    0    0 -0.91420773417E-02 -0.22045458785E-01  0.45757598489E-03  0.23870257790E-01  0.00000000000E+00 0. -1.
     999901    1    3    3    0    0  0.48072373994E-01  0.75565811652E-01  0.10827027758E+00  0.89114734923E+00  0.88000000000E+00 0.  1.
        -11    1    4    4    0    0 -0.26384633739E-01 -0.22352495820E-01 -0.66418997896E-01  0.74883425199E-01  0.51100000000E-03 0. -1.
         11    1    4    4    0    0 -0.12545662913E-01 -0.31167857046E-01 -0.42308855666E-01  0.54028967782E-01  0.51100000000E-03 0.  1.
</event>
<event>
 8    1  0.1099478E+005  0.1043930E+01  0.7957747E-01            NaN
         13   -1    0    0    0    0  0.00000000000E+00  0.00000000000E+00  0.74505805969E-08  0.10566000000E+00  0.10566000000E+00 0.  1.
     999900   -1    0    0    0    0 -0.00000000000E+00 -0.00000000000E+00 -0.74505805969E-08  0.93827000000E+00  0.93827000000E+00 0. -1.
     999902    2    1    2    0    0  0.20449647351E-01  0.27295357013E-02 -0.10713631728E-01  0.10206830573E+01  0.10204182883E+01 0.  0.
     999903    2    3    3    0    0  0.86430868131E-01  0.23217659698E-01 -0.97384160547E-01  0.13373037234E+00  0.19768233945E-01 0.  0.
         14    1    1    2    0    0 -0.20449647351E-01 -0.27295357013E-02  0.10713631728E-01  0.23246942739E-01  0.00000000000E+00 0. -1.
     999901    1    3    3    0    0 -0.65981220780E-01 -0.20488123996E-01  0.86670528819E-01  0.88695268492E+00  0.88000000000E+00 0.  1.
        -11    1    4    4    0    0  0.50711965765E-01  0.12848376817E-01 -0.70700082327E-01  0.87951958595E-01  0.51100000000E-03 0. -1.
         11    1    4    4    0    0  0.35718902366E-01  0.10369282881E-01 -0.26684078220E-01  0.45778413746E-01  0.51100000000E-03 0.  1.
</event>
<event>
 8    1  0.1099478E+005  0.1043930E+01  0.7957747E-01            NaN
         13   -1    0    0    0    0  0.00000000000E+00  0.00000000000E+00  0.74505805969E-08  0.10566000000E+00  0.10566000000E+00 0. -1.
     999900   -1    0    0    0    0 -0.00000000000E+00 -0.00000000000E+00 -0.74505805969E-08  0.93827000000E+00  0.93827000000E+00 0.  1.
     999902    2    1    2    0    0  0.15934866655E-01  0.88958687432E-02  0.15898291355E-01  0.10197264440E+01  0.10194391637E+01 0.  0.
     999903    2    3    3    0    0 -0.47546609700E-01 -0.88434734582E-01  0.79885091300E-01  0.12978405554E+00  0.19516426020E-01 0.  0.
         14    1    1    2    0    0 -0.15934866655E-01 -0.88958687432E-02 -0.15898291355E-01  0.24203556020E-01  0.00000000000E+00 0.  1.
     999901    1    3    3    0    0  0.63481476355E-01  0.97330603325E-01 -0.63986799945E-01  0.88994238844E+00  0.88000000000E+00 0.  1.
        -11    1    4    4    0    0 -0.30790641689E-01 -0.73379413250E-01  0.65322738833E-01  0.10295592860E+00  0.51100000000E-03 0. -1.
         11    1    4    4    0    0 -0.16755968012E-01 -0.15055321332E-01  0.14562352467E-01  0.26828126934E-01  0.51100000000E-03 0.  1.
</event>
<event>
 8    1  0.1099478E+005  0.1043930E+01  0.7957747E-01            NaN
         13   -1    0    0    0    0  0.00000000000E+00  0.00000000000E+00  0.74505805969E-08  0.10566000000E+00  0.10566000000E+00 0. -1.
     999900   -1    0    0    0    0 -0.00000000000E+00 -0.00000000000E+00 -0.74505805969E-08  0.93827000000E+00  0.93827000000E+00 0.  1.
     999902    2    1    2    0    0  0.22859808748E-01 -0.70480740883E-03 -0.64938210836E-02  0.10201552798E+01  0.10198782072E+01 0.  0.
     999903    2    3    3    0    0 -0.47032093642E-01  0.32388567434E-01 -0.11514883957E+00  0.13010698754E+00  0.20187516429E-01 0.  0.
         14    1    1    2    0    0 -0.22859808748E-01  0.70480740883E-03  0.64938210836E-02  0.23774720224E-01  0.00000000000E+00 0. -1.
     999901    1    3    3    0    0  0.69891902390E-01 -0.33093374843E-01  0.10865501848E+00  0.89004829224E+00  0.88000000000E+00 0. -1.
        -11    1    4    4    0    0 -0.21340115692E-01  0.19417158834E-01 -0.37659984207E-01  0.47444305521E-01  0.51100000000E-03 0.  1.
         11    1    4    4    0    0 -0.25691977950E-01  0.12971408600E-01 -0.77488855358E-01  0.82662682014E-01  0.51100000000E-03 0. -1.
</event>
<event>
 8    1  0.1099478E+005  0.1043930E+01  0.7957747E-01            NaN
         13   -1    0    0    0    0  0.00000000000E+00  0.00000000000E+00  0.74505805969E-08  0.10566000000E+00  0.10566000000E+00 0. -1.
     999900   -1    0    0    0    0 -0.00000000000E+00 -0.00000000000E+00 -0.74505805969E-08  0.93827000000E+00  0.93827000000E+00 0. -1.
     999902    2    1    2    0    0 -0.46861565112E-02  0.10363091741E-01  0.20787681490E-01  0.10202344005E+01  0.10199591906E+01 0.  0.
     999903    2    3    3    0    0 -0.25010118348E-02  0.57745141807E-01  0.11882981823E+00  0.13352018832E+00  0.19140494448E-01 0.  0.
         14    1    1    2    0    0  0.46861565112E-02 -0.10363091741E-01 -0.20787681490E-01  0.23695599487E-01  0.00000000000E+00 0.  1.
     999901    1    3    3    0    0 -0.21851446764E-02 -0.47382050066E-01 -0.98042136735E-01  0.88671421219E+00  0.88000000000E+00 0. -1.
        -11    1    4    4    0    0  0.16995383207E-02  0.38587378488E-01  0.58692566352E-01  0.70263451915E-01  0.51100000000E-03 0. -1.
         11    1    4    4    0    0 -0.42005501555E-02  0.19157763319E-01  0.60137251874E-01  0.63256736407E-01  0.51100000000E-03 0.  1.
</event>
<event>
 8    1  0.1099478E+005  0.1043930E+01  0.7957747E-01            NaN
         13   -1    0    0    0    0  0.00000000000E+00  0.00000000000E+00  0.74505805969E-08  0.10566000000E+00  0.10566000000E+00 0. -1.
     999900   -1    0    0    0    0 -0.00000000000E+00 -0.00000000000E+00 -0.74505805969E-08  0.93827000000E+00  0.93827000000E+00 0. -1.
     999902    2    1    2    0    0 -0.22351685522E-01 -0.19955657838E-02 -0.81178886001E-02  0.10200662148E+01  0.10197870377E+01 0.  0.
     999903    2    3    3    0    0 -0.91512529393E-02  0.10688638583E+00 -0.71903395996E-01  0.13096660185E+00  0.21764823409E-01 0.  0.
         14    1    1    2    0    0  0.22351685522E-01  0.19955657838E-02  0.81178886001E-02  0.23863785194E-01  0.00000000000E+00 0. -1.
     999901    1    3    3    0    0 -0.13200432583E-01 -0.10888195161E+00  0.63785507396E-01  0.88909961296E+00  0.88000000000E+00 0. -1.
        -11    1    4    4    0    0 -0.10579160416E-01  0.50593017749E-01 -0.23805306627E-01  0.56908047100E-01  0.51100000000E-03 0.  1.
         11    1    4    4    0    0  0.14279074771E-02  0.56293368079E-01 -0.48098089369E-01  0.74058554748E-01  0.51100000000E-03 0. -1.
</event>
<event>
 7    1  0.1099478E+005  0.1043930E+01  0.7957747E-01            NaN
         13   -1    0    0    0    0  0.00000000000E+00  0.00000000000E+00  0.74505805969E-08  0.10566000000E+00  0.10566000000E+00 0. -1.
     999900   -1    0    0    0    0 -0.00000000000E+00 -0.00000000000E+00 -0.74505805969E-08  0.93827000000E+00  0.93827000000E+00 0. -1.
     999903    2    1    2    0    0  0.33878984000E-01 -0.69952663954E-01 -0.30967390109E-01  0.85993014499E-01  0.19866014730E-01 0.  0.
         14    1    1    2    0    0  0.29379399845E-01  0.42607732966E-01  0.54194065642E-01  0.74937072231E-01  0.00000000000E+00 0. -1.
     999901    1    1    2    0    0 -0.63258383846E-01  0.27344930988E-01 -0.23226675533E-01  0.88299991327E+00  0.88000000000E+00 0. -1.
        -11    1    3    3    0    0  0.78749707197E-02 -0.34727303576E-01 -0.20036766726E-01  0.40862377798E-01  0.51100000000E-03 0.  1.
         11    1    3    3    0    0  0.26004013281E-01 -0.35225360379E-01 -0.10930623384E-01  0.45130636701E-01  0.51100000000E-03 0. -1.
</event>
<event>
 8    1  0.1099478E+005  0.1043930E+01  0.7957747E-01            NaN
         13   -1    0    0    0    0  0.00000000000E+00  0.00000000000E+00  0.74505805969E-08  0.10566000000E+00  0.10566000000E+00 0.  1.
     999900   -1    0    0    0    0 -0.00000000000E+00 -0.00000000000E+00 -0.74505805969E-08  0.93827000000E+00  0.93827000000E+00 0. -1.
     999902    2    1    2    0    0 -0.26616317135E-02 -0.26419370406E-02 -0.23420620328E-01  0.10202110293E+01  0.10199352699E+01 0.  0.
     999903    2    3    3    0    0 -0.91522646375E-01  0.15972213033E-01  0.86887412158E-01  0.12868950486E+00  0.19495124517E-01 0.  0.
         14    1    1    2    0    0  0.26616317135E-02  0.26419370406E-02  0.23420620328E-01  0.23718970704E-01  0.00000000000E+00 0.  1.
     999901    1    3    3    0    0  0.88861014661E-01 -0.18614150074E-01 -0.11030803249E+00  0.89152152444E+00  0.88000000000E+00 0. -1.
        -11    1    4    4    0    0 -0.30070208627E-01  0.42849421712E-02  0.41372522751E-01  0.51327623519E-01  0.51100000000E-03 0. -1.
         11    1    4    4    0    0 -0.61452437747E-01  0.11687270862E-01  0.45514889407E-01  0.77361881337E-01  0.51100000000E-03 0.  1.
</event>
<event>
 8    1  0.1161526E+005  0.1043930E+01  0.7957747E-01            NaN
         13   -1    0    0    0    0  0.00000000000E+00  0.00000000000E+00  0.74505805969E-08  0.10566000000E+00  0.10566000000E+00 0.  1.
     999900   -1    0    0    0    0 -0.00000000000E+00 -0.00000000000E+00 -0.74505805969E-08  0.93827000000E+00  0.93827000000E+00 0.  1.
     999902    2    1    2    0    0 -0.11273989729E-02 -0.25444099515E-01 -0.97421847315E-02  0.10166612745E+01  0.10162955100E+01 0.  0.
     999903    2    3    3    0    0  0.65372224463E-01 -0.63852126418E-01  0.87390315042E-01  0.12799255163E+00  0.19859615554E-01 0.  0.
         14    1    1    2    0    0  0.11273989729E-02  0.25444099515E-01  0.97421847315E-02  0.27268725528E-01  0.00000000000E+00 0.  1.
     999901    1    3    3    0    0 -0.66499623436E-01  0.38408026903E-01 -0.97132499773E-01  0.88866872284E+00  0.88000000000E+00 0.  1.
        -11    1    4    4    0    0  0.43790134053E-01 -0.42495119684E-01  0.70510860245E-01  0.93249415927E-01  0.51100000000E-03 0. -1.
         11    1    4    4    0    0  0.21582090410E-01 -0.21357006735E-01  0.16879454797E-01  0.34743135702E-01  0.51100000000E-03 0.  1.
</event>
<event>
 8    1  0.1099478E+005  0.1043930E+01  0.7957747E-01            NaN
         13   -1    0    0    0    0  0.00000000000E+00  0.00000000000E+00  0.74505805969E-08  0.10566000000E+00  0.10566000000E+00 0.  1.
     999900   -1    0    0    0    0 -0.00000000000E+00 -0.00000000000E+00 -0.74505805969E-08  0.93827000000E+00  0.93827000000E+00 0.  1.
     999902    2    1    2    0    0 -0.13462966453E-01 -0.16639639191E-01  0.90382448019E-02  0.10206959963E+01  0.10204315254E+01 0.  0.
     999903    2    3    3    0    0  0.68007057390E-01  0.51843755434E-01  0.95836476373E-01  0.13004383462E+00  0.20347822669E-01 0.  0.
         14    1    1    2    0    0  0.13462966453E-01  0.16639639191E-01 -0.90382448019E-02  0.23234003685E-01  0.00000000000E+00 0. -1.
     999901    1    3    3    0    0 -0.81470023843E-01 -0.68483394624E-01 -0.86798231571E-01  0.89065216169E+00  0.88000000000E+00 0.  1.
        -11    1    4    4    0    0  0.21803452488E-01  0.15597071221E-01  0.44939727698E-01  0.52330673774E-01  0.51100000000E-03 0. -1.
         11    1    4    4    0    0  0.46203604902E-01  0.36246684213E-01  0.50896748675E-01  0.77713160848E-01  0.51100000000E-03 0.  1.
</event>
<event>
 8    1  0.1099478E+005  0.1043930E+01  0.7957747E-01            NaN
         13   -1    0    0    0    0  0.00000000000E+00  0.00000000000E+00  0.74505805969E-08  0.10566000000E+00  0.10566000000E+00 0.  1.
     999900   -1    0    0    0    0 -0.00000000000E+00 -0.00000000000E+00 -0.74505805969E-08  0.93827000000E+00  0.93827000000E+00 0.  1.
     999902    2    1    2    0    0 -0.62935286367E-02 -0.34899780161E-02  0.22710896919E-01  0.10201062033E+01  0.10198279721E+01 0.  0.
     999903    2    3    3    0    0  0.54144810347E-01  0.37587362146E-02  0.11951098059E+00  0.13270798782E+00  0.19563919998E-01 0.  0.
         14    1    1    2    0    0  0.62935286367E-02  0.34899780161E-02 -0.22710896919E-01  0.23823796678E-01  0.00000000000E+00 0. -1.
     999901    1    3    3    0    0 -0.60438338984E-01 -0.72487142307E-02 -0.96800083666E-01  0.88739821550E+00  0.88000000000E+00 0.  1.
        -11    1    4    4    0    0  0.74164205306E-02 -0.20288453212E-02  0.36194048176E-01  0.37005266533E-01  0.51100000000E-03 0.  1.
         11    1    4    4    0    0  0.46728389817E-01  0.57875815358E-02  0.83316932409E-01  0.95702721288E-01  0.51100000000E-03 0. -1.
</event>
<event>
 8    1  0.1099478E+005  0.1043930E+01  0.7957747E-01            NaN
         13   -1    0    0    0    0  0.00000000000E+00  0.00000000000E+00  0.74505805969E-08  0.10566000000E+00  0.10566000000E+00 0.  1.
     999900   -1    0    0    0    0 -0.00000000000E+00 -0.00000000000E+00 -0.74505805969E-08  0.93827000000E+00  0.93827000000E+00 0.  1.
     999902    2    1    2    0    0  0.78026251819E-02 -0.20500034616E-01  0.97207203598E-02  0.10199378183E+01  0.10196555930E+01 0.  0.
     999903    2    3    3    0    0 -0.31760211298E-01  0.10659547276E+00 -0.57909877837E-01  0.12736155609E+00  0.22273441250E-01 0.  0.
         14    1    1    2    0    0 -0.78026251819E-02  0.20500034616E-01 -0.97207203598E-02  0.23992181712E-01  0.00000000000E+00 0.  1.
     999901    1    3    3    0    0  0.39562836480E-01 -0.12709550737E+00  0.67630598197E-01  0.89257626220E+00  0.88000000000E+00 0.  1.
        -11    1    4    4    0    0 -0.17806113213E-01  0.81097743402E-01 -0.34005749883E-01  0.89724878371E-01  0.51100000000E-03 0. -1.
         11    1    4    4    0    0 -0.13954098085E-01  0.25497729355E-01 -0.23904127954E-01  0.37636677720E-01  0.51100000000E-03 0.  1.
</event>
<event>
 8    1  0.1099478E+005  0.1043930E+01  0.7957747E-01            NaN
         13   -1    0    0    0    0  0.00000000000E+00  0.00000000000E+00  0.74505805969E-08  0.10566000000E+00  0.10566000000E+00 0.  1.
     999900   -1    0    0    0    0 -0.00000000000E+00 -0.00000000000E+00 -0.74505805969E-08  0.93827000000E+00  0.93827000000E+00 0.  1.
     999902    2    1    2    0    0 -0.10134439169E-01 -0.66692496512E-02  0.26643350795E-01  0.10146545173E+01  0.10142320915E+01 0.  0.
     999903    2    3    3    0    0 -0.35633060570E-01  0.82778448005E-01 -0.82539032337E-01  0.12304257078E+00  0.14310692030E-01 0.  0.
         14    1    1    2    0    0  0.10134439169E-01  0.66692496512E-02 -0.26643350795E-01  0.29275482742E-01  0.00000000000E+00 0. -1.
     999901    1    3    3    0    0  0.25498621402E-01 -0.89447697656E-01  0.10918238313E+00  0.89161194647E+00  0.88000000000E+00 0. -1.
        -11    1    4    4    0    0 -0.24089960420E-01  0.53825579442E-01 -0.62782242507E-01  0.86135882712E-01  0.51100000000E-03 0.  1.
         11    1    4    4    0    0 -0.11543100151E-01  0.28952868563E-01 -0.19756789829E-01  0.36906688072E-01  0.51100000000E-03 0. -1.
</event>
<event>
 8    1  0.1099478E+005  0.1043930E+01  0.7957747E-01            NaN
         13   -1    0    0    0    0  0.00000000000E+00  0.00000000000E+00  0.74505805969E-08  0.10566000000E+00  0.10566000000E+00 0. -1.
     999900   -1    0    0    0    0 -0.00000000000E+00 -0.00000000000E+00 -0.74505805969E-08  0.93827000000E+00  0.93827000000E+00 0.  1.
     999902    2    1    2    0    0  0.12417386400E-01  0.14423181824E-01 -0.13859523711E-01  0.10203862948E+01  0.10201146428E+01 0.  0.
     999903    2    3    3    0    0  0.11273401784E+00 -0.30139438667E-01 -0.58985312760E-01  0.13241918359E+00  0.20933908339E-01 0.  0.
         14    1    1    2    0    0 -0.12417386400E-01 -0.14423181824E-01  0.13859523711E-01  0.23543705239E-01  0.00000000000E+00 0. -1.
     999901    1    3    3    0    0 -0.10031663144E+00  0.44562620491E-01  0.45125789050E-01  0.88796711117E+00  0.88000000000E+00 0. -1.
        -11    1    4    4    0    0  0.53795937739E-02  0.25511945397E-02 -0.54227180249E-02  0.80694246715E-02  0.51100000000E-03 0.  1.
         11    1    4    4    0    0  0.10735442407E+00 -0.32690633206E-01 -0.53562594735E-01  0.12434975892E+00  0.51100000000E-03 0. -1.
</event>
<event>
 8    1  0.1099478E+005  0.1043930E+01  0.7957747E-01            NaN
         13   -1    0    0    0    0  0.00000000000E+00  0.00000000000E+00  0.74505805969E-08  0.10566000000E+00  0.10566000000E+00 0. -1.
     999900   -1    0    0    0    0 -0.00000000000E+00 -0.00000000000E+00 -0.74505805969E-08  0.93827000000E+00  0.93827000000E+00 0. -1.
     999902    2    1    2    0    0  0.27082735350E-01  0.45894058422E-02  0.22014210365E-01  0.10087282577E+01  0.10081138504E+01 0.  0.
     999903    2    3    3    0    0 -0.39282008060E-01 -0.87755062417E-01  0.69245881534E-01  0.12015490076E+00  0.19954471409E-01 0.  0.
         14    1    1    2    0    0 -0.27082735350E-01 -0.45894058422E-02 -0.22014210365E-01  0.35201742258E-01  0.00000000000E+00 0.  1.
     999901    1    3    3    0    0  0.66364743409E-01  0.92344468259E-01 -0.47231671169E-01  0.88857335699E+00  0.88000000000E+00 0.  1.
        -11    1    4    4    0    0 -0.62665174820E-02 -0.37630127393E-01  0.25739123030E-01  0.46022378299E-01  0.51100000000E-03 0.  1.
         11    1    4    4    0    0 -0.33015490578E-01 -0.50124935024E-01  0.43506758503E-01  0.74132522456E-01  0.51100000000E-03 0. -1.
</event>
<event>
 8    1  0.1099478E+005  0.1043930E+01  0.7957747E-01            NaN
         13   -1    0    0    0    0  0.00000000000E+00  0.00000000000E+00  0.74505805969E-08  0.10566000000E+00  0.10566000000E+00 0.  1.
     999900   -1    0    0    0    0 -0.00000000000E+00 -0.00000000000E+00 -0.74505805969E-08  0.93827000000E+00  0.93827000000E+00 0.  1.
     999902    2    1    2    0    0 -0.12982778186E-01 -0.78435436912E-02 -0.18040828097E-01  0.10203599939E+01  0.10200877276E+01 0.  0.
     999903    2    3    3    0    0  0.10305706146E+00 -0.66849973369E-01  0.34707610930E-01  0.12922061037E+00  0.20091566188E-01 0.  0.
         14    1    1    2    0    0  0.12982778186E-01  0.78435436912E-02  0.18040828097E-01  0.23570006056E-01  0.00000000000E+00 0.  1.
     999901    1    3    3    0    0 -0.11603983965E+00  0.59006429678E-01 -0.52748439027E-01  0.89113938357E+00  0.88000000000E+00 0.  1.
        -11    1    4    4    0    0  0.84370958000E-01 -0.45207797543E-01  0.23994354552E-01  0.98682286576E-01  0.51100000000E-03 0. -1.
         11    1    4    4    0    0  0.18686103464E-01 -0.21642175826E-01  0.10713256378E-01  0.30538323798E-01  0.51100000000E-03 0.  1.
</event>
<event>
 8    1  0.1099478E+005  0.1043930E+01  0.7957747E-01            NaN
         13   -1    0    0    0    0  0.00000000000E+00  0.00000000000E+00  0.74505805969E-08  0.10566000000E+00  0.10566000000E+00 0.  1.
     999900   -1    0    0    0    0 -0.00000000000E+00 -0.00000000000E+00 -0.74505805969E-08  0.93827000000E+00  0.93827000000E+00 0. -1.
     999902    2    1    2    0    0 -0.34892990456E-02 -0.22463576435E-01 -0.79618796236E-02  0.10198430948E+01  0.10195586099E+01 0.  0.
     999903    2    3    3    0    0  0.11908109612E+00  0.44881940504E-01 -0.10917947998E-01  0.12879446609E+00  0.16556475136E-01 0.  0.
         14    1    1    2    0    0  0.34892990456E-02  0.22463576435E-01  0.79618796236E-02  0.24086905182E-01  0.00000000000E+00 0.  1.
     999901    1    3    3    0    0 -0.12257039517E+00 -0.67345516940E-01  0.29560683748E-02  0.89104862873E+00  0.88000000000E+00 0. -1.
        -11    1    4    4    0    0  0.10721863110E+00  0.44833625161E-01 -0.12187308487E-01  0.11685324304E+00  0.51100000000E-03 0.  1.
         11    1    4    4    0    0  0.11862465022E-01  0.48315343156E-04  0.12693604883E-02  0.11941223046E-01  0.51100000000E-03 0. -1.
</event>
<event>
 8    1  0.1099478E+005  0.1043930E+01  0.7957747E-01            NaN
         13   -1    0    0    0    0  0.00000000000E+00  0.00000000000E+00  0.74505805969E-08  0.10566000000E+00  0.10566000000E+00 0.  1.
     999900   -1    0    0    0    0 -0.00000000000E+00 -0.00000000000E+00 -0.74505805969E-08  0.93827000000E+00  0.93827000000E+00 0.  1.
     999902    2    1    2    0    0  0.66308417709E-02  0.41372385053E-03  0.22148843136E-01  0.10208061923E+01  0.10205442527E+01 0.  0.
     999903    2    3    3    0    0 -0.11086194960E+00  0.52008422598E-01 -0.37990526438E-01  0.12946825822E+00  0.17986158503E-01 0.  0.
         14    1    1    2    0    0 -0.66308417709E-02 -0.41372385053E-03 -0.22148843136E-01  0.23123807694E-01  0.00000000000E+00 0. -1.
     999901    1    3    3    0    0  0.11749279137E+00 -0.51594698747E-01  0.60139369574E-01  0.89133793408E+00  0.88000000000E+00 0. -1.
        -11    1    4    4    0    0 -0.63175189307E-01  0.32814889030E-01 -0.30771429083E-01  0.77556840155E-01  0.51100000000E-03 0. -1.
         11    1    4    4    0    0 -0.47686760294E-01  0.19193533568E-01 -0.72190973556E-02  0.51911418068E-01  0.51100000000E-03 0.  1.
</event>
<event>
 8    1  0.1099478E+005  0.1043930E+01  0.7957747E-01            NaN
         13   -1    0    0    0    0  0.00000000000E+00  0.00000000000E+00  0.74505805969E-08  0.10566000000E+00  0.10566000000E+00 0. -1.
     999900   -1    0    0    0    0 -0.00000000000E+00 -0.00000000000E+00 -0.74505805969E-08  0.93827000000E+00  0.93827000000E+00 0. -1.
     999902    2    1    2    0    0 -0.92769539935E-02 -0.20061616861E-01  0.52320750308E-02  0.10212164588E+01  0.10209638342E+01 0.  0.
     999903    2    3    3    0    0  0.70962753863E-01 -0.86310856218E-01 -0.67634997244E-01  0.13209499200E+00  0.19731135868E-01 0.  0.
         14    1    1    2    0    0  0.92769539935E-02  0.20061616861E-01 -0.52320750308E-02  0.22713541239E-01  0.00000000000E+00 0. -1.
     999901    1    3    3    0    0 -0.80239707857E-01  0.66249239357E-01  0.72867072274E-01  0.88912146676E+00  0.88000000000E+00 0.  1.
        -11    1    4    4    0    0  0.36022676799E-01 -0.29934997013E-01 -0.23305511423E-01  0.52317733835E-01  0.51100000000E-03 0.  1.
         11    1    4    4    0    0  0.34940077064E-01 -0.56375859205E-01 -0.44329485821E-01  0.79777258166E-01  0.51100000000E-03 0. -1.
</event>
<event>
 8    1  0.1099478E+005  0.1043930E+01  0.7957747E-01            NaN
         13   -1    0    0    0    0  0.00000000000E+00  0.00000000000E+00  0.74505805969E-08  0.10566000000E+00  0.10566000000E+00 0. -1.
     999900   -1    0    0    0    0 -0.00000000000E+00 -0.00000000000E+00 -0.74505805969E-08  0.93827000000E+00  0.93827000000E+00 0.  1.
     999902    2    1    2    0    0 -0.18609923188E-01 -0.14696186268E-01 -0.35094546296E-02  0.10199586962E+01  0.10196769678E+01 0.  0.
     999903    2    3    3    0    0  0.12403604873E+00 -0.12223178911E-01  0.21679971719E-01  0.12811313996E+00  0.20214053773E-01 0.  0.
         14    1    1    2    0    0  0.18609923188E-01  0.14696186268E-01  0.35094546296E-02  0.23971303754E-01  0.00000000000E+00 0. -1.
     999901    1    3    3    0    0 -0.14264597191E+00 -0.24730073573E-02 -0.25189426349E-01  0.89184555629E+00  0.88000000000E+00 0.  1.
        -11    1    4    4    0    0  0.93561836374E-01 -0.15191437933E-01  0.22717858322E-01  0.97472864018E-01  0.51100000000E-03 0.  1.
         11    1    4    4    0    0  0.30474212353E-01  0.29682590216E-02 -0.10378866025E-02  0.30640275941E-01  0.51100000000E-03 0. -1.
</event>
<event>
 8    1  0.1099478E+005  0.1043930E+01  0.7957747E-01            NaN
         13   -1    0    0    0    0  0.00000000000E+00  0.00000000000E+00  0.74505805969E-08  0.10566000000E+00  0.10566000000E+00 0.  1.
     999900   -1    0    0    0    0 -0.00000000000E+00 -0.00000000000E+00 -0.74505805969E-08  0.93827000000E+00  0.93827000000E+00 0. -1.
     999902    2    1    2    0    0  0.43999987301E-02  0.51833944964E-02  0.17929930127E-01  0.10247542350E+01  0.10245748056E+01 0.  0.
     999903    2    3    3    0    0  0.32813462774E-01 -0.12749270339E+00  0.18738176069E-01  0.13435492847E+00  0.19209758060E-01 0.  0.
         14    1    1    2    0    0 -0.43999987301E-02 -0.51833944964E-02 -0.17929930127E-01  0.19175764957E-01  0.00000000000E+00 0. -1.
     999901    1    3    3    0    0 -0.28413464043E-01  0.13267609788E+00 -0.80824594251E-03  0.89039930658E+00  0.88000000000E+00 0. -1.
        -11    1    4    4    0    0  0.20746560364E-01 -0.64875488404E-01  0.18505944898E-01  0.70583141614E-01  0.51100000000E-03 0.  1.
         11    1    4    4    0    0  0.12066902409E-01 -0.62617214984E-01  0.23223117157E-03  0.63771786853E-01  0.51100000000E-03 0. -1.
</event>
<event>
 8    1  0.1099478E+005  0.1043930E+01  0.7957747E-01            NaN
         13   -1    0    0    0    0  0.00000000000E+00  0.00000000000E+00  0.74505805969E-08  0.10566000000E+00  0.10566000000E+00 0. -1.
     999900   -1    0    0    0    0 -0.00000000000E+00 -0.00000000000E+00 -0.74505805969E-08  0.93827000000E+00  0.93827000000E+00 0.  1.
     999902    2    1    2    0    0  0.10982365678E-02 -0.21709781823E-01 -0.12750645815E-01  0.10187288151E+01  0.10184170556E+01 0.  0.
     999903    2    3    3    0    0 -0.75760572521E-01  0.83127553991E-01 -0.57000822143E-01  0.12807948929E+00  0.22481264856E-01 0.  0.
         14    1    1    2    0    0 -0.10982365678E-02  0.21709781823E-01  0.12750645815E-01  0.25201184874E-01  0.00000000000E+00 0. -1.
     999901    1    3    3    0    0  0.76858809089E-01 -0.10483733581E+00  0.44250176327E-01  0.89064932584E+00  0.88000000000E+00 0. -1.
        -11    1    4    4    0    0 -0.14009417116E-01  0.27745856844E-01 -0.95652708490E-02  0.32524634777E-01  0.51100000000E-03 0. -1.
         11    1    4    4    0    0 -0.61751155405E-01  0.55381697147E-01 -0.47435551294E-01  0.95554854509E-01  0.51100000000E-03 0.  1.
</event>
<event>
 8    1  0.1099478E+005  0.1043930E+01  0.7957747E-01            NaN
         13   -1    0    0    0    0  0.00000000000E+00  0.00000000000E+00  0.74505805969E-08  0.10566000000E+00  0.10566000000E+00 0. -1.
     999900   -1    0    0    0    0 -0.00000000000E+00 -0.00000000000E+00 -0.74505805969E-08  0.93827000000E+00  0.93827000000E+00 0.  1.
     999902    2    1    2    0    0  0.15897625241E-01 -0.16399972257E-01  0.73341163165E-02  0.10199407766E+01  0.10196586217E+01 0.  0.
     999903    2    3    3    0    0 -0.67626789112E-01  0.55147082902E-01  0.92660348947E-01  0.12899977131E+00  0.20986123317E-01 0.  0.
         14    1    1    2    0    0 -0.15897625241E-01  0.16399972257E-01 -0.73341163165E-02  0.23989223424E-01  0.00000000000E+00 0. -1.
     999901    1    3    3    0    0  0.83524414354E-01 -0.71547055160E-01 -0.85326232630E-01  0.89094100527E+00  0.88000000000E+00 0.  1.
        -11    1    4    4    0    0 -0.38303739131E-01  0.31599579508E-01  0.67299327847E-01  0.83637135927E-01  0.51100000000E-03 0.  1.
         11    1    4    4    0    0 -0.29323049981E-01  0.23547503394E-01  0.25361021100E-01  0.45362635379E-01  0.51100000000E-03 0. -1.
</event>
<event>
 8    1  0.1099478E+005  0.1043930E+01  0.7957747E-01            NaN
         13   -1    0    0    0    0  0.00000000000E+00  0.00000000000E+00  0.74505805969E-08  0.10566000000E+00  0.10566000000E+00 0. -1.
     999900   -1    0    0    0    0 -0.00000000000E+00 -0.00000000000E+00 -0.74505805969E-08  0.93827000000E+00  0.93827000000E+00 0. -1.
     999902    2    1    2    0    0 -0.36968147380E-02 -0.15571984759E-01  0.16297034301E-01  0.10210882296E+01  0.10208327121E+01 0.  0.
     999903    2    3    3    0    0 -0.54805784185E-01  0.78592046394E-01 -0.83559153576E-01  0.12898383560E+00  0.21778750247E-01 0.  0.
         14    1    1    2    0    0  0.36968147380E-02  0.15571984759E-01 -0.16297034301E-01  0.22841770412E-01  0.00000000000E+00 0.  1.
     999901    1    3    3    0    0  0.51108969447E-01 -0.94164031154E-01  0.99856187877E-01  0.89210439399E+00  0.88000000000E+00 0.  1.
        -11    1    4    4    0    0 -0.18151620073E-01  0.38071938976E-01 -0.25660792506E-01  0.49372980888E-01  0.51100000000E-03 0.  1.
         11    1    4    4    0    0 -0.36654164112E-01  0.40520107418E-01 -0.57898361070E-01  0.79610854709E-01  0.51100000000E-03 0. -1.
</event>
<event>
 8    1  0.1099478E+005  0.1043930E+01  0.7957747E-01            NaN
         13   -1    0    0    0    0  0.00000000000E+00  0.00000000000E+00  0.74505805969E-08  0.10566000000E+00  0.10566000000E+00 0. -1.
     999900   -1    0    0    0    0 -0.00000000000E+00 -0.00000000000E+00 -0.74505805969E-08  0.93827000000E+00  0.93827000000E+00 0. -1.
     999902    2    1    2    0    0 -0.91792938528E-02 -0.72516256827E-03  0.21928307252E-01  0.10201468977E+01  0.10198696274E+01 0.  0.
     999903    2    3    3    0    0  0.94999205800E-01  0.75679538523E-01 -0.37843890083E-01  0.12870786236E+00  0.19527215970E-01 0.  0.
         14    1    1    2    0    0  0.91792938528E-02  0.72516256827E-03 -0.21928307252E-01  0.23783102307E-01  0.00000000000E+00 0.  1.
     999901    1    3    3    0    0 -0.10417849965E+00 -0.76404701091E-01  0.59772197335E-01  0.89143903533E+00  0.88000000000E+00 0.  1.
        -11    1    4    4    0    0  0.40165799938E-01  0.21718950390E-01 -0.89861143444E-02  0.46540473383E-01  0.51100000000E-03 0.  1.
         11    1    4    4    0    0  0.54833405862E-01  0.53960588132E-01 -0.28857775739E-01  0.82167388979E-01  0.51100000000E-03 0. -1.
</event>
<event>
 8    1  0.1099478E+005  0.1043930E+01  0.7957747E-01            NaN
         13   -1    0    0    0    0  0.00000000000E+00  0.00000000000E+00  0.74505805969E-08  0.10566000000E+00  0.10566000000E+00 0.  1.
     999900   -1    0    0    0    0 -0.00000000000E+00 -0.00000000000E+00 -0.74505805969E-08  0.93827000000E+00  0.93827000000E+00 0. -1.
     999902    2    1    2    0    0  0.14470746814E-01  0.15979499366E-01 -0.11236284909E-01  0.10196194876E+01  0.10193296319E+01 0.  0.
     999903    2    3    3    0    0 -0.37416256413E-01 -0.74917163709E-01  0.93901237938E-01  0.12720234123E+00  0.18719921665E-01 0.  0.
         14    1    1    2    0    0 -0.14470746814E-01 -0.15979499366E-01  0.11236284909E-01  0.24310512374E-01  0.00000000000E+00 0.  1.
     999901    1    3    3    0    0  0.51887003227E-01  0.90896663075E-01 -0.10513752285E+00  0.89241714639E+00  0.88000000000E+00 0. -1.
        -11    1    4    4    0    0 -0.34720884048E-01 -0.68732356993E-01  0.76560693479E-01  0.10858857027E+00  0.51100000000E-03 0. -1.
         11    1    4    4    0    0 -0.26953723646E-02 -0.61848067165E-02  0.17340544459E-01  0.18613770962E-01  0.51100000000E-03 0.  1.
</event>
<event>
 8    1  0.1099478E+005  0.1043930E+01  0.7957747E-01            NaN
         13   -1    0    0    0    0  0.00000000000E+00  0.00000000000E+00  0.74505805969E-08  0.10566000000E+00  0.10566000000E+00 0. -1.
     999900   -1    0    0    0    0 -0.00000000000E+00 -0.00000000000E+00 -0.74505805969E-08  0.93827000000E+00  0.93827000000E+00 0.  1.
     999902    2    1    2    0    0 -0.18860655406E-01  0.14690706569E-01  0.54711093246E-02  0.10194050287E+01  0.10191099736E+01 0.  0.
     999903    2    3    3    0    0 -0.58407853496E-01  0.35635604452E-01  0.11139768760E+00  0.13192369950E+00  0.17693050415E-01 0.  0.
         14    1    1    2    0    0  0.18860655406E-01 -0.14690706569E-01 -0.54711093246E-02  0.24524971337E-01  0.00000000000E+00 0.  1.
     999901    1    3    3    0    0  0.39547198090E-01 -0.20944897883E-01 -0.10592657828E+00  0.88748132916E+00  0.88000000000E+00 0.  1.
        -11    1    4    4    0    0 -0.21457732374E-01  0.40631713596E-02  0.39507263396E-01  0.45144530368E-01  0.51100000000E-03 0.  1.
         11    1    4    4    0    0 -0.36950121122E-01  0.31572433092E-01  0.71890424204E-01  0.86779169133E-01  0.51100000000E-03 0. -1.
</event>
<event>
 8    1  0.1099478E+005  0.1043930E+01  0.7957747E-01            NaN
         13   -1    0    0    0    0  0.00000000000E+00  0.00000000000E+00  0.74505805969E-08  0.10566000000E+00  0.10566000000E+00 0.  1.
     999900   -1    0    0    0    0 -0.00000000000E+00 -0.00000000000E+00 -0.74505805969E-08  0.93827000000E+00  0.93827000000E+00 0. -1.
     999902    2    1    2    0    0 -0.15134855897E-01  0.12403745808E-01 -0.14100645010E-01  0.10198106102E+01  0.10195253483E+01 0.  0.
     999903    2    3    3    0    0 -0.64974276684E-01  0.11058984102E+00  0.24736626749E-01  0.13209848863E+00  0.19655544478E-01 0.  0.
         14    1    1    2    0    0  0.15134855897E-01 -0.12403745808E-01  0.14100645010E-01  0.24119389768E-01  0.00000000000E+00 0. -1.
     999901    1    3    3    0    0  0.49839420787E-01 -0.98186095212E-01 -0.38837271759E-01  0.88771212160E+00  0.88000000000E+00 0.  1.
        -11    1    4    4    0    0  0.11930284724E-02  0.14190680380E-02 -0.46015877442E-03  0.19773563488E-02  0.51100000000E-03 0.  1.
         11    1    4    4    0    0 -0.66167305157E-01  0.10917077298E+00  0.25196785523E-01  0.13012113228E+00  0.51100000000E-03 0. -1.
</event>
<event>
 8    1  0.1099478E+005  0.1043930E+01  0.7957747E-01            NaN
         13   -1    0    0    0    0  0.00000000000E+00  0.00000000000E+00  0.74505805969E-08  0.10566000000E+00  0.10566000000E+00 0. -1.
     999900   -1    0    0    0    0 -0.00000000000E+00 -0.00000000000E+00 -0.74505805969E-08  0.93827000000E+00  0.93827000000E+00 0.  1.
     999902    2    1    2    0    0  0.33550525797E-02  0.64545145805E-02 -0.23208653081E-01  0.10196080199E+01  0.10193178874E+01 0.  0.
     999903    2    3    3    0    0  0.12587311903E+00 -0.20688659408E-01 -0.20149745321E-01  0.13070038390E+00  0.20112568026E-01 0.  0.
         14    1    1    2    0    0 -0.33550525797E-02 -0.64545145805E-02  0.23208653081E-01  0.24321980061E-01  0.00000000000E+00 0. -1.
     999901    1    3    3    0    0 -0.12251806645E+00  0.27143173989E-01 -0.30589077602E-02  0.88890763604E+00  0.88000000000E+00 0.  1.
        -11    1    4    4    0    0  0.40767494608E-01 -0.14666143306E-01 -0.14355820556E-02  0.43352120973E-01  0.51100000000E-03 0. -1.
         11    1    4    4    0    0  0.85105624418E-01 -0.60225161020E-02 -0.18714163265E-01  0.87348262922E-01  0.51100000000E-03 0.  1.
</event>
<event>
 8    1  0.1099478E+005  0.1043930E+01  0.7957747E-01            NaN
         13   -1    0    0    0    0  0.00000000000E+00  0.00000000000E+00  0.74505805969E-08  0.10566000000E+00  0.10566000000E+00 0. -1.
     999900   -1    0    0    0    0 -0.00000000000E+00 -0.00000000000E+00 -0.74505805969E-08  0.93827000000E+00  0.93827000000E+00 0. -1.
     999902    2    1    2    0    0  0.11222859080E-01 -0.51635245640E-02 -0.20384688335E-01  0.10200941012E+01  0.10198155840E+01 0.  0.
     999903    2    3    3    0    0  0.45991035248E-01 -0.11226714665E+00  0.44047099585E-01  0.13058217481E+00  0.19810851975E-01 0.  0.
         14    1    1    2    0    0 -0.11222859080E-01  0.51635245640E-02  0.20384688335E-01  0.23835898774E-01  0.00000000000E+00 0. -1.
     999901    1    3    3    0    0 -0.34768176168E-01  0.10710362209E+00 -0.64431787920E-01  0.88951192641E+00  0.88000000000E+00 0. -1.
        -11    1    4    4    0    0  0.16233394166E-01 -0.53388863276E-01  0.11333741301E-01  0.56943907672E-01  0.51100000000E-03 0.  1.
         11    1    4    4    0    0  0.29757641082E-01 -0.58878283376E-01  0.32713358284E-01  0.73638267140E-01  0.51100000000E-03 0. -1.
</event>
<event>
 8    1  0.1099478E+005  0.1043930E+01  0.7957747E-01            NaN
         13   -1    0    0    0    0  0.00000000000E+00  0.00000000000E+00  0.74505805969E-08  0.10566000000E+00  0.10566000000E+00 0. -1.
     999900   -1    0    0    0    0 -0.00000000000E+00 -0.00000000000E+00 -0.74505805969E-08  0.93827000000E+00  0.93827000000E+00 0. -1.
     999902    2    1    2    0    0  0.44319695711E-02 -0.16030805669E-01 -0.16474113645E-01  0.10205200554E+01  0.10202515170E+01 0.  0.
     999903    2    3    3    0    0 -0.56332420666E-01 -0.48094939962E-01  0.10437552509E+00  0.12960757094E+00  0.20430549148E-01 0.  0.
         14    1    1    2    0    0 -0.44319695711E-02  0.16030805669E-01  0.16474113645E-01  0.23409944576E-01  0.00000000000E+00 0. -1.
     999901    1    3    3    0    0  0.60764390237E-01  0.32064134293E-01 -0.12084963874E+00  0.89091248449E+00  0.88000000000E+00 0. -1.
        -11    1    4    4    0    0 -0.31567017911E-01 -0.30858554857E-01  0.77526302028E-01  0.89214996804E-01  0.51100000000E-03 0. -1.
         11    1    4    4    0    0 -0.24765402755E-01 -0.17236385105E-01  0.26849223064E-01  0.40392574135E-01  0.51100000000E-03 0.  1.
</event>
<event>
 8    1  0.1099478E+005  0.1043930E+01  0.7957747E-01            NaN
         13   -1    0    0    0    0  0.00000000000E+00  0.00000000000E+00  0.74505805969E-08  0.10566000000E+00  0.10566000000E+00 0.  1.
     999900   -1    0    0    0    0 -0.00000000000E+00 -0.00000000000E+00 -0.74505805969E-08  0.93827000000E+00  0.93827000000E+00 0.  1.
     999902    2    1    2    0    0 -0.15039832781E-01 -0.15721047017E-01  0.91703987586E-02  0.10203197458E+01  0.10200465380E+01 0.  0.
     999903    2    3    3    0    0  0.41589807853E-01 -0.10011826906E+00  0.72985064457E-01  0.13217442052E+00  0.19745325716E-01 0.  0.
         14    1    1    2    0    0  0.15039832781E-01  0.15721047017E-01 -0.91703987586E-02  0.23610254187E-01  0.00000000000E+00 0. -1.
     999901    1    3    3    0    0 -0.56629640634E-01  0.84397222047E-01 -0.63814665698E-01  0.88814532530E+00  0.88000000000E+00 0.  1.
        -11    1    4    4    0    0  0.29874452713E-01 -0.74851831565E-01  0.63970997010E-01  0.10289717777E+00  0.51100000000E-03 0.  1.
         11    1    4    4    0    0  0.11715355140E-01 -0.25266437498E-01  0.90140674467E-02  0.29277242746E-01  0.51100000000E-03 0. -1.
</event>
<event>
 8    1  0.1099478E+005  0.1043930E+01  0.7957747E-01            NaN
         13   -1    0    0    0    0  0.00000000000E+00  0.00000000000E+00  0.74505805969E-08  0.10566000000E+00  0.10566000000E+00 0.  1.
     999900   -1    0    0    0    0 -0.00000000000E+00 -0.00000000000E+00 -0.74505805969E-08  0.93827000000E+00  0.93827000000E+00 0.  1.
     999902    2    1    2    0    0 -0.16843757163E-01 -0.17739628059E-01  0.59445191507E-02  0.10187557301E+01  0.10184446444E+01 0.  0.
     999903    2    3    3    0    0  0.54848925011E-01 -0.20694151864E-01  0.11341222533E+00  0.12931889826E+00  0.20600779073E-01 0.  0.
         14    1    1    2    0    0  0.16843757163E-01  0.17739628059E-01 -0.59445191507E-02  0.25174269939E-01  0.00000000000E+00 0. -1.
     999901    1    3    3    0    0 -0.71692682174E-01  0.29545238052E-02 -0.10746770618E+00  0.88943683180E+00  0.88000000000E+00 0.  1.
        -11    1    4    4    0    0  0.47847523535E-01 -0.14349288805E-01  0.10639276331E+00  0.11753709544E+00  0.51100000000E-03 0. -1.
         11    1    4    4    0    0  0.70014014756E-02 -0.63448630592E-02  0.70194620135E-02  0.11781802826E-01  0.51100000000E-03 0.  1.
</event>
<event>
 8    1  0.1099478E+005  0.1043930E+01  0.7957747E-01            NaN
         13   -1    0    0    0    0  0.00000000000E+00  0.00000000000E+00  0.74505805969E-08  0.10566000000E+00  0.10566000000E+00 0.  1.
     999900   -1    0    0    0    0 -0.00000000000E+00 -0.00000000000E+00 -0.74505805969E-08  0.93827000000E+00  0.93827000000E+00 0. -1.
     999902    2    1    2    0    0  0.39579039944E-02 -0.22976944303E-01 -0.77664029569E-03  0.10206017308E+01  0.10203350846E+01 0.  0.
     999903    2    3    3    0    0 -0.69309120336E-01  0.12067573157E-02 -0.10889885827E+00  0.13063357278E+00  0.20023950136E-01 0.  0.
         14    1    1    2    0    0 -0.39579039944E-02  0.22976944303E-01  0.77664029569E-03  0.23328269196E-01  0.00000000000E+00 0.  1.
     999901    1    3    3    0    0  0.73267024330E-01 -0.24183701619E-01  0.10812221798E+00  0.88996815802E+00  0.88000000000E+00 0.  1.
        -11    1    4    4    0    0 -0.31199501801E-01  0.12605130920E-02 -0.67430265392E-01  0.74310831093E-01  0.51100000000E-03 0. -1.
         11    1    4    4    0    0 -0.38109618535E-01 -0.53755776257E-04 -0.41468592880E-01  0.56322741686E-01  0.51100000000E-03 0.  1.
</event>
<event>
 8    1  0.1099478E+005  0.1043930E+01  0.7957747E-01            NaN
         13   -1    0    0    0    0  0.00000000000E+00  0.00000000000E+00  0.74505805969E-08  0.10566000000E+00  0.10566000000E+00 0.  1.
     999900   -1    0    0    0    0 -0.00000000000E+00 -0.00000000000E+00 -0.74505805969E-08  0.93827000000E+00  0.93827000000E+00 0.  1.
     999902    2    1    2    0    0  0.21401730311E-01  0.10051748474E-01  0.83421730904E-03  0.10202705912E+01  0.10199962312E+01 0.  0.
     999903    2    3    3    0    0  0.12442229959E+00 -0.38237411462E-01  0.17423941754E-01  0.13279084514E+00  0.19667397782E-01 0.  0.
         14    1    1    2    0    0 -0.21401730311E-01 -0.10051748474E-01 -0.83421730904E-03  0.23659408831E-01  0.00000000000E+00 0.  1.
     999901    1    3    3    0    0 -0.10302056928E+00  0.48289159936E-01 -0.16589724445E-01  0.88747974603E+00  0.88000000000E+00 0.  1.
        -11    1    4    4    0    0  0.10819439562E+00 -0.35999089697E-01  0.90496785465E-02  0.11438583612E+00  0.51100000000E-03 0. -1.
         11    1    4    4    0    0  0.16227903971E-01 -0.22383217650E-02  0.83742632076E-02  0.18405009016E-01  0.51100000000E-03 0.  1.
</event>
<event>
 8    1  0.1099478E+005  0.1043930E+01  0.7957747E-01            NaN
         13   -1    0    0    0    0  0.00000000000E+00  0.00000000000E+00  0.74505805969E-08  0.10566000000E+00  0.10566000000E+00 0.  1.
     999900   -1    0    0    0    0 -0.00000000000E+00 -0.00000000000E+00 -0.74505805969E-08  0.93827000000E+00  0.93827000000E+00 0. -1.
     999902    2    1    2    0    0  0.21630232568E-01 -0.10961278994E-01 -0.23208361925E-02  0.10195701380E+01  0.10192790900E+01 0.  0.
     999903    2    3    3    0    0  0.44144312574E-01  0.12022451249E-01  0.12125827067E+00  0.13035310522E+00  0.13967969345E-01 0.  0.
         14    1    1    2    0    0 -0.21630232568E-01  0.10961278994E-01  0.23208361925E-02  0.24359862043E-01  0.00000000000E+00 0.  1.
     999901    1    3    3    0    0 -0.22514080007E-01 -0.22983730243E-01 -0.12357910686E+00  0.88921703274E+00  0.88000000000E+00 0. -1.
        -11    1    4    4    0    0  0.31932678554E-01  0.14856482601E-01  0.92367613197E-01  0.98855693430E-01  0.51100000000E-03 0. -1.
         11    1    4    4    0    0  0.12211634021E-01 -0.28340313517E-02  0.28890657475E-01  0.31497411791E-01  0.51100000000E-03 0.  1.
</event>
<event>
 8    1  0.1099478E+005  0.1043930E+01  0.7957747E-01            NaN
         13   -1    0    0    0    0  0.00000000000E+00  0.00000000000E+00  0.74505805969E-08  0.10566000000E+00  0.10566000000E+00 0. -1.
     999900   -1    0    0    0    0 -0.00000000000E+00 -0.00000000000E+00 -0.74505805969E-08  0.93827000000E+00  0.93827000000E+00 0.  1.
     999902    2    1    2    0    0  0.14691360916E-01 -0.97383529777E-02 -0.68309809999E-02  0.10250267224E+01  0.10248524029E+01 0.  0.
     999903    2    3    3    0    0 -0.72543161566E-01  0.99714057139E-01 -0.45904500292E-01  0.13310944373E+00  0.20136965588E-01 0.  0.
         14    1    1    2    0    0 -0.14691360916E-01  0.97383529777E-02  0.68309809999E-02  0.18903277645E-01  0.00000000000E+00 0. -1.
     999901    1    3    3    0    0  0.87234522482E-01 -0.10945241012E+00  0.39073519292E-01  0.89191727862E+00  0.88000000000E+00 0. -1.
        -11    1    4    4    0    0 -0.40490078890E-01  0.71687868571E-01 -0.28895656708E-01  0.87257189310E-01  0.51100000000E-03 0.  1.
         11    1    4    4    0    0 -0.32053082677E-01  0.28026188568E-01 -0.17008843583E-01  0.45852254424E-01  0.51100000000E-03 0. -1.
</event>
<event>
 8    1  0.1099478E+005  0.1043930E+01  0.7957747E-01            NaN
         13   -1    0    0    0    0  0.00000000000E+00  0.00000000000E+00  0.74505805969E-08  0.10566000000E+00  0.10566000000E+00 0.  1.
     999900   -1    0    0    0    0 -0.00000000000E+00 -0.00000000000E+00 -0.74505805969E-08  0.93827000000E+00  0.93827000000E+00 0.  1.
     999902    2    1    2    0    0 -0.20927659797E-01 -0.11272704052E-01 -0.34539672675E-02  0.10199097858E+01  0.10196268928E+01 0.  0.
     999903    2    3    3    0    0  0.78479870352E-01 -0.33516650198E-01  0.94197067282E-01  0.12866774529E+00  0.19996132190E-01 0.  0.
         14    1    1    2    0    0  0.20927659797E-01  0.11272704052E-01  0.34539672675E-02  0.24020214219E-01  0.00000000000E+00 0.  1.
     999901    1    3    3    0    0 -0.99407530149E-01  0.22243946146E-01 -0.97651034550E-01  0.89124204049E+00  0.88000000000E+00 0.  1.
        -11    1    4    4    0    0  0.33103391738E-02  0.43449190375E-03 -0.10972932097E-03  0.33793919843E-02  0.51100000000E-03 0.  1.
         11    1    4    4    0    0  0.75169531178E-01 -0.33951142101E-01  0.94306796603E-01  0.12528835331E+00  0.51100000000E-03 0. -1.
</event>
<event>
 8    1  0.1099478E+005  0.1043930E+01  0.7957747E-01            NaN
         13   -1    0    0    0    0  0.00000000000E+00  0.00000000000E+00  0.74505805969E-08  0.10566000000E+00  0.10566000000E+00 0.  1.
     999900   -1    0    0    0    0 -0.00000000000E+00 -0.00000000000E+00 -0.74505805969E-08  0.93827000000E+00  0.93827000000E+00 0.  1.
     999902    2    1    2    0    0 -0.12366764806E-01  0.17836008756E-01 -0.11878213123E-01  0.10191882938E+01  0.10188879360E+01 0.  0.
     999903    2    3    3    0    0  0.11796676122E+00  0.38504387731E-01 -0.28487514444E-01  0.12919397987E+00  0.21927182383E-01 0.  0.
         14    1    1    2    0    0  0.12366764806E-01 -0.17836008756E-01  0.11878213123E-01  0.24741706228E-01  0.00000000000E+00 0.  1.
     999901    1    3    3    0    0 -0.13033352602E+00 -0.20668378975E-01  0.16609301321E-01  0.88999431391E+00  0.88000000000E+00 0. -1.
        -11    1    4    4    0    0  0.54954750139E-01  0.67307521419E-02 -0.10317159871E-01  0.56320799853E-01  0.51100000000E-03 0. -1.
         11    1    4    4    0    0  0.63012011080E-01  0.31773635589E-01 -0.18170354573E-01  0.72873180013E-01  0.51100000000E-03 0.  1.
</event>
<event>
 8    1  0.1099478E+005  0.1043930E+01  0.7957747E-01            NaN
         13   -1    0    0    0    0  0.00000000000E+00  0.00000000000E+00  0.74505805969E-08  0.10566000000E+00  0.10566000000E+00 0.  1.
     999900   -1    0    0    0    0 -0.00000000000E+00 -0.00000000000E+00 -0.74505805969E-08  0.93827000000E+00  0.93827000000E+00 0.  1.
     999902    2    1    2    0    0  0.58361182158E-02  0.80034989236E-02 -0.20005588018E-01  0.10216064738E+01  0.10213625446E+01 0.  0.
     999903    2    3    3    0    0 -0.41722002434E-01  0.11039364773E-01  0.12015339050E+00  0.12924134079E+00  0.20097110699E-01 0.  0.
         14    1    1    2    0    0 -0.58361182158E-02 -0.80034989236E-02  0.20005588018E-01  0.22323526217E-01  0.00000000000E+00 0.  1.
     999901    1    3    3    0    0  0.47558120650E-01 -0.30358658493E-02 -0.14015897852E+00  0.89236513299E+00  0.88000000000E+00 0.  1.
        -11    1    4    4    0    0 -0.32211327965E-01 -0.10158103696E-02  0.79966097008E-01  0.86217395644E-01  0.51100000000E-03 0.  1.
         11    1    4    4    0    0 -0.95106744697E-02  0.12055175143E-01  0.40187293493E-01  0.43023945146E-01  0.51100000000E-03 0. -1.
</event>
<event>
 8    1  0.1099478E+005  0.1043930E+01  0.7957747E-01            NaN
         13   -1    0    0    0    0  0.00000000000E+00  0.00000000000E+00  0.74505805969E-08  0.10566000000E+00  0.10566000000E+00 0. -1.
     999900   -1    0    0    0    0 -0.00000000000E+00 -0.00000000000E+00 -0.74505805969E-08  0.93827000000E+00  0.93827000000E+00 0. -1.
     999902    2    1    2    0    0  0.12922137561E-01 -0.18276142390E-01 -0.42143489598E-02  0.10211537019E+01  0.10208996636E+01 0.  0.
     999903    2    3    3    0    0  0.65941135664E-01  0.10058414085E+00 -0.46703601200E-01  0.13056731209E+00  0.20029824208E-01 0.  0.
         14    1    1    2    0    0 -0.12922137561E-01  0.18276142390E-01  0.42143489598E-02  0.22776298140E-01  0.00000000000E+00 0.  1.
     999901    1    3    3    0    0 -0.53018998102E-01 -0.11886028324E+00  0.42489252240E-01  0.89058638977E+00  0.88000000000E+00 0.  1.
        -11    1    4    4    0    0  0.39037207852E-01  0.50847227677E-01 -0.15393112866E-01  0.65928394520E-01  0.51100000000E-03 0.  1.
         11    1    4    4    0    0  0.26903927812E-01  0.49736913172E-01 -0.31310488334E-01  0.64638917567E-01  0.51100000000E-03 0. -1.
</event>
<event>
 8    1  0.1099478E+005  0.1043930E+01  0.7957747E-01            NaN
         13   -1    0    0    0    0  0.00000000000E+00  0.00000000000E+00  0.74505805969E-08  0.10566000000E+00  0.10566000000E+00 0.  1.
     999900   -1    0    0    0    0 -0.00000000000E+00 -0.00000000000E+00 -0.74505805969E-08  0.93827000000E+00  0.93827000000E+00 0. -1.
     999902    2    1    2    0    0 -0.66475770240E-02  0.11094073214E-01 -0.19898164663E-01  0.10201980448E+01  0.10199219798E+01 0.  0.
     999903    2    3    3    0    0 -0.11800600501E-01 -0.70727634910E-01  0.10368109018E+00  0.12778940645E+00  0.20945439298E-01 0.  0.
         14    1    1    2    0    0  0.66475770240E-02 -0.11094073214E-01  0.19898164663E-01  0.23731955202E-01  0.00000000000E+00 0.  1.
     999901    1    3    3    0    0  0.51530234765E-02  0.81821708124E-01 -0.12357925484E+00  0.89240863835E+00  0.88000000000E+00 0. -1.
        -11    1    4    4    0    0 -0.17136776792E-01 -0.48985205729E-01  0.66065537094E-01  0.84012712203E-01  0.51100000000E-03 0.  1.
         11    1    4    4    0    0  0.53361762915E-02 -0.21742429181E-01  0.37615553088E-01  0.43776694247E-01  0.51100000000E-03 0. -1.
</event>
<event>
 8    1  0.1099478E+005  0.1043930E+01  0.7957747E-01            NaN
         13   -1    0    0    0    0  0.00000000000E+00  0.00000000000E+00  0.74505805969E-08  0.10566000000E+00  0.10566000000E+00 0. -1.
     999900   -1    0    0    0    0 -0.00000000000E+00 -0.00000000000E+00 -0.74505805969E-08  0.93827000000E+00  0.93827000000E+00 0.  1.
     999902    2    1    2    0    0 -0.12136588639E-01  0.13530303348E-01 -0.16049757807E-01  0.10196821007E+01  0.10193937541E+01 0.  0.
     999903    2    3    3    0    0 -0.56947172178E-01 -0.10561713010E+00 -0.46155128005E-01  0.13001338004E+00  0.19370713900E-01 0.  0.
         14    1    1    2    0    0  0.12136588639E-01 -0.13530303348E-01  0.16049757807E-01  0.24247899252E-01  0.00000000000E+00 0. -1.
     999901    1    3    3    0    0  0.44810583539E-01  0.11914743345E+00  0.30105370198E-01  0.88966872071E+00  0.88000000000E+00 0. -1.
        -11    1    4    4    0    0 -0.47198186915E-01 -0.89371541448E-01 -0.30914221621E-01  0.10569243818E+00  0.51100000000E-03 0.  1.
         11    1    4    4    0    0 -0.97489852635E-02 -0.16245588656E-01 -0.15240906384E-01  0.24320941858E-01  0.51100000000E-03 0. -1.
</event>
<event>
 8    1  0.1099478E+005  0.1043930E+01  0.7957747E-01            NaN
         13   -1    0    0    0    0  0.00000000000E+00  0.00000000000E+00  0.74505805969E-08  0.10566000000E+00  0.10566000000E+00 0.  1.
     999900   -1    0    0    0    0 -0.00000000000E+00 -0.00000000000E+00 -0.74505805969E-08  0.93827000000E+00  0.93827000000E+00 0. -1.
     999902    2    1    2    0    0  0.10531987530E-01  0.37141005926E-02  0.22016640840E-01  0.10192429634E+01  0.10189439477E+01 0.  0.
     999903    2    3    3    0    0  0.88307076495E-01  0.32377171901E-01  0.91000838818E-01  0.13265999730E+00  0.21704865794E-01 0.  0.
         14    1    1    2    0    0 -0.10531987530E-01 -0.37141005926E-02 -0.22016640840E-01  0.24687036647E-01  0.00000000000E+00 0. -1.
     999901    1    3    3    0    0 -0.77775088966E-01 -0.28663071309E-01 -0.68984197978E-01  0.88658296605E+00  0.88000000000E+00 0. -1.
        -11    1    4    4    0    0  0.31908956856E-01  0.19259601684E-01  0.46699082880E-01  0.59750976959E-01  0.51100000000E-03 0. -1.
         11    1    4    4    0    0  0.56398119640E-01  0.13117570217E-01  0.44301755938E-01  0.72909020344E-01  0.51100000000E-03 0.  1.
</event>
<event>
 8    1  0.1099478E+005  0.1043930E+01  0.7957747E-01            NaN
         13   -1    0    0    0    0  0.00000000000E+00  0.00000000000E+00  0.74505805969E-08  0.10566000000E+00  0.10566000000E+00 0. -1.
     999900   -1    0    0    0    0 -0.00000000000E+00 -0.00000000000E+00 -0.74505805969E-08  0.93827000000E+00  0.93827000000E+00 0. -1.
     999902    2    1    2    0    0 -0.79707568450E-02 -0.81900033114E-02 -0.21068350637E-01  0.10199615933E+01  0.10196799338E+01 0.  0.
     999903    2    3    3    0    0 -0.18068854274E-01 -0.12461907678E+00 -0.33952010338E-01  0.13214196673E+00  0.21268816908E-01 0.  0.
         14    1    1    2    0    0  0.79707568450E-02  0.81900033114E-02  0.21068350637E-01  0.23968406653E-01  0.00000000000E+00 0. -1.
     999901    1    3    3    0    0  0.10098097429E-01  0.11642907347E+00  0.12883659701E-01  0.88781962662E+00  0.88000000000E+00 0.  1.
        -11    1    4    4    0    0 -0.16175273731E-01 -0.41235302373E-01 -0.12093960652E-01  0.45918565388E-01  0.51100000000E-03 0. -1.
         11    1    4    4    0    0 -0.18935805429E-02 -0.83383774408E-01 -0.21858049686E-01  0.86223401342E-01  0.51100000000E-03 0.  1.
</event>
<event>
 8    1  0.1099478E+005  0.1043930E+01  0.7957747E-01            NaN
         13   -1    0    0    0    0  0.00000000000E+00  0.00000000000E+00  0.74505805969E-08  0.10566000000E+00  0.10566000000E+00 0.  1.
     999900   -1    0    0    0    0 -0.00000000000E+00 -0.00000000000E+00 -0.74505805969E-08  0.93827000000E+00  0.93827000000E+00 0.  1.
     999902    2    1    2    0    0  0.21062202207E-01  0.15276454161E-02 -0.11704780823E-01  0.10197856020E+01  0.10194997411E+01 0.  0.
     999903    2    3    3    0    0  0.51423473573E-02  0.48922712293E-01  0.11746714410E+00  0.12895165541E+00  0.20251517872E-01 0.  0.
         14    1    1    2    0    0 -0.21062202207E-01 -0.15276454161E-02  0.11704780823E-01  0.24144398034E-01  0.00000000000E+00 0. -1.
     999901    1    3    3    0    0  0.15919854850E-01 -0.47395066877E-01 -0.12917192492E+00  0.89083394655E+00  0.88000000000E+00 0.  1.
        -11    1    4    4    0    0  0.19655889537E-02  0.91645546816E-02  0.47450358396E-01  0.48369931107E-01  0.51100000000E-03 0. -1.
         11    1    4    4    0    0  0.31767584035E-02  0.39758157612E-01  0.70016785705E-01  0.80581724306E-01  0.51100000000E-03 0.  1.
</event>
<event>
 8    1  0.1099478E+005  0.1043930E+01  0.7957747E-01            NaN
         13   -1    0    0    0    0  0.00000000000E+00  0.00000000000E+00  0.74505805969E-08  0.10566000000E+00  0.10566000000E+00 0. -1.
     999900   -1    0    0    0    0 -0.00000000000E+00 -0.00000000000E+00 -0.74505805969E-08  0.93827000000E+00  0.93827000000E+00 0.  1.
     999902    2    1    2    0    0 -0.23603152340E-01 -0.48386694467E-02 -0.24711094447E-02  0.10197095974E+01  0.10194219122E+01 0.  0.
     999903    2    3    3    0    0 -0.69784392893E-01  0.10593269020E+00 -0.26473737554E-01  0.13123949248E+00  0.20768949488E-01 0.  0.
         14    1    1    2    0    0  0.23603152340E-01  0.48386694467E-02  0.24711094447E-02  0.24220402645E-01  0.00000000000E+00 0. -1.
     999901    1    3    3    0    0  0.46181240554E-01 -0.11077135964E+00  0.24002628109E-01  0.88847010487E+00  0.88000000000E+00 0. -1.
        -11    1    4    4    0    0 -0.73868623594E-02  0.70663073939E-02 -0.77498903700E-02  0.12838238098E-01  0.51100000000E-03 0. -1.
         11    1    4    4    0    0 -0.62397530534E-01  0.98866382804E-01 -0.18723847184E-01  0.11840125438E+00  0.51100000000E-03 0.  1.
</event>
<event>
 8    1  0.1099478E+005  0.1043930E+01  0.7957747E-01            NaN
         13   -1    0    0    0    0  0.00000000000E+00  0.00000000000E+00  0.74505805969E-08  0.10566000000E+00  0.10566000000E+00 0.  1.
     999900   -1    0    0    0    0 -0.00000000000E+00 -0.00000000000E+00 -0.74505805969E-08  0.93827000000E+00  0.93827000000E+00 0. -1.
     999902    2    1    2    0    0 -0.21410187489E-01 -0.88590540039E-02  0.20985291630E-02  0.10206645150E+01  0.10203993186E+01 0.  0.
     999903    2    3    3    0    0 -0.93987518405E-01  0.65191784376E-02  0.91766721430E-01  0.13300222356E+00  0.19806741439E-01 0.  0.
         14    1    1    2    0    0  0.21410187489E-01  0.88590540039E-02 -0.20985291630E-02  0.23265484968E-01  0.00000000000E+00 0. -1.
     999901    1    3    3    0    0  0.72577330916E-01 -0.15378232442E-01 -0.89668192267E-01  0.88766229147E+00  0.88000000000E+00 0. -1.
        -11    1    4    4    0    0 -0.75258069943E-01  0.29058244799E-02  0.82764258319E-01  0.11190354991E+00  0.51100000000E-03 0. -1.
         11    1    4    4    0    0 -0.18729448462E-01  0.36133539577E-02  0.90024631114E-02  0.21098673646E-01  0.51100000000E-03 0.  1.
</event>
<event>
 8    1  0.1099478E+005  0.1043930E+01  0.7957747E-01            NaN
         13   -1    0    0    0    0  0.00000000000E+00  0.00000000000E+00  0.74505805969E-08  0.10566000000E+00  0.10566000000E+00 0.  1.
     999900   -1    0    0    0    0 -0.00000000000E+00 -0.00000000000E+00 -0.74505805969E-08  0.93827000000E+00  0.93827000000E+00 0. -1.
     999902    2    1    2    0    0 -0.44834444263E-02  0.17685607520E-01 -0.13238163470E-01  0.10213882397E+01  0.10211394641E+01 0.  0.
     999903    2    3    3    0    0  0.73926277218E-01 -0.96372597934E-01 -0.41866065665E-01  0.13010999160E+00  0.20568674327E-01 0.  0.
         14    1    1    2    0    0  0.44834444263E-02 -0.17685607520E-01  0.13238163470E-01  0.22541760342E-01  0.00000000000E+00 0.  1.
     999901    1    3    3    0    0 -0.78409721644E-01  0.11405820545E+00  0.28627902195E-01  0.89127824806E+00  0.88000000000E+00 0.  1.
        -11    1    4    4    0    0  0.24224217514E-01 -0.46326956079E-01 -0.22857701440E-01  0.57059050201E-01  0.51100000000E-03 0.  1.
         11    1    4    4    0    0  0.49702059705E-01 -0.50045641855E-01 -0.19008364225E-01  0.73050941397E-01  0.51100000000E-03 0. -1.
</event>
<event>
 8    1  0.1099478E+005  0.1043930E+01  0.7957747E-01            NaN
         13   -1    0    0    0    0  0.00000000000E+00  0.00000000000E+00  0.74505805969E-08  0.10566000000E+00  0.10566000000E+00 0.  1.
     999900   -1    0    0    0    0 -0.00000000000E+00 -0.00000000000E+00 -0.74505805969E-08  0.93827000000E+00  0.93827000000E+00 0.  1.
     999902    2    1    2    0    0 -0.69467051540E-02 -0.84832884369E-02  0.21597095101E-01  0.10197089882E+01  0.10194212884E+01 0.  0.
     999903    2    3    3    0    0  0.12776170830E+00 -0.19699490429E-02 -0.50173951821E-02  0.12903670766E+00  0.17273183322E-01 0.  0.
         14    1    1    2    0    0  0.69467051540E-02  0.84832884369E-02 -0.21597095101E-01  0.24221011787E-01  0.00000000000E+00 0. -1.
     999901    1    3    3    0    0 -0.13470841346E+00 -0.65133393940E-02  0.26614490283E-01  0.89067228055E+00  0.88000000000E+00 0.  1.
        -11    1    4    4    0    0  0.97069771899E-01  0.54397083540E-03 -0.10894326931E-01  0.97682055676E-01  0.51100000000E-03 0.  1.
         11    1    4    4    0    0  0.30691936405E-01 -0.25139198783E-02  0.58769317487E-02  0.31354651987E-01  0.51100000000E-03 0. -1.
</event>
<event>
 8    1  0.1099478E+005  0.1043930E+01  0.7957747E-01            NaN
         13   -1    0    0    0    0  0.00000000000E+00  0.00000000000E+00  0.74505805969E-08  0.10566000000E+00  0.10566000000E+00 0.  1.
     999900   -1    0    0    0    0 -0.00000000000E+00 -0.00000000000E+00 -0.74505805969E-08  0.93827000000E+00  0.93827000000E+00 0.  1.
     999902    2    1    2    0    0  0.15197988556E-01  0.14410604816E-01 -0.96627721178E-02  0.10208645810E+01  0.10206039777E+01 0.  0.
     999903    2    3    3    0    0  0.68013878158E-01 -0.82198880634E-02 -0.11221708248E+00  0.13304757062E+00  0.20384510392E-01 0.  0.
         14    1    1    2    0    0 -0.15197988556E-01 -0.14410604816E-01  0.96627721178E-02  0.23065418971E-01  0.00000000000E+00 0. -1.
     999901    1    3    3    0    0 -0.52815889602E-01  0.22630492879E-01  0.10255431037E+00  0.88781701041E+00  0.88000000000E+00 0. -1.
        -11    1    4    4    0    0  0.30270558515E-01  0.51870763354E-02 -0.58082670171E-01  0.65704415140E-01  0.51100000000E-03 0. -1.
         11    1    4    4    0    0  0.37743319643E-01 -0.13406964399E-01 -0.54134412313E-01  0.67343155477E-01  0.51100000000E-03 0.  1.
</event>
<event>
 8    1  0.1099478E+005  0.1043930E+01  0.7957747E-01            NaN
         13   -1    0    0    0    0  0.00000000000E+00  0.00000000000E+00  0.74505805969E-08  0.10566000000E+00  0.10566000000E+00 0.  1.
     999900   -1    0    0    0    0 -0.00000000000E+00 -0.00000000000E+00 -0.74505805969E-08  0.93827000000E+00  0.93827000000E+00 0.  1.
     999902    2    1    2    0    0 -0.22461142092E-01  0.64576145879E-02  0.22695634037E-02  0.10204490586E+01  0.10201788699E+01 0.  0.
     999903    2    3    3    0    0  0.35777378019E-01 -0.60163314024E-01 -0.10693401417E+00  0.12929503449E+00  0.19562142691E-01 0.  0.
         14    1    1    2    0    0  0.22461142092E-01 -0.64576145879E-02 -0.22695634037E-02  0.23480941384E-01  0.00000000000E+00 0. -1.
     999901    1    3    3    0    0 -0.58238520110E-01  0.66620928612E-01  0.10920357757E+00  0.89115402412E+00  0.88000000000E+00 0. -1.
        -11    1    4    4    0    0  0.99857745054E-02 -0.15735405262E-01 -0.45748804957E-01  0.49401750447E-01  0.51100000000E-03 0.  1.
         11    1    4    4    0    0  0.25791603513E-01 -0.44427908762E-01 -0.61185209211E-01  0.79893284047E-01  0.51100000000E-03 0. -1.
</event>
<event>
 8    1  0.1099478E+005  0.1043930E+01  0.7957747E-01            NaN
         13   -1    0    0    0    0  0.00000000000E+00  0.00000000000E+00  0.74505805969E-08  0.10566000000E+00  0.10566000000E+00 0. -1.
     999900   -1    0    0    0    0 -0.00000000000E+00 -0.00000000000E+00 -0.74505805969E-08  0.93827000000E+00  0.93827000000E+00 0. -1.
     999902    2    1    2    0    0  0.38486555114E-02 -0.24905794805E-01  0.50686301337E-02  0.10182239350E+01  0.10178993959E+01 0.  0.
     999903    2    3    3    0    0  0.10581215276E+00  0.65070019966E-01  0.21054782550E-01  0.12763550087E+00  0.20425426423E-01 0.  0.
         14    1    1    2    0    0 -0.38486555114E-02  0.24905794805E-01 -0.50686301337E-02  0.25706064957E-01  0.00000000000E+00 0. -1.
     999901    1    3    3    0    0 -0.10196349725E+00 -0.89975814772E-01 -0.15986152416E-01  0.89058843417E+00  0.88000000000E+00 0. -1.
        -11    1    4    4    0    0  0.78857615301E-01  0.53983595400E-01  0.86551273848E-02  0.95957930440E-01  0.51100000000E-03 0. -1.
         11    1    4    4    0    0  0.26954537456E-01  0.11086424567E-01  0.12399655165E-01  0.31677570430E-01  0.51100000000E-03 0.  1.
</event>
<event>
 7    1  0.1479771E+005  0.1043930E+01  0.7957747E-01            NaN
         13   -1    0    0    0    0  0.00000000000E+00  0.00000000000E+00  0.74505805969E-08  0.10566000000E+00  0.10566000000E+00 0. -1.
     999900   -1    0    0    0    0 -0.00000000000E+00 -0.00000000000E+00 -0.74505805969E-08  0.93827000000E+00  0.93827000000E+00 0. -1.
     999903    2    1    2    0    0 -0.59388783757E-01 -0.34446612627E-01  0.85014594581E-01  0.11105817677E+00  0.19820206310E-01 0.  0.
         14    1    1    2    0    0 -0.30929786897E-01 -0.28581356207E-01 -0.29005212776E-02  0.42213252230E-01  0.00000000000E+00 0. -1.
     999901    1    1    2    0    0  0.90318570654E-01  0.63027968834E-01 -0.82114073304E-01  0.89065857100E+00  0.88000000000E+00 0.  1.
        -11    1    3    3    0    0 -0.45478277143E-01 -0.16241746325E-01  0.53226624423E-01  0.71870735937E-01  0.51100000000E-03 0.  1.
         11    1    3    3    0    0 -0.13910506614E-01 -0.18204866302E-01  0.31787970158E-01  0.39187440834E-01  0.51100000000E-03 0. -1.
</event>
<event>
 8    1  0.1099478E+005  0.1043930E+01  0.7957747E-01            NaN
         13   -1    0    0    0    0  0.00000000000E+00  0.00000000000E+00  0.74505805969E-08  0.10566000000E+00  0.10566000000E+00 0. -1.
     999900   -1    0    0    0    0 -0.00000000000E+00 -0.00000000000E+00 -0.74505805969E-08  0.93827000000E+00  0.93827000000E+00 0. -1.
     999902    2    1    2    0    0 -0.10720603975E-01 -0.11965955343E-01 -0.19231706026E-01  0.10188705915E+01  0.10185623733E+01 0.  0.
     999903    2    3    3    0    0  0.49470437029E-01  0.11546387596E+00 -0.10783625765E-01  0.12761715204E+00  0.19764111887E-01 0.  0.
         14    1    1    2    0    0  0.10720603975E-01  0.11965955343E-01  0.19231706026E-01  0.25059408483E-01  0.00000000000E+00 0. -1.
     999901    1    3    3    0    0 -0.60191041003E-01 -0.12742983130E+00 -0.84480802613E-02  0.89125343948E+00  0.88000000000E+00 0. -1.
        -11    1    4    4    0    0  0.43828399213E-01  0.10510680501E+00 -0.38894451663E-02  0.11394629411E+00  0.51100000000E-03 0.  1.
         11    1    4    4    0    0  0.56420378155E-02  0.10357070947E-01 -0.68941805984E-02  0.13670857926E-01  0.51100000000E-03 0. -1.
</event>
<event>
 8    1  0.1099478E+005  0.1043930E+01  0.7957747E-01            NaN
         13   -1    0    0    0    0  0.00000000000E+00  0.00000000000E+00  0.74505805969E-08  0.10566000000E+00  0.10566000000E+00 0. -1.
     999900   -1    0    0    0    0 -0.00000000000E+00 -0.00000000000E+00 -0.74505805969E-08  0.93827000000E+00  0.93827000000E+00 0. -1.
     999902    2    1    2    0    0  0.41431102741E-02  0.12013835885E-01 -0.19860301038E-01  0.10203518497E+01  0.10200793930E+01 0.  0.
     999903    2    3    3    0    0 -0.91667307123E-01  0.11578723120E-01 -0.92494435932E-01  0.13217644867E+00  0.19453299963E-01 0.  0.
         14    1    1    2    0    0 -0.41431102741E-02 -0.12013835885E-01  0.19860301038E-01  0.23578150325E-01  0.00000000000E+00 0. -1.
     999901    1    3    3    0    0  0.95810417397E-01  0.43511276557E-03  0.72634134894E-01  0.88817540101E+00  0.88000000000E+00 0.  1.
        -11    1    4    4    0    0 -0.64766924682E-01 -0.52826665080E-03 -0.60080281913E-01  0.88345543149E-01  0.51100000000E-03 0. -1.
         11    1    4    4    0    0 -0.26900382441E-01  0.12106989771E-01 -0.32414154019E-01  0.43830905518E-01  0.51100000000E-03 0.  1.
</event>
<event>
 8    1  0.1099478E+005  0.1043930E+01  0.7957747E-01            NaN
         13   -1    0    0    0    0  0.00000000000E+00  0.00000000000E+00  0.74505805969E-08  0.10566000000E+00  0.10566000000E+00 0. -1.
     999900   -1    0    0    0    0 -0.00000000000E+00 -0.00000000000E+00 -0.74505805969E-08  0.93827000000E+00  0.93827000000E+00 0. -1.
     999902    2    1    2    0    0  0.14669262433E-01 -0.10029403903E-01  0.14636739140E-01  0.10209080467E+01  0.10206484357E+01 0.  0.
     999903    2    3    3    0    0  0.85753446598E-01  0.55464865894E-01 -0.78948456262E-01  0.13068299117E+00  0.20375978114E-01 0.  0.
         14    1    1    2    0    0 -0.14669262433E-01  0.10029403903E-01 -0.14636739140E-01  0.23021953341E-01  0.00000000000E+00 0.  1.
     999901    1    3    3    0    0 -0.71084184164E-01 -0.65494269797E-01  0.93585195402E-01  0.89022505548E+00  0.88000000000E+00 0.  1.
        -11    1    4    4    0    0  0.62044448547E-01  0.28754907291E-01 -0.53485326996E-01  0.86817622714E-01  0.51100000000E-03 0.  1.
         11    1    4    4    0    0  0.23708998050E-01  0.26709958603E-01 -0.25463129266E-01  0.43865368460E-01  0.51100000000E-03 0. -1.
</event>
<event>
 8    1  0.1099478E+005  0.1043930E+01  0.7957747E-01            NaN
         13   -1    0    0    0    0  0.00000000000E+00  0.00000000000E+00  0.74505805969E-08  0.10566000000E+00  0.10566000000E+00 0.  1.
     999900   -1    0    0    0    0 -0.00000000000E+00 -0.00000000000E+00 -0.74505805969E-08  0.93827000000E+00  0.93827000000E+00 0.  1.
     999902    2    1    2    0    0 -0.13933084966E-01 -0.21464563509E-02 -0.17971767893E-01  0.10210887528E+01  0.10208332472E+01 0.  0.
     999903    2    3    3    0    0 -0.47434141596E-02 -0.67178205334E-01 -0.11379732641E+00  0.13345362728E+00  0.18017432848E-01 0.  0.
         14    1    1    2    0    0  0.13933084966E-01  0.21464563509E-02  0.17971767893E-01  0.22841247180E-01  0.00000000000E+00 0.  1.
     999901    1    3    3    0    0 -0.91896708067E-02  0.65031748983E-01  0.95825558517E-01  0.88763512554E+00  0.88000000000E+00 0. -1.
        -11    1    4    4    0    0 -0.62445675099E-02 -0.43823724359E-01 -0.88703940652E-01  0.99137095218E-01  0.51100000000E-03 0. -1.
         11    1    4    4    0    0  0.15011533502E-02 -0.23354480974E-01 -0.25093385759E-01  0.34316532063E-01  0.51100000000E-03 0.  1.
</event>
<event>
 8    1  0.1099478E+005  0.1043930E+01  0.7957747E-01            NaN
         13   -1    0    0    0    0  0.00000000000E+00  0.00000000000E+00  0.74505805969E-08  0.10566000000E+00  0.10566000000E+00 0.  1.
     999900   -1    0    0    0    0 -0.00000000000E+00 -0.00000000000E+00 -0.74505805969E-08  0.93827000000E+00  0.93827000000E+00 0. -1.
     999902    2    1    2    0    0  0.18287311499E-01  0.15140182183E-01 -0.14218103519E-02  0.10201461310E+01  0.10198688427E+01 0.  0.
     999903    2    3    3    0    0  0.12703472073E+00  0.22583458604E-01  0.25418253577E-01  0.13301491728E+00  0.19976179103E-01 0.  0.
         14    1    1    2    0    0 -0.18287311499E-01 -0.15140182183E-01  0.14218103519E-02  0.23783868968E-01  0.00000000000E+00 0.  1.
     999901    1    3    3    0    0 -0.10874740923E+00 -0.74432764206E-02 -0.26840063928E-01  0.88713121375E+00  0.88000000000E+00 0. -1.
        -11    1    4    4    0    0  0.66157127065E-01  0.17056953709E-01  0.47582027746E-02  0.68488004395E-01  0.51100000000E-03 0. -1.
         11    1    4    4    0    0  0.60877593664E-01  0.55265048946E-02  0.20660050802E-01  0.64526912887E-01  0.51100000000E-03 0.  1.
</event>
<event>
 8    1  0.1099478E+005  0.1043930E+01  0.7957747E-01            NaN
         13   -1    0    0    0    0  0.00000000000E+00  0.00000000000E+00  0.74505805969E-08  0.10566000000E+00  0.10566000000E+00 0. -1.
     999900   -1    0    0    0    0 -0.00000000000E+00 -0.00000000000E+00 -0.74505805969E-08  0.93827000000E+00  0.93827000000E+00 0. -1.
     999902    2    1    2    0    0  0.66567233622E-02  0.91696312872E-02 -0.20635757482E-01  0.10203879400E+01  0.10201163264E+01 0.  0.
     999903    2    3    3    0    0  0.12148344304E-01 -0.12162610905E+00 -0.40889806949E-01  0.13047338782E+00  0.20269088412E-01 0.  0.
         14    1    1    2    0    0 -0.66567233622E-02 -0.91696312872E-02  0.20635757482E-01  0.23542060035E-01  0.00000000000E+00 0. -1.
     999901    1    3    3    0    0 -0.54916209421E-02  0.13079574034E+00  0.20254049467E-01  0.88991455214E+00  0.88000000000E+00 0. -1.
        -11    1    4    4    0    0  0.25374989029E-02 -0.95785640031E-01 -0.36572509254E-01  0.10256284557E+00  0.51100000000E-03 0.  1.
         11    1    4    4    0    0  0.96108454015E-02 -0.25840469023E-01 -0.43172976951E-02  0.27910542257E-01  0.51100000000E-03 0. -1.
</event>
<event>
 8    1  0.1099478E+005  0.1043930E+01  0.7957747E-01            NaN
         13   -1    0    0    0    0  0.00000000000E+00  0.00000000000E+00  0.74505805969E-08  0.10566000000E+00  0.10566000000E+00 0. -1.
     999900   -1    0    0    0    0 -0.00000000000E+00 -0.00000000000E+00 -0.74505805969E-08  0.93827000000E+00  0.93827000000E+00 0.  1.
     999902    2    1    2    0    0 -0.58000269822E-02  0.95732707466E-02  0.20983145592E-01  0.10201480694E+01  0.10198708267E+01 0.  0.
     999903    2    3    3    0    0 -0.37906716177E-01  0.11817797087E+00  0.42729375549E-01  0.13262414355E+00  0.18984519656E-01 0.  0.
         14    1    1    2    0    0  0.58000269822E-02 -0.95732707466E-02 -0.20983145592E-01  0.23781930635E-01  0.00000000000E+00 0.  1.
     999901    1    3    3    0    0  0.32106689194E-01 -0.10860470012E+00 -0.21746229957E-01  0.88752392582E+00  0.88000000000E+00 0. -1.
        -11    1    4    4    0    0 -0.15489899171E-01  0.33109675921E-01  0.20385881161E-01  0.41857291929E-01  0.51100000000E-03 0. -1.
         11    1    4    4    0    0 -0.22416817006E-01  0.85068294950E-01  0.22343494388E-01  0.90766851619E-01  0.51100000000E-03 0.  1.
</event>
<event>
 8    1  0.1099478E+005  0.1043930E+01  0.7957747E-01            NaN
         13   -1    0    0    0    0  0.00000000000E+00  0.00000000000E+00  0.74505805969E-08  0.10566000000E+00  0.10566000000E+00 0.  1.
     999900   -1    0    0    0    0 -0.00000000000E+00 -0.00000000000E+00 -0.74505805969E-08  0.93827000000E+00  0.93827000000E+00 0. -1.
     999902    2    1    2    0    0  0.10070224358E-01 -0.21530517165E-01  0.55217413399E-02  0.10195279055E+01  0.10192358353E+01 0.  0.
     999903    2    3    3    0    0 -0.11849595877E+00 -0.23103677189E-01  0.41557497840E-01  0.12945469840E+00  0.21364015676E-01 0.  0.
         14    1    1    2    0    0 -0.10070224358E-01  0.21530517165E-01 -0.55217413399E-02  0.24402094489E-01  0.00000000000E+00 0. -1.
     999901    1    3    3    0    0  0.12856618313E+00  0.15731600232E-02 -0.36035756500E-01  0.89007320711E+00  0.88000000000E+00 0.  1.
        -11    1    4    4    0    0 -0.82857793908E-01 -0.22461838334E-01  0.21298223829E-01  0.88452380702E-01  0.51100000000E-03 0.  1.
         11    1    4    4    0    0 -0.35638164862E-01 -0.64183885449E-03  0.20259274011E-01  0.41002317694E-01  0.51100000000E-03 0. -1.
</event>
<event>
 8    1  0.1099478E+005  0.1043930E+01  0.7957747E-01            NaN
         13   -1    0    0    0    0  0.00000000000E+00  0.00000000000E+00  0.74505805969E-08  0.10566000000E+00  0.10566000000E+00 0.  1.
     999900   -1    0    0    0    0 -0.00000000000E+00 -0.00000000000E+00 -0.74505805969E-08  0.93827000000E+00  0.93827000000E+00 0.  1.
     999902    2    1    2    0    0  0.14994677807E-01 -0.20620418012E-01 -0.16147417835E-01  0.10137508498E+01  0.10133015368E+01 0.  0.
     999903    2    3    3    0    0  0.48832425901E-01  0.11079824248E+00 -0.54363738010E-02  0.12328435188E+00  0.22552625221E-01 0.  0.
         14    1    1    2    0    0 -0.14994677807E-01  0.20620418012E-01  0.16147417835E-01  0.30179150158E-01  0.00000000000E+00 0.  1.
     999901    1    3    3    0    0 -0.33837748094E-01 -0.13141866049E+00 -0.10711044034E-01  0.89046649796E+00  0.88000000000E+00 0. -1.
        -11    1    4    4    0    0  0.91074521019E-02  0.34451882545E-01 -0.10254859110E-01  0.37085052933E-01  0.51100000000E-03 0.  1.
         11    1    4    4    0    0  0.39724973800E-01  0.76346359932E-01  0.48184853089E-02  0.86199298952E-01  0.51100000000E-03 0. -1.
</event>
<event>
 8    1  0.1099478E+005  0.1043930E+01  0.7957747E-01            NaN
         13   -1    0    0    0    0  0.00000000000E+00  0.00000000000E+00  0.74505805969E-08  0.10566000000E+00  0.10566000000E+00 0.  1.
     999900   -1    0    0    0    0 -0.00000000000E+00 -0.00000000000E+00 -0.74505805969E-08  0.93827000000E+00  0.93827000000E+00 0.  1.
     999902    2    1    2    0    0 -0.44270260707E-02  0.11507593776E-01 -0.20310128815E-01  0.10201702734E+01  0.10198935543E+01 0.  0.
     999903    2    3    3    0    0  0.84137267669E-01  0.46852185554E-01  0.83405184026E-01  0.12896337242E+00  0.20022976814E-01 0.  0.
         14    1    1    2    0    0  0.44270260707E-02 -0.11507593776E-01  0.20310128815E-01  0.23759726573E-01  0.00000000000E+00 0.  1.
     999901    1    3    3    0    0 -0.88564293740E-01 -0.35344591778E-01 -0.10371531284E+00  0.89120690101E+00  0.88000000000E+00 0.  1.
        -11    1    4    4    0    0  0.61246437734E-01  0.35559740500E-01  0.49002297645E-01  0.86122631027E-01  0.51100000000E-03 0.  1.
         11    1    4    4    0    0  0.22890829935E-01  0.11292445053E-01  0.34402886380E-01  0.42840741388E-01  0.51100000000E-03 0. -1.
</event>
<event>
 8    1  0.1099478E+005  0.1043930E+01  0.7957747E-01            NaN
         13   -1    0    0    0    0  0.00000000000E+00  0.00000000000E+00  0.74505805969E-08  0.10566000000E+00  0.10566000000E+00 0. -1.
     999900   -1    0    0    0    0 -0.00000000000E+00 -0.00000000000E+00 -0.74505805969E-08  0.93827000000E+00  0.93827000000E+00 0.  1.
     999902    2    1    2    0    0  0.41069626772E-02 -0.21839358651E-01  0.64636381070E-02  0.10207868942E+01  0.10205245122E+01 0.  0.
     999903    2    3    3    0    0 -0.10996711777E-01 -0.10519203890E+00 -0.77797354423E-01  0.13271273899E+00  0.19337787268E-01 0.  0.
         14    1    1    2    0    0 -0.41069626772E-02  0.21839358651E-01 -0.64636381070E-02  0.23143105805E-01  0.00000000000E+00 0.  1.
     999901    1    3    3    0    0  0.15103674454E-01  0.83352680249E-01  0.84260992530E-01  0.88807415521E+00  0.88000000000E+00 0. -1.
        -11    1    4    4    0    0 -0.56425230669E-03 -0.71668359720E-01 -0.59309335778E-01  0.93029729641E-01  0.51100000000E-03 0.  1.
         11    1    4    4    0    0 -0.10432459471E-01 -0.33523679180E-01 -0.18488018645E-01  0.39683009347E-01  0.51100000000E-03 0. -1.
</event>
<event>
 8    1  0.1099478E+005  0.1043930E+01  0.7957747E-01            NaN
         13   -1    0    0    0    0  0.00000000000E+00  0.00000000000E+00  0.74505805969E-08  0.10566000000E+00  0.10566000000E+00 0. -1.
     999900   -1    0    0    0    0 -0.00000000000E+00 -0.00000000000E+00 -0.74505805969E-08  0.93827000000E+00  0.93827000000E+00 0. -1.
     999902    2    1    2    0    0  0.16939640948E-01  0.98290647993E-02  0.12116851583E-01  0.10209000186E+01  0.10206402245E+01 0.  0.
     999903    2    3    3    0    0 -0.97308363290E-01 -0.33667395388E-01  0.76944989072E-01  0.13008733576E+00  0.19994311794E-01 0.  0.
         14    1    1    2    0    0 -0.16939640948E-01 -0.98290647993E-02 -0.12116851583E-01  0.23029981384E-01  0.00000000000E+00 0.  1.
     999901    1    3    3    0    0  0.11424800424E+00  0.43496460187E-01 -0.64828137489E-01  0.89081268285E+00  0.88000000000E+00 0. -1.
        -11    1    4    4    0    0 -0.33333441887E-01 -0.32424057482E-02  0.31082543988E-01  0.45694826894E-01  0.51100000000E-03 0.  1.
         11    1    4    4    0    0 -0.63974921403E-01 -0.30424989640E-01  0.45862445084E-01  0.84392508869E-01  0.51100000000E-03 0. -1.
</event>
<event>
 8    1  0.1099478E+005  0.1043930E+01  0.7957747E-01            NaN
         13   -1    0    0    0    0  0.00000000000E+00  0.00000000000E+00  0.74505805969E-08  0.10566000000E+00  0.10566000000E+00 0.  1.
     999900   -1    0    0    0    0 -0.00000000000E+00 -0.00000000000E+00 -0.74505805969E-08  0.93827000000E+00  0.93827000000E+00 0. -1.
     999902    2    1    2    0    0 -0.57200651111E-02 -0.13416045653E-01  0.19801365052E-01  0.10193372473E+01  0.10190405391E+01 0.  0.
     999903    2    3    3    0    0  0.10915730937E+00 -0.67175589165E-01 -0.65475291742E-02  0.12985359717E+00  0.19778993631E-01 0.  0.
         14    1    1    2    0    0  0.57200651111E-02  0.13416045653E-01 -0.19801365052E-01  0.24592752667E-01  0.00000000000E+00 0. -1.
     999901    1    3    3    0    0 -0.11487737449E+00  0.53759543512E-01  0.26348894226E-01  0.88948365017E+00  0.88000000000E+00 0.  1.
        -11    1    4    4    0    0  0.10352805713E+00 -0.60732956619E-01 -0.10357032472E-01  0.12047439510E+00  0.51100000000E-03 0.  1.
         11    1    4    4    0    0  0.56292522448E-02 -0.64426325462E-02  0.38095032983E-02  0.93792020631E-02  0.51100000000E-03 0. -1.
</event>
<event>
 8    1  0.1099478E+005  0.1043930E+01  0.7957747E-01            NaN
         13   -1    0    0    0    0  0.00000000000E+00  0.00000000000E+00  0.74505805969E-08  0.10566000000E+00  0.10566000000E+00 0. -1.
     999900   -1    0    0    0    0 -0.00000000000E+00 -0.00000000000E+00 -0.74505805969E-08  0.93827000000E+00  0.93827000000E+00 0. -1.
     999902    2    1    2    0    0 -0.20886510188E-01 -0.10095921142E-01 -0.34757054655E-02  0.10204724967E+01  0.10202028534E+01 0.  0.
     999903    2    3    3    0    0 -0.13015654674E+00 -0.13145333418E-01 -0.18069571344E-01  0.13358906542E+00  0.20149504705E-01 0.  0.
         14    1    1    2    0    0  0.20886510188E-01  0.10095921142E-01  0.34757054655E-02  0.23457503278E-01  0.00000000000E+00 0.  1.
     999901    1    3    3    0    0  0.10927003655E+00  0.30494122757E-02  0.14593865878E-01  0.88688343131E+00  0.88000000000E+00 0. -1.
        -11    1    4    4    0    0 -0.23222258723E-01 -0.79553569805E-02 -0.89777125262E-02  0.26142330579E-01  0.51100000000E-03 0. -1.
         11    1    4    4    0    0 -0.10693428802E+00 -0.51899764374E-02 -0.90918588176E-02  0.10744673484E+00  0.51100000000E-03 0.  1.
</event>
<event>
 8    1  0.1099478E+005  0.1043930E+01  0.7957747E-01            NaN
         13   -1    0    0    0    0  0.00000000000E+00  0.00000000000E+00  0.74505805969E-08  0.10566000000E+00  0.10566000000E+00 0.  1.
     999900   -1    0    0    0    0 -0.00000000000E+00 -0.00000000000E+00 -0.74505805969E-08  0.93827000000E+00  0.93827000000E+00 0. -1.
     999902    2    1    2    0    0  0.69550909476E-02  0.22444083341E-01  0.39663056081E-02  0.10201005697E+01  0.10198222054E+01 0.  0.
     999903    2    3    3    0    0 -0.21204495406E-01 -0.53812774073E-01  0.11412697477E+00  0.12951455836E+00  0.20090026819E-01 0.  0.
         14    1    1    2    0    0 -0.69550909476E-02 -0.22444083341E-01 -0.39663056081E-02  0.23829430276E-01  0.00000000000E+00 0. -1.
     999901    1    3    3    0    0  0.28159586354E-01  0.76256857414E-01 -0.11016066916E+00  0.89058601136E+00  0.88000000000E+00 0. -1.
        -11    1    4    4    0    0 -0.73370707508E-03  0.50547209785E-03  0.11988470733E-01  0.12032388775E-01  0.51100000000E-03 0.  1.
         11    1    4    4    0    0 -0.20470788331E-01 -0.54318246171E-01  0.10213850404E+00  0.11748216958E+00  0.51100000000E-03 0. -1.
</event>
<event>
 8    1  0.1099478E+005  0.1043930E+01  0.7957747E-01            NaN
         13   -1    0    0    0    0  0.00000000000E+00  0.00000000000E+00  0.74505805969E-08  0.10566000000E+00  0.10566000000E+00 0. -1.
     999900   -1    0    0    0    0 -0.00000000000E+00 -0.00000000000E+00 -0.74505805969E-08  0.93827000000E+00  0.93827000000E+00 0.  1.
     999902    2    1    2    0    0 -0.22810782363E-01  0.73406794770E-02 -0.25828624229E-02  0.10198283705E+01  0.10195435335E+01 0.  0.
     999903    2    3    3    0    0 -0.44863539613E-01  0.11916696926E+00 -0.28799383459E-01  0.13209037469E+00  0.20123589378E-01 0.  0.
         14    1    1    2    0    0  0.22810782363E-01 -0.73406794770E-02  0.25828624229E-02  0.24101629519E-01  0.00000000000E+00 0. -1.
     999901    1    3    3    0    0  0.22052757250E-01 -0.11182628978E+00  0.26216521036E-01  0.88773799579E+00  0.88000000000E+00 0. -1.
        -11    1    4    4    0    0 -0.28548281523E-01  0.96534073507E-01 -0.26458641920E-01  0.10408723543E+00  0.51100000000E-03 0.  1.
         11    1    4    4    0    0 -0.16315258090E-01  0.22632895755E-01 -0.23407415388E-02  0.28003139265E-01  0.51100000000E-03 0. -1.
</event>
<event>
 8    1  0.1099478E+005  0.1043930E+01  0.7957747E-01            NaN
         13   -1    0    0    0    0  0.00000000000E+00  0.00000000000E+00  0.74505805969E-08  0.10566000000E+00  0.10566000000E+00 0.  1.
     999900   -1    0    0    0    0 -0.00000000000E+00 -0.00000000000E+00 -0.74505805969E-08  0.93827000000E+00  0.93827000000E+00 0.  1.
     999902    2    1    2    0    0 -0.17511131641E-02 -0.23498863700E-01  0.25569636238E-02  0.10202276572E+01  0.10199522888E+01 0.  0.
     999903    2    3    3    0    0 -0.69261120238E-01 -0.67177994207E-01  0.88642528362E-01  0.13237846280E+00  0.18883164352E-01 0.  0.
         14    1    1    2    0    0  0.17511131641E-02  0.23498863700E-01 -0.25569636238E-02  0.23702342827E-01  0.00000000000E+00 0.  1.
     999901    1    3    3    0    0  0.67510007074E-01  0.43679130507E-01 -0.86085564738E-01  0.88784919438E+00  0.88000000000E+00 0.  1.
        -11    1    4    4    0    0 -0.43767243666E-01 -0.45653711606E-01  0.69243358798E-01  0.93780258371E-01  0.51100000000E-03 0. -1.
         11    1    4    4    0    0 -0.25493876573E-01 -0.21524282601E-01  0.19399169563E-01  0.38598204427E-01  0.51100000000E-03 0.  1.
</event>
<event>
 8    1  0.1099478E+005  0.1043930E+01  0.7957747E-01            NaN
         13   -1    0    0    0    0  0.00000000000E+00  0.00000000000E+00  0.74505805969E-08  0.10566000000E+00  0.10566000000E+00 0. -1.
     999900   -1    0    0    0    0 -0.00000000000E+00 -0.00000000000E+00 -0.74505805969E-08  0.93827000000E+00  0.93827000000E+00 0. -1.
     999902    2    1    2    0    0  0.90370574895E-02 -0.39924273423E-03  0.22602622887E-01  0.10195844385E+01  0.10192937363E+01 0.  0.
     999903    2    3    3    0    0 -0.26308277879E-01  0.12263153033E+00 -0.23170142243E-01  0.12914577702E+00  0.20277044033E-01 0.  0.
         14    1    1    2    0    0 -0.90370574895E-02  0.39924273423E-03 -0.22602622887E-01  0.24345561489E-01  0.00000000000E+00 0. -1.
     999901    1    3    3    0    0  0.35345335368E-01 -0.12303077306E+00  0.45772765130E-01  0.89043866149E+00  0.88000000000E+00 0.  1.
        -11    1    4    4    0    0 -0.28462476367E-01  0.91387910022E-01 -0.16781680748E-01  0.97178951368E-01  0.51100000000E-03 0.  1.
         11    1    4    4    0    0  0.21541984886E-02  0.31243620305E-01 -0.63884614949E-02  0.31966825651E-01  0.51100000000E-03 0. -1.
</event>
<event>
 8    1  0.1099478E+005  0.1043930E+01  0.7957747E-01            NaN
         13   -1    0    0    0    0  0.00000000000E+00  0.00000000000E+00  0.74505805969E-08  0.10566000000E+00  0.10566000000E+00 0. -1.
     999900   -1    0    0    0    0 -0.00000000000E+00 -0.00000000000E+00 -0.74505805969E-08  0.93827000000E+00  0.93827000000E+00 0. -1.
     999902    2    1    2    0    0  0.19116958723E-01 -0.55418737415E-02 -0.11803684204E-01  0.10207891825E+01  0.10205268530E+01 0.  0.
     999903    2    3    3    0    0  0.74642411403E-01  0.77660111733E-01 -0.75283756492E-01  0.13285035244E+00  0.19467655699E-01 0.  0.
         14    1    1    2    0    0 -0.19116958723E-01  0.55418737415E-02  0.11803684204E-01  0.23140817535E-01  0.00000000000E+00 0. -1.
     999901    1    3    3    0    0 -0.55525452681E-01 -0.83201985474E-01  0.63480072288E-01  0.88793883002E+00  0.88000000000E+00 0.  1.
        -11    1    4    4    0    0  0.60109045876E-01  0.68978513382E-01 -0.56389839770E-01  0.10747654560E+00  0.51100000000E-03 0.  1.
         11    1    4    4    0    0  0.14533365527E-01  0.86815983509E-02 -0.18893916723E-01  0.25373806841E-01  0.51100000000E-03 0. -1.
</event>
<event>
 8    1  0.1099478E+005  0.1043930E+01  0.7957747E-01            NaN
         13   -1    0    0    0    0  0.00000000000E+00  0.00000000000E+00  0.74505805969E-08  0.10566000000E+00  0.10566000000E+00 0. -1.
     999900   -1    0    0    0    0 -0.00000000000E+00 -0.00000000000E+00 -0.74505805969E-08  0.93827000000E+00  0.93827000000E+00 0. -1.
     999902    2    1    2    0    0  0.85165654806E-02  0.13015512256E-01 -0.18944760656E-01  0.10194179743E+01  0.10191232344E+01 0.  0.
     999903    2    3    3    0    0 -0.58150911175E-01 -0.60418996904E-02 -0.11602394421E+00  0.13136836688E+00  0.19443743531E-01 0.  0.
         14    1    1    2    0    0 -0.85165654806E-02 -0.13015512256E-01  0.18944760656E-01  0.24512025685E-01  0.00000000000E+00 0. -1.
     999901    1    3    3    0    0  0.66667476656E-01  0.19057411947E-01  0.97079183557E-01  0.88804960744E+00  0.88000000000E+00 0.  1.
        -11    1    4    4    0    0 -0.63394318991E-02 -0.65910825781E-02 -0.25055661118E-01  0.26677294492E-01  0.51100000000E-03 0. -1.
         11    1    4    4    0    0 -0.51811479276E-01  0.54918288772E-03 -0.90968283094E-01  0.10469107238E+00  0.51100000000E-03 0.  1.
</event>
<event>
 8    1  0.1099478E+005  0.1043930E+01  0.7957747E-01            NaN
         13   -1    0    0    0    0  0.00000000000E+00  0.00000000000E+00  0.74505805969E-08  0.10566000000E+00  0.10566000000E+00 0.  1.
     999900   -1    0    0    0    0 -0.00000000000E+00 -0.00000000000E+00 -0.74505805969E-08  0.93827000000E+00  0.93827000000E+00 0.  1.
     999902    2    1    2    0    0  0.34623145448E-02  0.88937415111E-02 -0.26996525389E-01  0.10152961277E+01  0.10148922742E+01 0.  0.
     999903    2    3    3    0    0 -0.55403937545E-01  0.78399063879E-01 -0.85102959883E-01  0.12868878326E+00  0.10113339912E-01 0.  0.
         14    1    1    2    0    0 -0.34623145448E-02 -0.88937415111E-02  0.26996525389E-01  0.28633872305E-01  0.00000000000E+00 0.  1.
     999901    1    3    3    0    0  0.58866252090E-01 -0.69505322368E-01  0.58106434494E-01  0.88660734443E+00  0.88000000000E+00 0. -1.
        -11    1    4    4    0    0 -0.26508305539E-01  0.44976312748E-01 -0.42667822070E-01  0.67426724169E-01  0.51100000000E-03 0. -1.
         11    1    4    4    0    0 -0.28895632006E-01  0.33422751131E-01 -0.42435137813E-01  0.61262059094E-01  0.51100000000E-03 0.  1.
</event>
<event>
 8    1  0.1099478E+005  0.1043930E+01  0.7957747E-01            NaN
         13   -1    0    0    0    0  0.00000000000E+00  0.00000000000E+00  0.74505805969E-08  0.10566000000E+00  0.10566000000E+00 0. -1.
     999900   -1    0    0    0    0 -0.00000000000E+00 -0.00000000000E+00 -0.74505805969E-08  0.93827000000E+00  0.93827000000E+00 0.  1.
     999902    2    1    2    0    0 -0.14473974052E-01  0.95343275530E-02  0.15292084586E-01  0.10208162124E+01  0.10205545024E+01 0.  0.
     999903    2    3    3    0    0 -0.11978610478E+00  0.50928461339E-01  0.23678406232E-01  0.13353133729E+00  0.18097846417E-01 0.  0.
         14    1    1    2    0    0  0.14473974052E-01 -0.95343275530E-02 -0.15292084586E-01  0.23113787611E-01  0.00000000000E+00 0.  1.
     999901    1    3    3    0    0  0.10531213072E+00 -0.41394133786E-01 -0.83863216465E-02  0.88728487510E+00  0.88000000000E+00 0.  1.
        -11    1    4    4    0    0 -0.77231064775E-01  0.41011143402E-01  0.19811806924E-01  0.89662255515E-01  0.51100000000E-03 0.  1.
         11    1    4    4    0    0 -0.42555040001E-01  0.99173179365E-02  0.38665993078E-02  0.43869081775E-01  0.51100000000E-03 0. -1.
</event>
<event>
 8    1  0.1099478E+005  0.1043930E+01  0.7957747E-01            NaN
         13   -1    0    0    0    0  0.00000000000E+00  0.00000000000E+00  0.74505805969E-08  0.10566000000E+00  0.10566000000E+00 0. -1.
     999900   -1    0    0    0    0 -0.00000000000E+00 -0.00000000000E+00 -0.74505805969E-08  0.93827000000E+00  0.93827000000E+00 0. -1.
     999902    2    1    2    0    0 -0.16346196072E-01  0.10236752605E-01  0.13759767222E-01  0.10202377982E+01  0.10199626682E+01 0.  0.
     999903    2    3    3    0    0 -0.12559645827E+00 -0.63336136199E-02 -0.34739279322E-01  0.13200226960E+00  0.20079757493E-01 0.  0.
         14    1    1    2    0    0  0.16346196072E-01 -0.10236752605E-01 -0.13759767222E-01  0.23692201753E-01  0.00000000000E+00 0.  1.
     999901    1    3    3    0    0  0.10925026220E+00  0.16570366225E-01  0.48499046544E-01  0.88823552864E+00  0.88000000000E+00 0. -1.
        -11    1    4    4    0    0 -0.56600357209E-01  0.71250487533E-02 -0.15259908391E-01  0.59054997088E-01  0.51100000000E-03 0. -1.
         11    1    4    4    0    0 -0.68996101063E-01 -0.13458662373E-01 -0.19479370931E-01  0.72947272516E-01  0.51100000000E-03 0.  1.
</event>
<event>
 8    1  0.1099478E+005  0.1043930E+01  0.7957747E-01            NaN
         13   -1    0    0    0    0  0.00000000000E+00  0.00000000000E+00  0.74505805969E-08  0.10566000000E+00  0.10566000000E+00 0.  1.
     999900   -1    0    0    0    0 -0.00000000000E+00 -0.00000000000E+00 -0.74505805969E-08  0.93827000000E+00  0.93827000000E+00 0. -1.
     999902    2    1    2    0    0 -0.20879423740E-02 -0.33537076162E-02 -0.23332577296E-01  0.10202653424E+01  0.10199908592E+01 0.  0.
     999903    2    3    3    0    0  0.67704110022E-01  0.82313451224E-01 -0.75065172890E-01  0.13184761734E+00  0.19739889821E-01 0.  0.
         14    1    1    2    0    0  0.20879423740E-02  0.33537076162E-02  0.23332577296E-01  0.23664657644E-01  0.00000000000E+00 0.  1.
     999901    1    3    3    0    0 -0.69792052396E-01 -0.85667158840E-01  0.51732595594E-01  0.88841772502E+00  0.88000000000E+00 0.  1.
        -11    1    4    4    0    0  0.46136339704E-01  0.68588485068E-01 -0.60317219284E-01  0.10232971313E+00  0.51100000000E-03 0.  1.
         11    1    4    4    0    0  0.21567770318E-01  0.13724966156E-01 -0.14747953606E-01  0.29517904211E-01  0.51100000000E-03 0. -1.
</event>
<event>
 8    1  0.1099478E+005  0.1043930E+01  0.7957747E-01            NaN
         13   -1    0    0    0    0  0.00000000000E+00  0.00000000000E+00  0.74505805969E-08  0.10566000000E+00  0.10566000000E+00 0. -1.
     999900   -1    0    0    0    0 -0.00000000000E+00 -0.00000000000E+00 -0.74505805969E-08  0.93827000000E+00  0.93827000000E+00 0. -1.
     999902    2    1    2    0    0  0.67422246787E-02 -0.12340898074E-01 -0.19410019766E-01  0.10199611822E+01  0.10196795129E+01 0.  0.
     999903    2    3    3    0    0 -0.61008483305E-01  0.50121069557E-01 -0.10230236759E+00  0.13127518752E+00  0.23092072127E-01 0.  0.
         14    1    1    2    0    0 -0.67422246787E-02  0.12340898074E-01  0.19410019766E-01  0.23968817789E-01  0.00000000000E+00 0. -1.
     999901    1    3    3    0    0  0.67750707983E-01 -0.62461967631E-01  0.82892347825E-01  0.88868599469E+00  0.88000000000E+00 0. -1.
        -11    1    4    4    0    0 -0.33803960032E-01  0.30647867081E-01 -0.40573537260E-01  0.61061219422E-01  0.51100000000E-03 0.  1.
         11    1    4    4    0    0 -0.27204523273E-01  0.19473202476E-01 -0.61728830330E-01  0.70213968098E-01  0.51100000000E-03 0. -1.
</event>
<event>
 8    1  0.1099478E+005  0.1043930E+01  0.7957747E-01            NaN
         13   -1    0    0    0    0  0.00000000000E+00  0.00000000000E+00  0.74505805969E-08  0.10566000000E+00  0.10566000000E+00 0. -1.
     999900   -1    0    0    0    0 -0.00000000000E+00 -0.00000000000E+00 -0.74505805969E-08  0.93827000000E+00  0.93827000000E+00 0. -1.
     999902    2    1    2    0    0 -0.92832830406E-03  0.86944005741E-02  0.14145837761E-01  0.10272999332E+01  0.10271653196E+01 0.  0.
     999903    2    3    3    0    0 -0.20312975830E-01 -0.26452472723E-01 -0.12866601906E+00  0.13488394631E+00  0.22943064552E-01 0.  0.
         14    1    1    2    0    0  0.92832830406E-03 -0.86944005741E-02 -0.14145837761E-01  0.16630066769E-01  0.00000000000E+00 0.  1.
     999901    1    3    3    0    0  0.19384647526E-01  0.35146873297E-01  0.14281185682E+00  0.89241598692E+00  0.88000000000E+00 0.  1.
        -11    1    4    4    0    0 -0.43263405354E-02 -0.12450358898E-01 -0.88134351473E-01  0.89115956426E-01  0.51100000000E-03 0. -1.
         11    1    4    4    0    0 -0.15986635295E-01 -0.14002113825E-01 -0.40531667588E-01  0.45767989885E-01  0.51100000000E-03 0.  1.
</event>
<event>
 8    1  0.1099478E+005  0.1043930E+01  0.7957747E-01            NaN
         13   -1    0    0    0    0  0.00000000000E+00  0.00000000000E+00  0.74505805969E-08  0.10566000000E+00  0.10566000000E+00 0.  1.
     999900   -1    0    0    0    0 -0.00000000000E+00 -0.00000000000E+00 -0.74505805969E-08  0.93827000000E+00  0.93827000000E+00 0. -1.
     999902    2    1    2    0    0 -0.83020443304E-02  0.83502071672E-02 -0.21979193533E-01  0.10189953886E+01  0.10186902704E+01 0.  0.
     999903    2    3    3    0    0 -0.11471071436E+00 -0.53668327139E-01 -0.22278542503E-01  0.13041832759E+00  0.21766244262E-01 0.  0.
         14    1    1    2    0    0  0.83020443304E-02 -0.83502071672E-02  0.21979193533E-01  0.24934611450E-01  0.00000000000E+00 0.  1.
     999901    1    3    3    0    0  0.10640867003E+00  0.62018534307E-01  0.29934897060E-03  0.88857706096E+00  0.88000000000E+00 0.  1.
        -11    1    4    4    0    0 -0.76940962754E-01 -0.37739223287E-01 -0.47428311787E-02  0.85830742117E-01  0.51100000000E-03 0. -1.
         11    1    4    4    0    0 -0.37769751602E-01 -0.15929103852E-01 -0.17535711325E-01  0.44587585473E-01  0.51100000000E-03 0.  1.
</event>
<event>
 8    1  0.1099478E+005  0.1043930E+01  0.7957747E-01            NaN
         13   -1    0    0    0    0  0.00000000000E+00  0.00000000000E+00  0.74505805969E-08  0.10566000000E+00  0.10566000000E+00 0.  1.
     999900   -1    0    0    0    0 -0.00000000000E+00 -0.00000000000E+00 -0.74505805969E-08  0.93827000000E+00  0.93827000000E+00 0. -1.
     999902    2    1    2    0    0 -0.21208244792E-01  0.72107378916E-02  0.86326988054E-02  0.10199235868E+01  0.10196410226E+01 0.  0.
     999903    2    3    3    0    0 -0.32571104466E-01  0.10657020618E+00  0.68405347721E-01  0.13224448479E+00  0.19779445606E-01 0.  0.
         14    1    1    2    0    0  0.21208244792E-01 -0.72107378916E-02 -0.86326988054E-02  0.24006413242E-01  0.00000000000E+00 0. -1.
     999901    1    3    3    0    0  0.11362859674E-01 -0.99359468287E-01 -0.59772648916E-01  0.88767910197E+00  0.88000000000E+00 0. -1.
        -11    1    4    4    0    0 -0.66036561083E-02  0.17998889825E-01  0.21147482508E-01  0.28549000795E-01  0.51100000000E-03 0. -1.
         11    1    4    4    0    0 -0.25967448358E-01  0.88571316354E-01  0.47257865213E-01  0.10369548399E+00  0.51100000000E-03 0.  1.
</event>
<event>
 8    1  0.1099478E+005  0.1043930E+01  0.7957747E-01            NaN
         13   -1    0    0    0    0  0.00000000000E+00  0.00000000000E+00  0.74505805969E-08  0.10566000000E+00  0.10566000000E+00 0.  1.
     999900   -1    0    0    0    0 -0.00000000000E+00 -0.00000000000E+00 -0.74505805969E-08  0.93827000000E+00  0.93827000000E+00 0. -1.
     999902    2    1    2    0    0  0.12264892786E-02  0.63443563149E-02  0.22755377796E-01  0.10202749297E+01  0.10200006715E+01 0.  0.
     999903    2    3    3    0    0 -0.62256460340E-01  0.11373338054E+00  0.72280897949E-02  0.13134097033E+00  0.19673751637E-01 0.  0.
         14    1    1    2    0    0 -0.12264892786E-02 -0.63443563149E-02 -0.22755377796E-01  0.23655070315E-01  0.00000000000E+00 0. -1.
     999901    1    3    3    0    0  0.63482949619E-01 -0.10738902422E+00  0.15527288001E-01  0.88893395935E+00  0.88000000000E+00 0. -1.
        -11    1    4    4    0    0 -0.48563080117E-01  0.86259384107E-01 -0.28353865303E-02  0.99032088914E-01  0.51100000000E-03 0.  1.
         11    1    4    4    0    0 -0.13693380223E-01  0.27473996430E-01  0.10063476325E-01  0.32308881419E-01  0.51100000000E-03 0. -1.
</event>
<event>
 8    1  0.1099478E+005  0.1043930E+01  0.7957747E-01            NaN
         13   -1    0    0    0    0  0.00000000000E+00  0.00000000000E+00  0.74505805969E-08  0.10566000000E+00  0.10566000000E+00 0.  1.
     999900   -1    0    0    0    0 -0.00000000000E+00 -0.00000000000E+00 -0.74505805969E-08  0.93827000000E+00  0.93827000000E+00 0. -1.
     999902    2    1    2    0    0 -0.91292610556E-02  0.24570088499E-01  0.11719372234E-01  0.10152180453E+01  0.10148119546E+01 0.  0.
     999903    2    3    3    0    0  0.62588901324E-01 -0.10417464390E+00  0.62916896373E-02  0.12294669607E+00  0.17509360809E-01 0.  0.
         14    1    1    2    0    0  0.91292610556E-02 -0.24570088499E-01 -0.11719372234E-01  0.28711954685E-01  0.00000000000E+00 0. -1.
     999901    1    3    3    0    0 -0.71718162379E-01  0.12874473240E+00  0.54276825972E-02  0.89227134924E+00  0.88000000000E+00 0. -1.
        -11    1    4    4    0    0  0.42459332822E-01 -0.61277079726E-01 -0.31867954586E-02  0.74619650426E-01  0.51100000000E-03 0. -1.
         11    1    4    4    0    0  0.20129568502E-01 -0.42897564177E-01  0.94784850959E-02  0.48327045648E-01  0.51100000000E-03 0.  1.
</event>
<event>
 8    1  0.1099478E+005  0.1043930E+01  0.7957747E-01            NaN
         13   -1    0    0    0    0  0.00000000000E+00  0.00000000000E+00  0.74505805969E-08  0.10566000000E+00  0.10566000000E+00 0. -1.
     999900   -1    0    0    0    0 -0.00000000000E+00 -0.00000000000E+00 -0.74505805969E-08  0.93827000000E+00  0.93827000000E+00 0. -1.
     999902    2    1    2    0    0 -0.20639535231E-01 -0.56997232543E-02  0.10571173360E-01  0.10200505744E+01  0.10197710270E+01 0.  0.
     999903    2    3    3    0    0 -0.34245611976E-01  0.11911635601E+00 -0.33382344382E-01  0.13005277067E+00  0.20925439837E-01 0.  0.
         14    1    1    2    0    0  0.20639535231E-01  0.56997232543E-02 -0.10571173360E-01  0.23879425578E-01  0.00000000000E+00 0.  1.
     999901    1    3    3    0    0  0.13606076744E-01 -0.12481607927E+00  0.43953517742E-01  0.88999780376E+00  0.88000000000E+00 0. -1.
        -11    1    4    4    0    0 -0.25883512644E-01  0.60591334776E-01 -0.24347687598E-01  0.70244836743E-01  0.51100000000E-03 0. -1.
         11    1    4    4    0    0 -0.83620993318E-02  0.58525021236E-01 -0.90346567834E-02  0.59807933923E-01  0.51100000000E-03 0.  1.
</event>
<event>
 8    1  0.1099478E+005  0.1043930E+01  0.7957747E-01            NaN
         13   -1    0    0    0    0  0.00000000000E+00  0.00000000000E+00  0.74505805969E-08  0.10566000000E+00  0.10566000000E+00 0. -1.
     999900   -1    0    0    0    0 -0.00000000000E+00 -0.00000000000E+00 -0.74505805969E-08  0.93827000000E+00  0.93827000000E+00 0. -1.
     999902    2    1    2    0    0 -0.13987838469E-01  0.87616916568E-02 -0.17037775148E-01  0.10202084350E+01  0.10199326145E+01 0.  0.
     999903    2    3    3    0    0 -0.74742861730E-01  0.10718881387E+00  0.87938371994E-02  0.13226342347E+00  0.18448425863E-01 0.  0.
         14    1    1    2    0    0  0.13987838469E-01 -0.87616916568E-02  0.17037775148E-01  0.23721565036E-01  0.00000000000E+00 0. -1.
     999901    1    3    3    0    0  0.60755023261E-01 -0.98427122215E-01 -0.25831612348E-01  0.88794501149E+00  0.88000000000E+00 0. -1.
        -11    1    4    4    0    0 -0.10045096256E-01  0.27709026482E-01  0.13547720227E-02  0.29509161893E-01  0.51100000000E-03 0. -1.
         11    1    4    4    0    0 -0.64697765474E-01  0.79479787390E-01  0.74390651767E-02  0.10275426158E+00  0.51100000000E-03 0.  1.
</event>
<event>
 8    1  0.1099478E+005  0.1043930E+01  0.7957747E-01            NaN
         13   -1    0    0    0    0  0.00000000000E+00  0.00000000000E+00  0.74505805969E-08  0.10566000000E+00  0.10566000000E+00 0.  1.
     999900   -1    0    0    0    0 -0.00000000000E+00 -0.00000000000E+00 -0.74505805969E-08  0.93827000000E+00  0.93827000000E+00 0.  1.
     999902    2    1    2    0    0 -0.27190889780E-02 -0.29131110203E-01  0.50272539235E-02  0.10142434996E+01  0.10138089505E+01 0.  0.
     999903    2    3    3    0    0 -0.47966817190E-01  0.10161441629E+00 -0.43978210005E-01  0.12208696335E+00  0.18569828053E-01 0.  0.
         14    1    1    2    0    0  0.27190889780E-02  0.29131110203E-01 -0.50272539235E-02  0.29686500443E-01  0.00000000000E+00 0. -1.
     999901    1    3    3    0    0  0.45247728212E-01 -0.13074552650E+00  0.49005463929E-01  0.89215653621E+00  0.88000000000E+00 0.  1.
        -11    1    4    4    0    0 -0.21553703426E-01  0.59303289919E-01 -0.16876535846E-01  0.65318610746E-01  0.51100000000E-03 0.  1.
         11    1    4    4    0    0 -0.26413113763E-01  0.42311126375E-01 -0.27101674159E-01  0.56768352601E-01  0.51100000000E-03 0. -1.
</event>
<event>
 8    1  0.1099478E+005  0.1043930E+01  0.7957747E-01            NaN
         13   -1    0    0    0    0  0.00000000000E+00  0.00000000000E+00  0.74505805969E-08  0.10566000000E+00  0.10566000000E+00 0. -1.
     999900   -1    0    0    0    0 -0.00000000000E+00 -0.00000000000E+00 -0.74505805969E-08  0.93827000000E+00  0.93827000000E+00 0.  1.
     999902    2    1    2    0    0  0.65664147362E-03 -0.16352559990E-01  0.22685697947E-01  0.10159571866E+01  0.10155720195E+01 0.  0.
     999903    2    3    3    0    0 -0.76518014282E-01 -0.27646949067E-01  0.98522500903E-01  0.12925841512E+00  0.19537000635E-01 0.  0.
         14    1    1    2    0    0 -0.65664147362E-03  0.16352559990E-01 -0.22685697947E-01  0.27972813366E-01  0.00000000000E+00 0.  1.
     999901    1    3    3    0    0  0.77174655755E-01  0.11294389077E-01 -0.75836802955E-01  0.88669877151E+00  0.88000000000E+00 0.  1.
        -11    1    4    4    0    0 -0.23666555831E-01 -0.81834993556E-02  0.45317581498E-01  0.51778565454E-01  0.51100000000E-03 0.  1.
         11    1    4    4    0    0 -0.52851458450E-01 -0.19463449711E-01  0.53204919404E-01  0.77479849670E-01  0.51100000000E-03 0. -1.
</event>
<event>
 8    1  0.1099478E+005  0.1043930E+01  0.7957747E-01            NaN
         13   -1    0    0    0    0  0.00000000000E+00  0.00000000000E+00  0.74505805969E-08  0.10566000000E+00  0.10566000000E+00 0.  1.
     999900   -1    0    0    0    0 -0.00000000000E+00 -0.00000000000E+00 -0.74505805969E-08  0.93827000000E+00  0.93827000000E+00 0.  1.
     999902    2    1    2    0    0  0.52195574626E-02 -0.22234949255E-01 -0.68427735483E-02  0.10200875945E+01  0.10198089234E+01 0.  0.
     999903    2    3    3    0    0 -0.88060578538E-01 -0.73421873134E-01 -0.63925337121E-01  0.13184229958E+00  0.12268100316E-01 0.  0.
         14    1    1    2    0    0 -0.52195574625E-02  0.22234949255E-01  0.68427735483E-02  0.23842405464E-01  0.00000000000E+00 0. -1.
     999901    1    3    3    0    0  0.93280136001E-01  0.51186923879E-01  0.57082563572E-01  0.88824529496E+00  0.88000000000E+00 0. -1.
        -11    1    4    4    0    0 -0.64103030684E-02 -0.56270603783E-02 -0.13817319515E-02  0.86559862590E-02  0.51100000000E-03 0. -1.
         11    1    4    4    0    0 -0.81650275470E-01 -0.67794812756E-01 -0.62543605169E-01  0.12318631332E+00  0.51100000000E-03 0.  1.
</event>
<event>
 8    1  0.1099478E+005  0.1043930E+01  0.7957747E-01            NaN
         13   -1    0    0    0    0  0.00000000000E+00  0.00000000000E+00  0.74505805969E-08  0.10566000000E+00  0.10566000000E+00 0. -1.
     999900   -1    0    0    0    0 -0.00000000000E+00 -0.00000000000E+00 -0.74505805969E-08  0.93827000000E+00  0.93827000000E+00 0. -1.
     999902    2    1    2    0    0 -0.71860418315E-02 -0.23098122663E-01 -0.31533916553E-02  0.10195351984E+01  0.10192433048E+01 0.  0.
     999903    2    3    3    0    0 -0.11187297409E+00 -0.67725049064E-01 -0.99975634065E-03  0.13220462046E+00  0.19360205487E-01 0.  0.
         14    1    1    2    0    0  0.71860418315E-02  0.23098122663E-01  0.31533916553E-02  0.24394801632E-01  0.00000000000E+00 0.  1.
     999901    1    3    3    0    0  0.10468693226E+00  0.44626926402E-01 -0.21536353146E-02  0.88733057791E+00  0.88000000000E+00 0.  1.
        -11    1    4    4    0    0 -0.35716343574E-01 -0.25305011865E-01  0.82296770387E-02  0.44541997361E-01  0.51100000000E-03 0.  1.
         11    1    4    4    0    0 -0.76156630513E-01 -0.42420037199E-01 -0.92294333793E-02  0.87662623099E-01  0.51100000000E-03 0. -1.
</event>
<event>
 8    1  0.1099478E+005  0.1043930E+01  0.7957747E-01            NaN
         13   -1    0    0    0    0  0.00000000000E+00  0.00000000000E+00  0.74505805969E-08  0.10566000000E+00  0.10566000000E+00 0.  1.
     999900   -1    0    0    0    0 -0.00000000000E+00 -0.00000000000E+00 -0.74505805969E-08  0.93827000000E+00  0.93827000000E+00 0.  1.
     999902    2    1    2    0    0 -0.19595027883E-02  0.23039653427E-01 -0.63625475553E-02  0.10199477713E+01  0.10196657830E+01 0.  0.
     999903    2    3    3    0    0  0.62545810373E-01  0.10110822376E-01 -0.11300249551E+00  0.13107198213E+00  0.19902094945E-01 0.  0.
         14    1    1    2    0    0  0.19595027883E-02 -0.23039653427E-01  0.63625475553E-02  0.23982228683E-01  0.00000000000E+00 0.  1.
     999901    1    3    3    0    0 -0.64505313161E-01  0.12928831051E-01  0.10663994796E+00  0.88887578918E+00  0.88000000000E+00 0. -1.
        -11    1    4    4    0    0  0.43716040494E-01 -0.21136502826E-02 -0.69964221375E-01  0.82527650564E-01  0.51100000000E-03 0.  1.
         11    1    4    4    0    0  0.18829769879E-01  0.12224472659E-01 -0.43038274140E-01  0.48544331568E-01  0.51100000000E-03 0. -1.
</event>
<event>
 8    1  0.1099478E+005  0.1043930E+01  0.7957747E-01            NaN
         13   -1    0    0    0    0  0.00000000000E+00  0.00000000000E+00  0.74505805969E-08  0.10566000000E+00  0.10566000000E+00 0. -1.
     999900   -1    0    0    0    0 -0.00000000000E+00 -0.00000000000E+00 -0.74505805969E-08  0.93827000000E+00  0.93827000000E+00 0.  1.
     999902    2    1    2    0    0 -0.93441116743E-02 -0.14075580125E-01 -0.66606290435E-02  0.10257696487E+01  0.10256088796E+01 0.  0.
     999903    2    3    3    0    0 -0.10341029250E+00 -0.99832548685E-02 -0.87138629019E-01  0.13709541034E+00  0.20215263948E-01 0.  0.
         14    1    1    2    0    0  0.93441116743E-02  0.14075580125E-01  0.66606290435E-02  0.18160351266E-01  0.00000000000E+00 0.  1.
     999901    1    3    3    0    0  0.94066180828E-01 -0.40923252567E-02  0.80477999975E-01  0.88867423839E+00  0.88000000000E+00 0. -1.
        -11    1    4    4    0    0 -0.24734554786E-01  0.58228949264E-02 -0.17670575655E-01  0.30955042735E-01  0.51100000000E-03 0.  1.
         11    1    4    4    0    0 -0.78675737716E-01 -0.15806149795E-01 -0.69468053364E-01  0.10614036761E+00  0.51100000000E-03 0. -1.
</event>
<event>
 8    1  0.1099478E+005  0.1043930E+01  0.7957747E-01            NaN
         13   -1    0    0    0    0  0.00000000000E+00  0.00000000000E+00  0.74505805969E-08  0.10566000000E+00  0.10566000000E+00 0. -1.
     999900   -1    0    0    0    0 -0.00000000000E+00 -0.00000000000E+00 -0.74505805969E-08  0.93827000000E+00  0.93827000000E+00 0.  1.
     999902    2    1    2    0    0 -0.17094908208E-01 -0.10910650117E-01  0.89878361225E-02  0.10217475887E+01  0.10215067673E+01 0.  0.
     999903    2    3    3    0    0 -0.76279710070E-01  0.40082601520E-01  0.10000082766E+00  0.13361104678E+00  0.20652776459E-01 0.  0.
         14    1    1    2    0    0  0.17094908208E-01  0.10910650117E-01 -0.89878361225E-02  0.22182411294E-01  0.00000000000E+00 0.  1.
     999901    1    3    3    0    0  0.59184801862E-01 -0.50993251637E-01 -0.91012991534E-01  0.88813654193E+00  0.88000000000E+00 0.  1.
        -11    1    4    4    0    0 -0.18513307349E-01  0.13917827637E-02  0.15562244879E-01  0.24230645780E-01  0.51100000000E-03 0.  1.
         11    1    4    4    0    0 -0.57766402722E-01  0.38690818757E-01  0.84438582778E-01  0.10938040100E+00  0.51100000000E-03 0. -1.
</event>
<event>
 8    1  0.1099478E+005  0.1043930E+01  0.7957747E-01            NaN
         13   -1    0    0    0    0  0.00000000000E+00  0.00000000000E+00  0.74505805969E-08  0.10566000000E+00  0.10566000000E+00 0.  1.
     999900   -1    0    0    0    0 -0.00000000000E+00 -0.00000000000E+00 -0.74505805969E-08  0.93827000000E+00  0.93827000000E+00 0.  1.
     999902    2    1    2    0    0  0.25067729557E-02 -0.22865367446E-01 -0.58275253727E-02  0.10202009252E+01  0.10199249280E+01 0.  0.
     999903    2    3    3    0    0 -0.42115468873E-01 -0.12369488613E+00  0.14899451426E-01  0.13307785376E+00  0.20336763152E-01 0.  0.
         14    1    1    2    0    0 -0.25067729557E-02  0.22865367446E-01  0.58275253727E-02  0.23729074804E-01  0.00000000000E+00 0. -1.
     999901    1    3    3    0    0  0.44622241829E-01  0.10082951869E+00 -0.20726976799E-01  0.88712307143E+00  0.88000000000E+00 0.  1.
        -11    1    4    4    0    0 -0.18374932772E-01 -0.38446267592E-01 -0.32619735951E-02  0.42739387442E-01  0.51100000000E-03 0.  1.
         11    1    4    4    0    0 -0.23740536101E-01 -0.85248618539E-01  0.18161425021E-01  0.90338466320E-01  0.51100000000E-03 0. -1.
</event>
<event>
 8    1  0.1099478E+005  0.1043930E+01  0.7957747E-01            NaN
         13   -1    0    0    0    0  0.00000000000E+00  0.00000000000E+00  0.74505805969E-08  0.10566000000E+00  0.10566000000E+00 0. -1.
     999900   -1    0    0    0    0 -0.00000000000E+00 -0.00000000000E+00 -0.74505805969E-08  0.93827000000E+00  0.93827000000E+00 0.  1.
     999902    2    1    2    0    0 -0.15206855688E-01 -0.99403310202E-02  0.15156214099E-01  0.10202705523E+01  0.10199961914E+01 0.  0.
     999903    2    3    3    0    0 -0.86020241954E-01  0.80277875091E-01 -0.52272458673E-01  0.13027027908E+00  0.19847327772E-01 0.  0.
         14    1    1    2    0    0  0.15206855688E-01  0.99403310202E-02 -0.15156214099E-01  0.23659447722E-01  0.00000000000E+00 0.  1.
     999901    1    3    3    0    0  0.70813386266E-01 -0.90218206111E-01  0.67428672772E-01  0.89000027320E+00  0.88000000000E+00 0. -1.
        -11    1    4    4    0    0 -0.40634221953E-01  0.47754767238E-01 -0.20209270303E-01  0.65881207600E-01  0.51100000000E-03 0. -1.
         11    1    4    4    0    0 -0.45386020002E-01  0.32523107853E-01 -0.32063188371E-01  0.64389071475E-01  0.51100000000E-03 0.  1.
</event>
<event>
 8    1  0.1099478E+005  0.1043930E+01  0.7957747E-01            NaN
         13   -1    0    0    0    0  0.00000000000E+00  0.00000000000E+00  0.74505805969E-08  0.10566000000E+00  0.10566000000E+00 0. -1.
     999900   -1    0    0    0    0 -0.00000000000E+00 -0.00000000000E+00 -0.74505805969E-08  0.93827000000E+00  0.93827000000E+00 0. -1.
     999902    2    1    2    0    0 -0.89385526147E-02 -0.15732624311E-01 -0.15309570686E-01  0.10202277608E+01  0.10199523948E+01 0.  0.
     999903    2    3    3    0    0  0.17798870952E-01  0.10296640264E+00 -0.74405001193E-01  0.12989264479E+00  0.20423395628E-01 0.  0.
         14    1    1    2    0    0  0.89385526147E-02  0.15732624311E-01  0.15309570686E-01  0.23702239243E-01  0.00000000000E+00 0. -1.
     999901    1    3    3    0    0 -0.26737423567E-01 -0.11869902695E+00  0.59095430507E-01  0.89033511597E+00  0.88000000000E+00 0. -1.
        -11    1    4    4    0    0  0.16439273988E-01  0.39448030836E-01 -0.26084191626E-01  0.50070380864E-01  0.51100000000E-03 0.  1.
         11    1    4    4    0    0  0.13595969647E-02  0.63518371799E-01 -0.48320809568E-01  0.79822263926E-01  0.51100000000E-03 0. -1.
</event>
<event>
 8    1  0.1099478E+005  0.1043930E+01  0.7957747E-01            NaN
         13   -1    0    0    0    0  0.00000000000E+00  0.00000000000E+00  0.74505805969E-08  0.10566000000E+00  0.10566000000E+00 0.  1.
     999900   -1    0    0    0    0 -0.00000000000E+00 -0.00000000000E+00 -0.74505805969E-08  0.93827000000E+00  0.93827000000E+00 0.  1.
     999902    2    1    2    0    0  0.72367339080E-03 -0.15091376649E-01  0.15990145931E-01  0.10219309519E+01  0.10216941383E+01 0.  0.
     999903    2    3    3    0    0  0.50906306224E-01 -0.92315942108E-01  0.81622338347E-01  0.13469394021E+00  0.19145919467E-01 0.  0.
         14    1    1    2    0    0 -0.72367339080E-03  0.15091376649E-01 -0.15990145931E-01  0.21999048144E-01  0.00000000000E+00 0.  1.
     999901    1    3    3    0    0 -0.50182632833E-01  0.77224565458E-01 -0.65632192416E-01  0.88723701164E+00  0.88000000000E+00 0.  1.
        -11    1    4    4    0    0  0.29211074890E-01 -0.57627840323E-01  0.38327223325E-01  0.75123179148E-01  0.51100000000E-03 0.  1.
         11    1    4    4    0    0  0.21695231333E-01 -0.34688101785E-01  0.43295115022E-01  0.59570761065E-01  0.51100000000E-03 0. -1.
</event>
<event>
 8    1  0.1099478E+005  0.1043930E+01  0.7957747E-01            NaN
         13   -1    0    0    0    0  0.00000000000E+00  0.00000000000E+00  0.74505805969E-08  0.10566000000E+00  0.10566000000E+00 0. -1.
     999900   -1    0    0    0    0 -0.00000000000E+00 -0.00000000000E+00 -0.74505805969E-08  0.93827000000E+00  0.93827000000E+00 0.  1.
     999902    2    1    2    0    0  0.82722212114E-02  0.93264310821E-02  0.19408064516E-01  0.10208630338E+01  0.10206023951E+01 0.  0.
     999903    2    3    3    0    0  0.61527393705E-01  0.10107799352E+00  0.58452181032E-01  0.13363200098E+00  0.20939753280E-01 0.  0.
         14    1    1    2    0    0 -0.82722212114E-02 -0.93264310821E-02 -0.19408064516E-01  0.23066966180E-01  0.00000000000E+00 0.  1.
     999901    1    3    3    0    0 -0.53255172493E-01 -0.91751562437E-01 -0.39044116516E-01  0.88723103284E+00  0.88000000000E+00 0. -1.
        -11    1    4    4    0    0  0.52431842713E-01  0.70994659378E-01  0.37740344967E-01  0.95989241844E-01  0.51100000000E-03 0.  1.
         11    1    4    4    0    0  0.90955509915E-02  0.30083334141E-01  0.20711836065E-01  0.37642759132E-01  0.51100000000E-03 0. -1.
</event>
<event>
 8    1  0.1099478E+005  0.1043930E+01  0.7957747E-01            NaN
         13   -1    0    0    0    0  0.00000000000E+00  0.00000000000E+00  0.74505805969E-08  0.10566000000E+00  0.10566000000E+00 0.  1.
     999900   -1    0    0    0    0 -0.00000000000E+00 -0.00000000000E+00 -0.74505805969E-08  0.93827000000E+00  0.93827000000E+00 0.  1.
     999902    2    1    2    0    0  0.22337771935E-01 -0.35089868130E-02 -0.84024093320E-02  0.10198076136E+01  0.10195222799E+01 0.  0.
     999903    2    3    3    0    0 -0.35424351792E-02  0.12335564027E+00  0.31405731453E-01  0.12944302153E+00  0.23238180267E-01 0.  0.
         14    1    1    2    0    0 -0.22337771935E-01  0.35089868130E-02  0.84024093320E-02  0.24122386409E-01  0.00000000000E+00 0.  1.
     999901    1    3    3    0    0  0.25880207115E-01 -0.12686462708E+00 -0.39808140785E-01  0.89036459206E+00  0.88000000000E+00 0.  1.
        -11    1    4    4    0    0  0.58488903233E-02  0.48651424511E-01  0.34461581519E-02  0.49125428772E-01  0.51100000000E-03 0.  1.
         11    1    4    4    0    0 -0.93913255025E-02  0.74704215755E-01  0.27959573302E-01  0.80317592758E-01  0.51100000000E-03 0. -1.
</event>
<event>
 8    1  0.1099478E+005  0.1043930E+01  0.7957747E-01            NaN
         13   -1    0    0    0    0  0.00000000000E+00  0.00000000000E+00  0.74505805969E-08  0.10566000000E+00  0.10566000000E+00 0. -1.
     999900   -1    0    0    0    0 -0.00000000000E+00 -0.00000000000E+00 -0.74505805969E-08  0.93827000000E+00  0.93827000000E+00 0. -1.
     999902    2    1    2    0    0  0.27654910895E-02 -0.84062274048E-02  0.21048098865E-01  0.10210972370E+01  0.10208419233E+01 0.  0.
     999903    2    3    3    0    0  0.19101287710E-01 -0.61945049355E-01  0.11577596634E+00  0.13424514529E+00  0.20387160628E-01 0.  0.
         14    1    1    2    0    0 -0.27654910895E-02  0.84062274048E-02 -0.21048098865E-01  0.22832762995E-01  0.00000000000E+00 0.  1.
     999901    1    3    3    0    0 -0.16335796620E-01  0.53538821950E-01 -0.94727867479E-01  0.88685209172E+00  0.88000000000E+00 0. -1.
        -11    1    4    4    0    0 -0.13262553319E-03 -0.26222224251E-02  0.18512508791E-01  0.18704751875E-01  0.51100000000E-03 0.  1.
         11    1    4    4    0    0  0.19233913243E-01 -0.59322826930E-01  0.97263457554E-01  0.11554039341E+00  0.51100000000E-03 0. -1.
</event>
<event>
 8    1  0.1099478E+005  0.1043930E+01  0.7957747E-01            NaN
         13   -1    0    0    0    0  0.00000000000E+00  0.00000000000E+00  0.74505805969E-08  0.10566000000E+00  0.10566000000E+00 0. -1.
     999900   -1    0    0    0    0 -0.00000000000E+00 -0.00000000000E+00 -0.74505805969E-08  0.93827000000E+00  0.93827000000E+00 0. -1.
     999902    2    1    2    0    0 -0.12147343937E-01  0.78323623337E-02  0.19462338593E-01  0.10196877541E+01  0.10193995435E+01 0.  0.
     999903    2    3    3    0    0  0.12438132964E+00 -0.59877908233E-02 -0.22845729744E-01  0.12804822601E+00  0.19179468620E-01 0.  0.
         14    1    1    2    0    0  0.12147343937E-01 -0.78323623337E-02 -0.19462338593E-01  0.24242245935E-01  0.00000000000E+00 0.  1.
     999901    1    3    3    0    0 -0.13652867357E+00  0.13820153157E-01  0.42308068336E-01  0.89163952805E+00  0.88000000000E+00 0. -1.
        -11    1    4    4    0    0  0.89281906499E-01 -0.31197698724E-02 -0.75697922312E-02  0.89657987193E-01  0.51100000000E-03 0. -1.
         11    1    4    4    0    0  0.35099423136E-01 -0.28680209509E-02 -0.15275937512E-01  0.38390238819E-01  0.51100000000E-03 0.  1.
</event>
<event>
 8    1  0.1099478E+005  0.1043930E+01  0.7957747E-01            NaN
         13   -1    0    0    0    0  0.00000000000E+00  0.00000000000E+00  0.74505805969E-08  0.10566000000E+00  0.10566000000E+00 0. -1.
     999900   -1    0    0    0    0 -0.00000000000E+00 -0.00000000000E+00 -0.74505805969E-08  0.93827000000E+00  0.93827000000E+00 0. -1.
     999902    2    1    2    0    0  0.16467078873E-01  0.14151558887E-01 -0.10922414734E-01  0.10196250530E+01  0.10193353316E+01 0.  0.
     999903    2    3    3    0    0  0.11868678570E-02  0.12363169453E+00  0.37438603251E-01  0.13139187808E+00  0.23999418018E-01 0.  0.
         14    1    1    2    0    0 -0.16467078873E-01 -0.14151558887E-01  0.10922414734E-01  0.24304947010E-01  0.00000000000E+00 0. -1.
     999901    1    3    3    0    0  0.15280211016E-01 -0.10948013564E+00 -0.48361017985E-01  0.88823317491E+00  0.88000000000E+00 0. -1.
        -11    1    4    4    0    0 -0.10924814810E-01  0.41503220598E-01  0.12113659855E-01  0.44596757446E-01  0.51100000000E-03 0.  1.
         11    1    4    4    0    0  0.12111682667E-01  0.82128473929E-01  0.25324943396E-01  0.86795120635E-01  0.51100000000E-03 0. -1.
</event>
<event>
 8    1  0.1099478E+005  0.1043930E+01  0.7957747E-01            NaN
         13   -1    0    0    0    0  0.00000000000E+00  0.00000000000E+00  0.74505805969E-08  0.10566000000E+00  0.10566000000E+00 0. -1.
     999900   -1    0    0    0    0 -0.00000000000E+00 -0.00000000000E+00 -0.74505805969E-08  0.93827000000E+00  0.93827000000E+00 0. -1.
     999902    2    1    2    0    0 -0.18608262721E-01 -0.13944579628E-01  0.41039566661E-03  0.10206730190E+01  0.10204080186E+01 0.  0.
     999903    2    3    3    0    0  0.11859759088E-01  0.12521152219E+00  0.20556082297E-01  0.12899002052E+00  0.19932227652E-01 0.  0.
         14    1    1    2    0    0  0.18608262721E-01  0.13944579628E-01 -0.41039566661E-03  0.23256981040E-01  0.00000000000E+00 0.  1.
     999901    1    3    3    0    0 -0.30468021809E-01 -0.13915610181E+00 -0.20145686630E-01  0.89168299844E+00  0.88000000000E+00 0.  1.
        -11    1    4    4    0    0  0.11537415740E-02  0.79259402366E-01  0.54975113045E-02  0.79459849827E-01  0.51100000000E-03 0. -1.
         11    1    4    4    0    0  0.10706017514E-01  0.45952119821E-01  0.15058570993E-01  0.49530170688E-01  0.51100000000E-03 0.  1.
</event>
<event>
 8    1  0.1099478E+005  0.1043930E+01  0.7957747E-01            NaN
         13   -1    0    0    0    0  0.00000000000E+00  0.00000000000E+00  0.74505805969E-08  0.10566000000E+00  0.10566000000E+00 0. -1.
     999900   -1    0    0    0    0 -0.00000000000E+00 -0.00000000000E+00 -0.74505805969E-08  0.93827000000E+00  0.93827000000E+00 0. -1.
     999902    2    1    2    0    0 -0.14062159118E-01  0.18540540362E-01 -0.28697655096E-02  0.10204836461E+01  0.10202142621E+01 0.  0.
     999903    2    3    3    0    0  0.78989692947E-01 -0.71276251882E-01 -0.69308356852E-01  0.12855327342E+00  0.20065395635E-01 0.  0.
         14    1    1    2    0    0  0.14062159118E-01 -0.18540540362E-01  0.28697655096E-02  0.23446353875E-01  0.00000000000E+00 0. -1.
     999901    1    3    3    0    0 -0.93051852065E-01  0.89816792244E-01  0.66438591343E-01  0.89193037271E+00  0.88000000000E+00 0.  1.
        -11    1    4    4    0    0  0.69704069712E-01 -0.52569931583E-01 -0.54046050706E-01  0.10268150641E+00  0.51100000000E-03 0. -1.
         11    1    4    4    0    0  0.92856232357E-02 -0.18706320299E-01 -0.15262306146E-01  0.25871767004E-01  0.51100000000E-03 0.  1.
</event>
<event>
 8    1  0.1099478E+005  0.1043930E+01  0.7957747E-01            NaN
         13   -1    0    0    0    0  0.00000000000E+00  0.00000000000E+00  0.74505805969E-08  0.10566000000E+00  0.10566000000E+00 0.  1.
     999900   -1    0    0    0    0 -0.00000000000E+00 -0.00000000000E+00 -0.74505805969E-08  0.93827000000E+00  0.93827000000E+00 0. -1.
     999902    2    1    2    0    0  0.15650826489E-01  0.14607796948E-01 -0.12180208739E-01  0.10192988493E+01  0.10190012024E+01 0.  0.
     999903    2    3    3    0    0  0.78027605648E-01 -0.55902092073E-01  0.83946335018E-01  0.12907257497E+00  0.19984776861E-01 0.  0.
         14    1    1    2    0    0 -0.15650826489E-01 -0.14607796948E-01  0.12180208739E-01  0.24631150732E-01  0.00000000000E+00 0. -1.
     999901    1    3    3    0    0 -0.62376779159E-01  0.70509889021E-01 -0.96126543757E-01  0.89022627429E+00  0.88000000000E+00 0. -1.
        -11    1    4    4    0    0  0.67989892530E-01 -0.42355634217E-01  0.76020280833E-01  0.11043536324E+00  0.51100000000E-03 0. -1.
         11    1    4    4    0    0  0.10037713118E-01 -0.13546457856E-01  0.79260541857E-02  0.18637211730E-01  0.51100000000E-03 0.  1.
</event>
<event>
 8    1  0.1099478E+005  0.1043930E+01  0.7957747E-01            NaN
         13   -1    0    0    0    0  0.00000000000E+00  0.00000000000E+00  0.74505805969E-08  0.10566000000E+00  0.10566000000E+00 0.  1.
     999900   -1    0    0    0    0 -0.00000000000E+00 -0.00000000000E+00 -0.74505805969E-08  0.93827000000E+00  0.93827000000E+00 0.  1.
     999902    2    1    2    0    0 -0.27287761590E-01 -0.42274650669E-02 -0.13429208849E-02  0.10162840811E+01  0.10159079864E+01 0.  0.
     999903    2    3    3    0    0 -0.95358753726E-01  0.60053296380E-01 -0.60192947369E-01  0.12936300128E+00  0.20295439637E-01 0.  0.
         14    1    1    2    0    0  0.27287761590E-01  0.42274650669E-02  0.13429208849E-02  0.27645918867E-01  0.00000000000E+00 0. -1.
     999901    1    3    3    0    0  0.68070992136E-01 -0.64280761447E-01  0.58850026484E-01  0.88692107985E+00  0.88000000000E+00 0. -1.
        -11    1    4    4    0    0 -0.41066609948E-01  0.36878329413E-01 -0.33567365034E-01  0.64602683762E-01  0.51100000000E-03 0. -1.
         11    1    4    4    0    0 -0.54292143778E-01  0.23174966967E-01 -0.26625582335E-01  0.64760317522E-01  0.51100000000E-03 0.  1.
</event>
<event>
 8    1  0.1099478E+005  0.1043930E+01  0.7957747E-01            NaN
         13   -1    0    0    0    0  0.00000000000E+00  0.00000000000E+00  0.74505805969E-08  0.10566000000E+00  0.10566000000E+00 0. -1.
     999900   -1    0    0    0    0 -0.00000000000E+00 -0.00000000000E+00 -0.74505805969E-08  0.93827000000E+00  0.93827000000E+00 0. -1.
     999902    2    1    2    0    0  0.99942142459E-02 -0.13620984123E-01  0.16437416615E-01  0.10203587423E+01  0.10200864467E+01 0.  0.
     999903    2    3    3    0    0  0.20037562692E-01 -0.11459208553E+00 -0.57810667662E-01  0.13142184337E+00  0.19919277972E-01 0.  0.
         14    1    1    2    0    0 -0.99942142459E-02  0.13620984123E-01 -0.16437416615E-01  0.23571257749E-01  0.00000000000E+00 0.  1.
     999901    1    3    3    0    0 -0.10043348446E-01  0.10097110141E+00  0.74248084278E-01  0.88893689888E+00  0.88000000000E+00 0.  1.
        -11    1    4    4    0    0  0.34956700172E-02 -0.36888667970E-01 -0.28468451434E-01  0.46730154949E-01  0.51100000000E-03 0.  1.
         11    1    4    4    0    0  0.16541892674E-01 -0.77703417561E-01 -0.29342216228E-01  0.84691688424E-01  0.51100000000E-03 0. -1.
</event>
<event>
 8    1  0.1099478E+005  0.1043930E+01  0.7957747E-01            NaN
         13   -1    0    0    0    0  0.00000000000E+00  0.00000000000E+00  0.74505805969E-08  0.10566000000E+00  0.10566000000E+00 0.  1.
     999900   -1    0    0    0    0 -0.00000000000E+00 -0.00000000000E+00 -0.74505805969E-08  0.93827000000E+00  0.93827000000E+00 0.  1.
     999902    2    1    2    0    0  0.19322305837E-03 -0.12381496278E-01  0.21008565399E-01  0.10195435569E+01  0.10192518658E+01 0.  0.
     999903    2    3    3    0    0  0.94019330390E-01 -0.18702115505E-02 -0.84633746283E-01  0.12821077759E+00  0.20784616937E-01 0.  0.
         14    1    1    2    0    0 -0.19322305837E-03  0.12381496278E-01 -0.21008565399E-01  0.24386443065E-01  0.00000000000E+00 0. -1.
     999901    1    3    3    0    0 -0.93826107332E-01 -0.10511284728E-01  0.10564231168E+00  0.89133277935E+00  0.88000000000E+00 0. -1.
        -11    1    4    4    0    0  0.66663923713E-01 -0.78052623532E-02 -0.50116704303E-01  0.83767213254E-01  0.51100000000E-03 0.  1.
         11    1    4    4    0    0  0.27355406677E-01  0.59350508027E-02 -0.34517041980E-01  0.44443564332E-01  0.51100000000E-03 0. -1.
</event>
<event>
 8    1  0.1099478E+005  0.1043930E+01  0.7957747E-01            NaN
         13   -1    0    0    0    0  0.00000000000E+00  0.00000000000E+00  0.74505805969E-08  0.10566000000E+00  0.10566000000E+00 0.  1.
     999900   -1    0    0    0    0 -0.00000000000E+00 -0.00000000000E+00 -0.74505805969E-08  0.93827000000E+00  0.93827000000E+00 0. -1.
     999902    2    1    2    0    0  0.13572755496E-01  0.55892862829E-02 -0.11636611524E-01  0.10251984613E+01  0.10250273238E+01 0.  0.
     999903    2    3    3    0    0 -0.12335354866E-02 -0.98618733206E-03 -0.13495559460E+00  0.13645213381E+00  0.20091742860E-01 0.  0.
         14    1    1    2    0    0 -0.13572755496E-01 -0.55892862829E-02  0.11636611524E-01  0.18731538662E-01  0.00000000000E+00 0.  1.
     999901    1    3    3    0    0  0.14806290982E-01  0.65754736149E-02  0.12331898308E+00  0.88874632753E+00  0.88000000000E+00 0.  1.
        -11    1    4    4    0    0  0.79239897408E-02 -0.19225077867E-02 -0.98886316139E-01  0.99223234629E-01  0.51100000000E-03 0. -1.
         11    1    4    4    0    0 -0.91575252274E-02  0.93632045459E-03 -0.36069278465E-01  0.37228899182E-01  0.51100000000E-03 0.  1.
</event>
<event>
 8    1  0.1099478E+005  0.1043930E+01  0.7957747E-01            NaN
         13   -1    0    0    0    0  0.00000000000E+00  0.00000000000E+00  0.74505805969E-08  0.10566000000E+00  0.10566000000E+00 0. -1.
     999900   -1    0    0    0    0 -0.00000000000E+00 -0.00000000000E+00 -0.74505805969E-08  0.93827000000E+00  0.93827000000E+00 0. -1.
     999902    2    1    2    0    0 -0.19926074250E-01  0.68614802681E-02 -0.11322796548E-01  0.10200064955E+01  0.10197259028E+01 0.  0.
     999903    2    3    3    0    0  0.47491914187E-01 -0.11176458311E+00 -0.38529342351E-01  0.12907578875E+00  0.20718230313E-01 0.  0.
         14    1    1    2    0    0  0.19926074250E-01 -0.68614802681E-02  0.11322796548E-01  0.23923504512E-01  0.00000000000E+00 0.  1.
     999901    1    3    3    0    0 -0.67417988437E-01  0.11862606338E+00  0.27206545802E-01  0.89093070674E+00  0.88000000000E+00 0.  1.
        -11    1    4    4    0    0  0.39920537279E-01 -0.93717056902E-01 -0.40009134089E-01  0.10944189318E+00  0.51100000000E-03 0. -1.
         11    1    4    4    0    0  0.75713769081E-02 -0.18047526211E-01  0.14797917383E-02  0.19633895568E-01  0.51100000000E-03 0.  1.
</event>
<event>
 8    1  0.1099478E+005  0.1043930E+01  0.7957747E-01            NaN
         13   -1    0    0    0    0  0.00000000000E+00  0.00000000000E+00  0.74505805969E-08  0.10566000000E+00  0.10566000000E+00 0. -1.
     999900   -1    0    0    0    0 -0.00000000000E+00 -0.00000000000E+00 -0.74505805969E-08  0.93827000000E+00  0.93827000000E+00 0. -1.
     999902    2    1    2    0    0 -0.24534877069E-01 -0.25067507373E-01  0.20321224303E-02  0.10087949799E+01  0.10081829406E+01 0.  0.
     999903    2    3    3    0    0 -0.99756597186E-01 -0.80146280939E-02  0.68303442276E-01  0.12293889917E+00  0.20808646178E-01 0.  0.
         14    1    1    2    0    0  0.24534877069E-01  0.25067507373E-01 -0.20321224303E-02  0.35135020140E-01  0.00000000000E+00 0.  1.
     999901    1    3    3    0    0  0.75221720117E-01 -0.17052879279E-01 -0.66271319845E-01  0.88585608069E+00  0.88000000000E+00 0. -1.
        -11    1    4    4    0    0 -0.31382554173E-01  0.56006243395E-02  0.15319036577E-01  0.35371820734E-01  0.51100000000E-03 0.  1.
         11    1    4    4    0    0 -0.68374043013E-01 -0.13615252433E-01  0.52984405698E-01  0.87567078431E-01  0.51100000000E-03 0. -1.
</event>
<event>
 8    1  0.1099478E+005  0.1043930E+01  0.7957747E-01            NaN
         13   -1    0    0    0    0  0.00000000000E+00  0.00000000000E+00  0.74505805969E-08  0.10566000000E+00  0.10566000000E+00 0.  1.
     999900   -1    0    0    0    0 -0.00000000000E+00 -0.00000000000E+00 -0.74505805969E-08  0.93827000000E+00  0.93827000000E+00 0.  1.
     999902    2    1    2    0    0  0.15260755126E-01 -0.54514254392E-02 -0.17480792156E-01  0.10200933312E+01  0.10198147957E+01 0.  0.
     999903    2    3    3    0    0  0.78996501866E-01  0.52040206899E-02 -0.10620862811E+00  0.13327406389E+00  0.14634694479E-01 0.  0.
         14    1    1    2    0    0 -0.15260755126E-01  0.54514254392E-02  0.17480792156E-01  0.23836668826E-01  0.00000000000E+00 0.  1.
     999901    1    3    3    0    0 -0.63735746740E-01 -0.10655446129E-01  0.88727835958E-01  0.88681926728E+00  0.88000000000E+00 0.  1.
        -11    1    4    4    0    0  0.92761196766E-02  0.54483721316E-02 -0.13311395310E-01  0.17122661044E-01  0.51100000000E-03 0. -1.
         11    1    4    4    0    0  0.69720382189E-01 -0.24435144173E-03 -0.92897232805E-01  0.11615140285E+00  0.51100000000E-03 0.  1.
</event>
<event>
 8    1  0.1099478E+005  0.1043930E+01  0.7957747E-01            NaN
         13   -1    0    0    0    0  0.00000000000E+00  0.00000000000E+00  0.74505805969E-08  0.10566000000E+00  0.10566000000E+00 0. -1.
     999900   -1    0    0    0    0 -0.00000000000E+00 -0.00000000000E+00 -0.74505805969E-08  0.93827000000E+00  0.93827000000E+00 0.  1.
     999902    2    1    2    0    0 -0.34447922456E-02  0.23939798932E-01  0.14009230065E-02  0.10197030903E+01  0.10194152487E+01 0.  0.
     999903    2    3    3    0    0 -0.11060575037E+00  0.50452330366E-01 -0.44025665680E-01  0.13164343005E+00  0.24752046021E-01 0.  0.
         14    1    1    2    0    0  0.34447922456E-02 -0.23939798932E-01 -0.14009230065E-02  0.24226909662E-01  0.00000000000E+00 0.  1.
     999901    1    3    3    0    0  0.10716095813E+00 -0.26512531435E-01  0.45426588687E-01  0.88805966029E+00  0.88000000000E+00 0. -1.
        -11    1    4    4    0    0 -0.43892803627E-01  0.70126962212E-02 -0.15889387615E-01  0.47206883802E-01  0.51100000000E-03 0.  1.
         11    1    4    4    0    0 -0.66712946745E-01  0.43439634145E-01 -0.28136278065E-01  0.84436546249E-01  0.51100000000E-03 0. -1.
</event>
<event>
 8    1  0.1099478E+005  0.1043930E+01  0.7957747E-01            NaN
         13   -1    0    0    0    0  0.00000000000E+00  0.00000000000E+00  0.74505805969E-08  0.10566000000E+00  0.10566000000E+00 0. -1.
     999900   -1    0    0    0    0 -0.00000000000E+00 -0.00000000000E+00 -0.74505805969E-08  0.93827000000E+00  0.93827000000E+00 0.  1.
     999902    2    1    2    0    0  0.22034599844E-01 -0.87774543357E-02  0.22615463548E-02  0.10201039242E+01  0.10198256392E+01 0.  0.
     999903    2    3    3    0    0 -0.86984843500E-01  0.46143772260E-02 -0.91920220122E-01  0.12828848070E+00  0.20517113253E-01 0.  0.
         14    1    1    2    0    0 -0.22034599844E-01  0.87774543357E-02 -0.22615463548E-02  0.23826075774E-01  0.00000000000E+00 0.  1.
     999901    1    3    3    0    0  0.10901944334E+00 -0.13391831562E-01  0.94181766477E-01  0.89181544353E+00  0.88000000000E+00 0. -1.
        -11    1    4    4    0    0 -0.63784357584E-01 -0.53470885878E-02 -0.69928342708E-01  0.94801212353E-01  0.51100000000E-03 0.  1.
         11    1    4    4    0    0 -0.23200485916E-01  0.99614658138E-02 -0.21991877415E-01  0.33487268344E-01  0.51100000000E-03 0. -1.
</event>
<event>
 7    1  0.1613994E+005  0.1043930E+01  0.7957747E-01            NaN
         13   -1    0    0    0    0  0.00000000000E+00  0.00000000000E+00  0.74505805969E-08  0.10566000000E+00  0.10566000000E+00 0. -1.
     999900   -1    0    0    0    0 -0.00000000000E+00 -0.00000000000E+00 -0.74505805969E-08  0.93827000000E+00  0.93827000000E+00 0. -1.
     999903    2    1    2    0    0 -0.57179781037E-02 -0.69451011543E-01  0.32277093008E-02  0.72609709998E-01  0.20139851062E-01 0.  0.
         14    1    1    2    0    0  0.19803801649E-02  0.47071544590E-01 -0.74500259467E-01  0.88147268116E-01  0.00000000000E+00 0.  1.
     999901    1    1    2    0    0  0.37375979388E-02  0.22379466953E-01  0.71272550167E-01  0.88317302189E+00  0.88000000000E+00 0.  1.
        -11    1    3    3    0    0 -0.10741888657E-01 -0.19042567996E-01  0.48391108399E-03  0.21874708198E-01  0.51100000000E-03 0. -1.
         11    1    3    3    0    0  0.50239105530E-02 -0.50408443547E-01  0.27437982168E-02  0.50735001801E-01  0.51100000000E-03 0.  1.
</event>
<event>
 8    1  0.1099478E+005  0.1043930E+01  0.7957747E-01            NaN
         13   -1    0    0    0    0  0.00000000000E+00  0.00000000000E+00  0.74505805969E-08  0.10566000000E+00  0.10566000000E+00 0.  1.
     999900   -1    0    0    0    0 -0.00000000000E+00 -0.00000000000E+00 -0.74505805969E-08  0.93827000000E+00  0.93827000000E+00 0.  1.
     999902    2    1    2    0    0  0.17378780064E-01 -0.14947268843E-01  0.52272558213E-02  0.10204190016E+01  0.10201481127E+01 0.  0.
     999903    2    3    3    0    0 -0.56347198828E-01  0.15268257724E-01 -0.11320559260E+00  0.12891755034E+00  0.19902313448E-01 0.  0.
         14    1    1    2    0    0 -0.17378780064E-01  0.14947268843E-01 -0.52272558213E-02  0.23510998401E-01  0.00000000000E+00 0.  1.
     999901    1    3    3    0    0  0.73725978892E-01 -0.30215526567E-01  0.11843284842E+00  0.89150145126E+00  0.88000000000E+00 0. -1.
        -11    1    4    4    0    0 -0.33421830235E-01  0.36212611243E-02 -0.46146336253E-01  0.57095339030E-01  0.51100000000E-03 0. -1.
         11    1    4    4    0    0 -0.22925368593E-01  0.11646996599E-01 -0.67059256346E-01  0.71822211311E-01  0.51100000000E-03 0.  1.
</event>
<event>
 8    1  0.1099478E+005  0.1043930E+01  0.7957747E-01            NaN
         13   -1    0    0    0    0  0.00000000000E+00  0.00000000000E+00  0.74505805969E-08  0.10566000000E+00  0.10566000000E+00 0. -1.
     999900   -1    0    0    0    0 -0.00000000000E+00 -0.00000000000E+00 -0.74505805969E-08  0.93827000000E+00  0.93827000000E+00 0.  1.
     999902    2    1    2    0    0  0.43996036928E-02 -0.28263119624E-02 -0.21906938933E-01  0.10214075995E+01  0.10211592558E+01 0.  0.
     999903    2    3    3    0    0 -0.97025538226E-01  0.35120224324E-02 -0.88787293865E-01  0.13303818545E+00  0.19740462678E-01 0.  0.
         14    1    1    2    0    0 -0.43996036928E-02  0.28263119624E-02  0.21906938933E-01  0.22522400525E-01  0.00000000000E+00 0. -1.
     999901    1    3    3    0    0  0.10142514192E+00 -0.63383343948E-02  0.66880354932E-01  0.88836941402E+00  0.88000000000E+00 0. -1.
        -11    1    4    4    0    0 -0.68470739904E-01  0.22477539729E-02 -0.74031180108E-01  0.10086709756E+00  0.51100000000E-03 0. -1.
         11    1    4    4    0    0 -0.28554798322E-01  0.12642684594E-02 -0.14756113758E-01  0.32171087892E-01  0.51100000000E-03 0.  1.
</event>
<event>
 8    1  0.1099478E+005  0.1043930E+01  0.7957747E-01            NaN
         13   -1    0    0    0    0  0.00000000000E+00  0.00000000000E+00  0.74505805969E-08  0.10566000000E+00  0.10566000000E+00 0.  1.
     999900   -1    0    0    0    0 -0.00000000000E+00 -0.00000000000E+00 -0.74505805969E-08  0.93827000000E+00  0.93827000000E+00 0.  1.
     999902    2    1    2    0    0 -0.34831552034E-02 -0.20619176766E-01 -0.11557452669E-01  0.10200373749E+01  0.10197575147E+01 0.  0.
     999903    2    3    3    0    0 -0.88318602388E-01 -0.35140089928E-01  0.86941795642E-01  0.13036889064E+00  0.20054185820E-01 0.  0.
         14    1    1    2    0    0  0.34831552034E-02  0.20619176766E-01  0.11557452669E-01  0.23892625073E-01  0.00000000000E+00 0.  1.
     999901    1    3    3    0    0  0.84835447185E-01  0.14520913162E-01 -0.98499248311E-01  0.88966848429E+00  0.88000000000E+00 0.  1.
        -11    1    4    4    0    0 -0.27312198726E-01 -0.16811143280E-01  0.39821889393E-01  0.51133303565E-01  0.51100000000E-03 0.  1.
         11    1    4    4    0    0 -0.61006403662E-01 -0.18328946649E-01  0.47119906249E-01  0.79235587074E-01  0.51100000000E-03 0. -1.
</event>
<event>
 8    1  0.1099478E+005  0.1043930E+01  0.7957747E-01            NaN
         13   -1    0    0    0    0  0.00000000000E+00  0.00000000000E+00  0.74505805969E-08  0.10566000000E+00  0.10566000000E+00 0.  1.
     999900   -1    0    0    0    0 -0.00000000000E+00 -0.00000000000E+00 -0.74505805969E-08  0.93827000000E+00  0.93827000000E+00 0. -1.
     999902    2    1    2    0    0  0.19498425523E-01 -0.67944496491E-02  0.11024263616E-01  0.10205230025E+01  0.10202545325E+01 0.  0.
     999903    2    3    3    0    0 -0.85247616290E-02 -0.12951480290E+00 -0.49309255393E-02  0.13142224770E+00  0.20018427323E-01 0.  0.
         14    1    1    2    0    0 -0.19498425523E-01  0.67944496491E-02 -0.11024263616E-01  0.23406997504E-01  0.00000000000E+00 0. -1.
     999901    1    3    3    0    0  0.28023187152E-01  0.12272035325E+00  0.15955189155E-01  0.88910075480E+00  0.88000000000E+00 0.  1.
        -11    1    4    4    0    0 -0.10839267637E-01 -0.39554860735E-01  0.27202254047E-02  0.41106416505E-01  0.51100000000E-03 0.  1.
         11    1    4    4    0    0  0.23145060075E-02 -0.89959942164E-01 -0.76511509441E-02  0.90315831193E-01  0.51100000000E-03 0. -1.
</event>
<event>
 8    1  0.1099478E+005  0.1043930E+01  0.7957747E-01            NaN
         13   -1    0    0    0    0  0.00000000000E+00  0.00000000000E+00  0.74505805969E-08  0.10566000000E+00  0.10566000000E+00 0.  1.
     999900   -1    0    0    0    0 -0.00000000000E+00 -0.00000000000E+00 -0.74505805969E-08  0.93827000000E+00  0.93827000000E+00 0.  1.
     999902    2    1    2    0    0 -0.26801919428E-01  0.58149650139E-02  0.28754946675E-02  0.10163541923E+01  0.10159800288E+01 0.  0.
     999903    2    3    3    0    0  0.12055497948E+00  0.47061685722E-02 -0.18932966695E-01  0.12383478402E+00  0.20516954126E-01 0.  0.
         14    1    1    2    0    0  0.26801919428E-01 -0.58149650139E-02 -0.28754946675E-02  0.27575807743E-01  0.00000000000E+00 0.  1.
     999901    1    3    3    0    0 -0.14735689891E+00  0.11087964417E-02  0.21808461362E-01  0.89251940823E+00  0.88000000000E+00 0. -1.
        -11    1    4    4    0    0  0.29127689382E-02  0.27790531513E-02  0.16647737373E-02  0.43863369571E-02  0.51100000000E-03 0. -1.
         11    1    4    4    0    0  0.11764221054E+00  0.19271154209E-02 -0.20597740432E-01  0.11944844707E+00  0.51100000000E-03 0.  1.
</event>
<event>
 8    1  0.1099478E+005  0.1043930E+01  0.7957747E-01            NaN
         13   -1    0    0    0    0  0.00000000000E+00  0.00000000000E+00  0.74505805969E-08  0.10566000000E+00  0.10566000000E+00 0.  1.
     999900   -1    0    0    0    0 -0.00000000000E+00 -0.00000000000E+00 -0.74505805969E-08  0.93827000000E+00  0.93827000000E+00 0.  1.
     999902    2    1    2    0    0  0.19877319818E-01  0.11292634484E-01  0.67466658686E-02  0.10200941250E+01  0.10198156083E+01 0.  0.
     999903    2    3    3    0    0  0.63726079728E-01  0.11344031236E+00 -0.17496886614E-01  0.13276971325E+00  0.19797424356E-01 0.  0.
         14    1    1    2    0    0 -0.19877319818E-01 -0.11292634484E-01 -0.67466658686E-02  0.23835875002E-01  0.00000000000E+00 0. -1.
     999901    1    3    3    0    0 -0.43848759910E-01 -0.10214767787E+00  0.24243552482E-01  0.88732441174E+00  0.88000000000E+00 0. -1.
        -11    1    4    4    0    0  0.49832567619E-01  0.69984498530E-01 -0.93466980190E-02  0.86421853225E-01  0.51100000000E-03 0. -1.
         11    1    4    4    0    0  0.13893512109E-01  0.43455813827E-01 -0.81501885945E-02  0.46347860029E-01  0.51100000000E-03 0.  1.
</event>
<event>
 8    1  0.1099478E+005  0.1043930E+01  0.7957747E-01            NaN
         13   -1    0    0    0    0  0.00000000000E+00  0.00000000000E+00  0.74505805969E-08  0.10566000000E+00  0.10566000000E+00 0.  1.
     999900   -1    0    0    0    0 -0.00000000000E+00 -0.00000000000E+00 -0.74505805969E-08  0.93827000000E+00  0.93827000000E+00 0.  1.
     999902    2    1    2    0    0  0.11485614694E-01 -0.97937286641E-02  0.19327330055E-01  0.10194069057E+01  0.10191118963E+01 0.  0.
     999903    2    3    3    0    0  0.12321062385E+00  0.19291193878E-01  0.34233870101E-01  0.13174108159E+00  0.25114671533E-01 0.  0.
         14    1    1    2    0    0 -0.11485614694E-01  0.97937286641E-02 -0.19327330055E-01  0.24523094280E-01  0.00000000000E+00 0. -1.
     999901    1    3    3    0    0 -0.11172500916E+00 -0.29084922542E-01 -0.14906540046E-01  0.88766582413E+00  0.88000000000E+00 0.  1.
        -11    1    4    4    0    0  0.16029744583E-01 -0.53946060530E-02  0.15099273240E-02  0.16988098404E-01  0.51100000000E-03 0.  1.
         11    1    4    4    0    0  0.10718087927E+00  0.24685799931E-01  0.32723942777E-01  0.11475298319E+00  0.51100000000E-03 0. -1.
</event>
<event>
 8    1  0.1099478E+005  0.1043930E+01  0.7957747E-01            NaN
         13   -1    0    0    0    0  0.00000000000E+00  0.00000000000E+00  0.74505805969E-08  0.10566000000E+00  0.10566000000E+00 0.  1.
     999900   -1    0    0    0    0 -0.00000000000E+00 -0.00000000000E+00 -0.74505805969E-08  0.93827000000E+00  0.93827000000E+00 0. -1.
     999902    2    1    2    0    0  0.14053799254E-01 -0.83176582284E-03  0.18848720771E-01  0.10204039425E+01  0.10201327024E+01 0.  0.
     999903    2    3    3    0    0  0.97100498147E-01 -0.83735294013E-01 -0.22226516663E-01  0.13166499075E+00  0.20038601319E-01 0.  0.
         14    1    1    2    0    0 -0.14053799254E-01  0.83176582284E-03 -0.18848720771E-01  0.23526057523E-01  0.00000000000E+00 0. -1.
     999901    1    3    3    0    0 -0.83046698893E-01  0.82903528190E-01  0.41075237434E-01  0.88873895173E+00  0.88000000000E+00 0.  1.
        -11    1    4    4    0    0  0.86065867171E-01 -0.80057000599E-01 -0.23759378937E-01  0.11992174968E+00  0.51100000000E-03 0. -1.
         11    1    4    4    0    0  0.11034630976E-01 -0.36782934143E-02  0.15328622743E-02  0.11743241076E-01  0.51100000000E-03 0.  1.
</event>
<event>
 8    1  0.1099478E+005  0.1043930E+01  0.7957747E-01            NaN
         13   -1    0    0    0    0  0.00000000000E+00  0.00000000000E+00  0.74505805969E-08  0.10566000000E+00  0.10566000000E+00 0.  1.
     999900   -1    0    0    0    0 -0.00000000000E+00 -0.00000000000E+00 -0.74505805969E-08  0.93827000000E+00  0.93827000000E+00 0.  1.
     999902    2    1    2    0    0  0.21321782582E-02 -0.19492496335E-01  0.12796027371E-01  0.10205154337E+01  0.10202467881E+01 0.  0.
     999903    2    3    3    0    0 -0.12103617518E+00 -0.42254683869E-01 -0.18257465620E-01  0.13110389799E+00  0.20486166201E-01 0.  0.
         14    1    1    2    0    0 -0.21321782582E-02  0.19492496335E-01 -0.12796027371E-01  0.23414566277E-01  0.00000000000E+00 0.  1.
     999901    1    3    3    0    0  0.12316835344E+00  0.22762187535E-01  0.31053492992E-01  0.88941153573E+00  0.88000000000E+00 0. -1.
        -11    1    4    4    0    0 -0.75207891706E-01 -0.34148999790E-01 -0.51915809453E-02  0.82762278819E-01  0.51100000000E-03 0. -1.
         11    1    4    4    0    0 -0.45828283474E-01 -0.81056840793E-02 -0.13065884675E-01  0.48341619170E-01  0.51100000000E-03 0.  1.
</event>
<event>
 8    1  0.1099478E+005  0.1043930E+01  0.7957747E-01            NaN
         13   -1    0    0    0    0  0.00000000000E+00  0.00000000000E+00  0.74505805969E-08  0.10566000000E+00  0.10566000000E+00 0. -1.
     999900   -1    0    0    0    0 -0.00000000000E+00 -0.00000000000E+00 -0.74505805969E-08  0.93827000000E+00  0.93827000000E+00 0.  1.
     999902    2    1    2    0    0  0.19464028792E-01  0.38212721458E-02 -0.11168036688E-01  0.10211665297E+01  0.10209127807E+01 0.  0.
     999903    2    3    3    0    0 -0.97499633921E-01 -0.28186883132E-01  0.76427550614E-01  0.12854230453E+00  0.19526253271E-01 0.  0.
         14    1    1    2    0    0 -0.19464028792E-01 -0.38212721458E-02  0.11168036688E-01  0.22763470322E-01  0.00000000000E+00 0. -1.
     999901    1    3    3    0    0  0.11696366271E+00  0.32008155278E-01 -0.87595587302E-01  0.89262422514E+00  0.88000000000E+00 0.  1.
        -11    1    4    4    0    0 -0.19960880788E-01 -0.10536143253E-01  0.25739117996E-01  0.34237558218E-01  0.51100000000E-03 0. -1.
         11    1    4    4    0    0 -0.77538753132E-01 -0.17650739879E-01  0.50688432618E-01  0.94304746317E-01  0.51100000000E-03 0.  1.
</event>
<event>
 8    1  0.1099478E+005  0.1043930E+01  0.7957747E-01            NaN
         13   -1    0    0    0    0  0.00000000000E+00  0.00000000000E+00  0.74505805969E-08  0.10566000000E+00  0.10566000000E+00 0. -1.
     999900   -1    0    0    0    0 -0.00000000000E+00 -0.00000000000E+00 -0.74505805969E-08  0.93827000000E+00  0.93827000000E+00 0.  1.
     999902    2    1    2    0    0 -0.25491004482E-02 -0.15736449341E-01  0.17406972549E-01  0.10203262621E+01  0.10200532068E+01 0.  0.
     999903    2    3    3    0    0 -0.60718485136E-01  0.10844815252E+00  0.30908373381E-01  0.12960308370E+00  0.19846801712E-01 0.  0.
         14    1    1    2    0    0  0.25491004482E-02  0.15736449341E-01 -0.17406972549E-01  0.23603737930E-01  0.00000000000E+00 0.  1.
     999901    1    3    3    0    0  0.58169384687E-01 -0.12418460186E+00 -0.13501400832E-01  0.89072317837E+00  0.88000000000E+00 0.  1.
        -11    1    4    4    0    0 -0.29797689866E-01  0.70435516790E-01  0.13911255556E-01  0.77735760747E-01  0.51100000000E-03 0.  1.
         11    1    4    4    0    0 -0.30920795270E-01  0.38012635730E-01  0.16997117826E-01  0.51867322956E-01  0.51100000000E-03 0. -1.
</event>
<event>
 8    1  0.1099478E+005  0.1043930E+01  0.7957747E-01            NaN
         13   -1    0    0    0    0  0.00000000000E+00  0.00000000000E+00  0.74505805969E-08  0.10566000000E+00  0.10566000000E+00 0. -1.
     999900   -1    0    0    0    0 -0.00000000000E+00 -0.00000000000E+00 -0.74505805969E-08  0.93827000000E+00  0.93827000000E+00 0. -1.
     999902    2    1    2    0    0  0.27461138052E-02  0.14104322293E-01  0.18342494712E-01  0.10206293528E+01  0.10203633449E+01 0.  0.
     999903    2    3    3    0    0  0.99844407517E-01  0.37135139748E-01  0.77180188896E-01  0.13303689481E+00  0.19852191482E-01 0.  0.
         14    1    1    2    0    0 -0.27461138052E-02 -0.14104322293E-01 -0.18342494712E-01  0.23300647215E-01  0.00000000000E+00 0.  1.
     999901    1    3    3    0    0 -0.97098293712E-01 -0.23030817455E-01 -0.58837694184E-01  0.88759245797E+00  0.88000000000E+00 0. -1.
        -11    1    4    4    0    0  0.53116714125E-01  0.18039486532E-01  0.52550069390E-01  0.76867283728E-01  0.51100000000E-03 0. -1.
         11    1    4    4    0    0  0.46727693392E-01  0.19095653216E-01  0.24630119506E-01  0.56169611084E-01  0.51100000000E-03 0.  1.
</event>
<event>
 8    1  0.1099478E+005  0.1043930E+01  0.7957747E-01            NaN
         13   -1    0    0    0    0  0.00000000000E+00  0.00000000000E+00  0.74505805969E-08  0.10566000000E+00  0.10566000000E+00 0. -1.
     999900   -1    0    0    0    0 -0.00000000000E+00 -0.00000000000E+00 -0.74505805969E-08  0.93827000000E+00  0.93827000000E+00 0. -1.
     999902    2    1    2    0    0 -0.18020854227E-01 -0.11991442103E-01  0.52106396970E-02  0.10216657543E+01  0.10214231331E+01 0.  0.
     999903    2    3    3    0    0 -0.12892746510E+00  0.12297364121E-02 -0.29566745005E-01  0.13392449560E+00  0.20923063937E-01 0.  0.
         14    1    1    2    0    0  0.18020854227E-01  0.11991442103E-01 -0.52106396970E-02  0.22264245705E-01  0.00000000000E+00 0. -1.
     999901    1    3    3    0    0  0.11090661087E+00 -0.13221178516E-01  0.34777384702E-01  0.88774125869E+00  0.88000000000E+00 0.  1.
        -11    1    4    4    0    0 -0.87657933455E-01  0.55993576641E-02 -0.28714486630E-01  0.92412385357E-01  0.51100000000E-03 0. -1.
         11    1    4    4    0    0 -0.41269531641E-01 -0.43696212520E-02 -0.85225837528E-03  0.41512110247E-01  0.51100000000E-03 0.  1.
</event>
<event>
 8    1  0.1099478E+005  0.1043930E+01  0.7957747E-01            NaN
         13   -1    0    0    0    0  0.00000000000E+00  0.00000000000E+00  0.74505805969E-08  0.10566000000E+00  0.10566000000E+00 0. -1.
     999900   -1    0    0    0    0 -0.00000000000E+00 -0.00000000000E+00 -0.74505805969E-08  0.93827000000E+00  0.93827000000E+00 0.  1.
     999902    2    1    2    0    0  0.54377928257E-02 -0.19230938054E-01  0.10117074633E-01  0.10215301391E+01  0.10212845203E+01 0.  0.
     999903    2    3    3    0    0 -0.43379268389E-01 -0.42752238398E-01  0.11788059019E+00  0.13330194076E+00  0.12808553881E-01 0.  0.
         14    1    1    2    0    0 -0.54377928257E-02  0.19230938054E-01 -0.10117074633E-01  0.22399860901E-01  0.00000000000E+00 0. -1.
     999901    1    3    3    0    0  0.48817061215E-01  0.23521300344E-01 -0.10776351556E+00  0.88822819834E+00  0.88000000000E+00 0.  1.
        -11    1    4    4    0    0 -0.72618750864E-02 -0.13481365077E-01  0.22894997899E-01  0.27548576803E-01  0.51100000000E-03 0.  1.
         11    1    4    4    0    0 -0.36117393302E-01 -0.29270873321E-01  0.94985592294E-01  0.10575336396E+00  0.51100000000E-03 0. -1.
</event>
<event>
 8    1  0.1099478E+005  0.1043930E+01  0.7957747E-01            NaN
         13   -1    0    0    0    0  0.00000000000E+00  0.00000000000E+00  0.74505805969E-08  0.10566000000E+00  0.10566000000E+00 0. -1.
     999900   -1    0    0    0    0 -0.00000000000E+00 -0.00000000000E+00 -0.74505805969E-08  0.93827000000E+00  0.93827000000E+00 0. -1.
     999902    2    1    2    0    0  0.21026213356E-02 -0.21303852756E-01 -0.60179938232E-02  0.10216928372E+01  0.10214508124E+01 0.  0.
     999903    2    3    3    0    0  0.45802175905E-01  0.10823678349E+00  0.49532150914E-01  0.12940574996E+00  0.21894600520E-01 0.  0.
         14    1    1    2    0    0 -0.21026213356E-02  0.21303852756E-01  0.60179938232E-02  0.22237162778E-01  0.00000000000E+00 0. -1.
     999901    1    3    3    0    0 -0.43699554570E-01 -0.12954063624E+00 -0.55550144737E-01  0.89228708726E+00  0.88000000000E+00 0. -1.
        -11    1    4    4    0    0  0.47897421311E-01  0.10014522429E+00  0.47744726448E-01  0.12084307568E+00  0.51100000000E-03 0. -1.
         11    1    4    4    0    0 -0.20952454063E-02  0.80915592032E-02  0.17874244663E-02  0.85626742828E-02  0.51100000000E-03 0.  1.
</event>
<event>
 8    1  0.1099478E+005  0.1043930E+01  0.7957747E-01            NaN
         13   -1    0    0    0    0  0.00000000000E+00  0.00000000000E+00  0.74505805969E-08  0.10566000000E+00  0.10566000000E+00 0. -1.
     999900   -1    0    0    0    0 -0.00000000000E+00 -0.00000000000E+00 -0.74505805969E-08  0.93827000000E+00  0.93827000000E+00 0.  1.
     999902    2    1    2    0    0 -0.50958765776E-02 -0.74174650625E-02 -0.22033727511E-01  0.10201293300E+01  0.10198516451E+01 0.  0.
     999903    2    3    3    0    0 -0.10562696645E-01  0.11870859448E+00 -0.49770298348E-01  0.13068737774E+00  0.19970156218E-01 0.  0.
         14    1    1    2    0    0  0.50958765776E-02  0.74174650625E-02  0.22033727511E-01  0.23800670034E-01  0.00000000000E+00 0. -1.
     999901    1    3    3    0    0  0.54668200673E-02 -0.12612605954E+00  0.27736570837E-01  0.88944195223E+00  0.88000000000E+00 0. -1.
        -11    1    4    4    0    0 -0.14638388594E-01  0.72950987526E-01 -0.36440345969E-01  0.82851004442E-01  0.51100000000E-03 0.  1.
         11    1    4    4    0    0  0.40756919491E-02  0.45757606953E-01 -0.13329952379E-01  0.47836373299E-01  0.51100000000E-03 0. -1.
</event>
<event>
 8    1  0.1099478E+005  0.1043930E+01  0.7957747E-01            NaN
         13   -1    0    0    0    0  0.00000000000E+00  0.00000000000E+00  0.74505805969E-08  0.10566000000E+00  0.10566000000E+00 0.  1.
     999900   -1    0    0    0    0 -0.00000000000E+00 -0.00000000000E+00 -0.74505805969E-08  0.93827000000E+00  0.93827000000E+00 0.  1.
     999902    2    1    2    0    0 -0.20385444507E-01  0.59124608133E-02 -0.12905966084E-01  0.10190887540E+01  0.10187859447E+01 0.  0.
     999903    2    3    3    0    0 -0.24974453674E-01 -0.21950948902E-01 -0.12478549991E+00  0.13155596101E+00  0.25099450088E-01 0.  0.
         14    1    1    2    0    0  0.20385444507E-01 -0.59124608133E-02  0.12905966084E-01  0.24841245967E-01  0.00000000000E+00 0.  1.
     999901    1    3    3    0    0  0.45890091665E-02  0.27863409715E-01  0.11187953383E+00  0.88753279303E+00  0.88000000000E+00 0. -1.
        -11    1    4    4    0    0 -0.50395309913E-02  0.15019726512E-02 -0.32968360902E-02  0.62276033643E-02  0.51100000000E-03 0. -1.
         11    1    4    4    0    0 -0.19934922682E-01 -0.23452921553E-01 -0.12148866382E+00  0.12532835764E+00  0.51100000000E-03 0.  1.
</event>
<event>
 7    1  0.1099478E+005  0.1043930E+01  0.7957747E-01            NaN
         13   -1    0    0    0    0  0.00000000000E+00  0.00000000000E+00  0.74505805969E-08  0.10566000000E+00  0.10566000000E+00 0. -1.
     999900   -1    0    0    0    0 -0.00000000000E+00 -0.00000000000E+00 -0.74505805969E-08  0.93827000000E+00  0.93827000000E+00 0.  1.
     999903    2    1    2    0    0 -0.58561382579E-01 -0.60892367056E-01  0.70552364219E-01  0.11180310195E+00  0.19620948326E-01 0.  0.
         14    1    1    2    0    0 -0.51709306096E-02 -0.85469937082E-02  0.39073408464E-01  0.40330148448E-01  0.00000000000E+00 0. -1.
     999901    1    1    2    0    0  0.63732313188E-01  0.69439360764E-01 -0.10962577268E+00  0.89179674960E+00  0.88000000000E+00 0.  1.
        -11    1    3    3    0    0 -0.27682875926E-01 -0.15788459654E-01  0.22414660923E-01  0.38965307943E-01  0.51100000000E-03 0.  1.
         11    1    3    3    0    0 -0.30878506653E-01 -0.45103907402E-01  0.48137703296E-01  0.72837794006E-01  0.51100000000E-03 0. -1.
</event>
<event>
 8    1  0.1099478E+005  0.1043930E+01  0.7957747E-01            NaN
         13   -1    0    0    0    0  0.00000000000E+00  0.00000000000E+00  0.74505805969E-08  0.10566000000E+00  0.10566000000E+00 0. -1.
     999900   -1    0    0    0    0 -0.00000000000E+00 -0.00000000000E+00 -0.74505805969E-08  0.93827000000E+00  0.93827000000E+00 0. -1.
     999902    2    1    2    0    0 -0.39360658495E-02  0.20763681206E-01  0.91846284392E-02  0.10208869865E+01  0.10206268950E+01 0.  0.
     999903    2    3    3    0    0 -0.51400727010E-01  0.11814855631E+00 -0.30289327126E-01  0.13336521148E+00  0.16362157597E-01 0.  0.
         14    1    1    2    0    0  0.39360658495E-02 -0.20763681206E-01 -0.91846284392E-02  0.23043013500E-01  0.00000000000E+00 0.  1.
     999901    1    3    3    0    0  0.47464661161E-01 -0.97384875104E-01  0.39473955565E-01  0.88752177502E+00  0.88000000000E+00 0.  1.
        -11    1    4    4    0    0 -0.21397833220E-01  0.39671036487E-01 -0.36499624136E-02  0.45224349073E-01  0.51100000000E-03 0. -1.
         11    1    4    4    0    0 -0.30002893791E-01  0.78477519823E-01 -0.26639364712E-01  0.88140862411E-01  0.51100000000E-03 0.  1.
</event>
<event>
 8    1  0.1099478E+005  0.1043930E+01  0.7957747E-01            NaN
         13   -1    0    0    0    0  0.00000000000E+00  0.00000000000E+00  0.74505805969E-08  0.10566000000E+00  0.10566000000E+00 0. -1.
     999900   -1    0    0    0    0 -0.00000000000E+00 -0.00000000000E+00 -0.74505805969E-08  0.93827000000E+00  0.93827000000E+00 0. -1.
     999902    2    1    2    0    0 -0.13327523969E-01  0.81735302666E-02 -0.22778433130E-01  0.10163023597E+01  0.10159267689E+01 0.  0.
     999903    2    3    3    0    0 -0.94985848217E-01  0.14357106779E-01 -0.86671150879E-01  0.13019367680E+00  0.14493695479E-01 0.  0.
         14    1    1    2    0    0  0.13327523969E-01 -0.81735302666E-02  0.22778433130E-01  0.27627640291E-01  0.00000000000E+00 0. -1.
     999901    1    3    3    0    0  0.81658324249E-01 -0.61835765127E-02  0.63892717748E-01  0.88610868290E+00  0.88000000000E+00 0.  1.
        -11    1    4    4    0    0 -0.39127122396E-01  0.28062410640E-02 -0.44047272859E-01  0.58984998628E-01  0.51100000000E-03 0. -1.
         11    1    4    4    0    0 -0.55858725822E-01  0.11550865715E-01 -0.42623878020E-01  0.71208678177E-01  0.51100000000E-03 0.  1.
</event>
<event>
 8    1  0.1099478E+005  0.1043930E+01  0.7957747E-01            NaN
         13   -1    0    0    0    0  0.00000000000E+00  0.00000000000E+00  0.74505805969E-08  0.10566000000E+00  0.10566000000E+00 0.  1.
     999900   -1    0    0    0    0 -0.00000000000E+00 -0.00000000000E+00 -0.74505805969E-08  0.93827000000E+00  0.93827000000E+00 0. -1.
     999902    2    1    2    0    0  0.10650716808E-01 -0.10900878858E-01 -0.20215444791E-01  0.10186133822E+01  0.10182987240E+01 0.  0.
     999903    2    3    3    0    0  0.10176579905E+00 -0.54750594596E-02 -0.81235424991E-01  0.13179049363E+00  0.19577686383E-01 0.  0.
         14    1    1    2    0    0 -0.10650716808E-01  0.10900878858E-01  0.20215444791E-01  0.25316617794E-01  0.00000000000E+00 0.  1.
     999901    1    3    3    0    0 -0.91115082242E-01 -0.54258193982E-02  0.61019980200E-01  0.88682288858E+00  0.88000000000E+00 0.  1.
        -11    1    4    4    0    0  0.29993754925E-01  0.69815561245E-02 -0.27193332250E-01  0.41086565934E-01  0.51100000000E-03 0.  1.
         11    1    4    4    0    0  0.71772044125E-01 -0.12456615584E-01 -0.54042092741E-01  0.90703927691E-01  0.51100000000E-03 0. -1.
</event>
<event>
 8    1  0.1099478E+005  0.1043930E+01  0.7957747E-01            NaN
         13   -1    0    0    0    0  0.00000000000E+00  0.00000000000E+00  0.74505805969E-08  0.10566000000E+00  0.10566000000E+00 0. -1.
     999900   -1    0    0    0    0 -0.00000000000E+00 -0.00000000000E+00 -0.74505805969E-08  0.93827000000E+00  0.93827000000E+00 0.  1.
     999902    2    1    2    0    0  0.20405103842E-01  0.10503877911E-01 -0.29691649471E-04  0.10209800415E+01  0.10207220702E+01 0.  0.
     999903    2    3    3    0    0 -0.78021409723E-01  0.10303818319E+00  0.21470251244E-02  0.13066823413E+00  0.19114657297E-01 0.  0.
         14    1    1    2    0    0 -0.20405103842E-01 -0.10503877911E-01  0.29691649471E-04  0.22949958509E-01  0.00000000000E+00 0. -1.
     999901    1    3    3    0    0  0.98426513565E-01 -0.92534305283E-01 -0.21767167739E-02  0.89031180736E+00  0.88000000000E+00 0.  1.
        -11    1    4    4    0    0 -0.66411201416E-01  0.74689236333E-01  0.34042527890E-02  0.10000389870E+00  0.51100000000E-03 0.  1.
         11    1    4    4    0    0 -0.11610208307E-01  0.28348946860E-01 -0.12572276646E-02  0.30664335431E-01  0.51100000000E-03 0. -1.
</event>
<event>
 8    1  0.1145659E+005  0.1043930E+01  0.7957747E-01            NaN
         13   -1    0    0    0    0  0.00000000000E+00  0.00000000000E+00  0.74505805969E-08  0.10566000000E+00  0.10566000000E+00 0. -1.
     999900   -1    0    0    0    0 -0.00000000000E+00 -0.00000000000E+00 -0.74505805969E-08  0.93827000000E+00  0.93827000000E+00 0.  1.
     999902    2    1    2    0    0 -0.14496449520E-01  0.63946901433E-02  0.19456223391E-01  0.10188384927E+01  0.10185294745E+01 0.  0.
     999903    2    3    3    0    0 -0.12735671703E+00 -0.16259487413E-01  0.18944300316E-01  0.13134149900E+00  0.20189069834E-01 0.  0.
         14    1    1    2    0    0  0.14496449520E-01 -0.63946901433E-02 -0.19456223391E-01  0.25091507315E-01  0.00000000000E+00 0.  1.
     999901    1    3    3    0    0  0.11286026751E+00  0.22654177556E-01  0.51192307467E-03  0.88749699369E+00  0.88000000000E+00 0.  1.
        -11    1    4    4    0    0 -0.55256485928E-01 -0.16339590370E-01  0.12399849782E-01  0.58943013548E-01  0.51100000000E-03 0.  1.
         11    1    4    4    0    0 -0.72100231100E-01  0.80102957563E-04  0.65444505344E-02  0.72398485447E-01  0.51100000000E-03 0. -1.
</event>
<event>
 8    1  0.1099478E+005  0.1043930E+01  0.7957747E-01            NaN
         13   -1    0    0    0    0  0.00000000000E+00  0.00000000000E+00  0.74505805969E-08  0.10566000000E+00  0.10566000000E+00 0. -1.
     999900   -1    0    0    0    0 -0.00000000000E+00 -0.00000000000E+00 -0.74505805969E-08  0.93827000000E+00  0.93827000000E+00 0.  1.
     999902    2    1    2    0    0  0.18677373284E-01  0.12570032881E-01 -0.41285734067E-02  0.10210412447E+01  0.10207846631E+01 0.  0.
     999903    2    3    3    0    0  0.64263043593E-01 -0.28012331971E-01 -0.11110839815E+00  0.13246391856E+00  0.16946506090E-01 0.  0.
         14    1    1    2    0    0 -0.18677373284E-01 -0.12570032881E-01  0.41285734067E-02  0.22888755270E-01  0.00000000000E+00 0. -1.
     999901    1    3    3    0    0 -0.45585670308E-01  0.40582364852E-01  0.10697982474E+00  0.88857732617E+00  0.88000000000E+00 0. -1.
        -11    1    4    4    0    0  0.50304086630E-01 -0.26289241322E-01 -0.97886712443E-01  0.11315341327E+00  0.51100000000E-03 0. -1.
         11    1    4    4    0    0  0.13958956962E-01 -0.17230906498E-02 -0.13221685702E-01  0.19310505293E-01  0.51100000000E-03 0.  1.
</event>
<event>
 8    1  0.1099478E+005  0.1043930E+01  0.7957747E-01            NaN
         13   -1    0    0    0    0  0.00000000000E+00  0.00000000000E+00  0.74505805969E-08  0.10566000000E+00  0.10566000000E+00 0.  1.
     999900   -1    0    0    0    0 -0.00000000000E+00 -0.00000000000E+00 -0.74505805969E-08  0.93827000000E+00  0.93827000000E+00 0. -1.
     999902    2    1    2    0    0  0.13928934760E-01 -0.15957722584E-01 -0.91266145755E-02  0.10208657587E+01  0.10206051823E+01 0.  0.
     999903    2    3    3    0    0 -0.10383748249E+00 -0.42359077331E-01 -0.64624589970E-01  0.13089610424E+00  0.19517640063E-01 0.  0.
         14    1    1    2    0    0 -0.13928934760E-01  0.15957722584E-01  0.91266145755E-02  0.23064241311E-01  0.00000000000E+00 0.  1.
     999901    1    3    3    0    0  0.11776641725E+00  0.26401354747E-01  0.55497975394E-01  0.88996965445E+00  0.88000000000E+00 0.  1.
        -11    1    4    4    0    0 -0.40741905390E-01 -0.17819972711E-01 -0.36709434106E-01  0.57665396518E-01  0.51100000000E-03 0. -1.
         11    1    4    4    0    0 -0.63095577105E-01 -0.24539104620E-01 -0.27915155864E-01  0.73230707723E-01  0.51100000000E-03 0.  1.
</event>
<event>
 8    1  0.1099478E+005  0.1043930E+01  0.7957747E-01            NaN
         13   -1    0    0    0    0  0.00000000000E+00  0.00000000000E+00  0.74505805969E-08  0.10566000000E+00  0.10566000000E+00 0.  1.
     999900   -1    0    0    0    0 -0.00000000000E+00 -0.00000000000E+00 -0.74505805969E-08  0.93827000000E+00  0.93827000000E+00 0.  1.
     999902    2    1    2    0    0 -0.75235003201E-02 -0.10316950701E-01  0.18881799637E-01  0.10211360340E+01  0.10208815970E+01 0.  0.
     999903    2    3    3    0    0  0.27948070998E-01  0.12367526863E+00  0.22659982588E-01  0.13027890634E+00  0.19556377042E-01 0.  0.
         14    1    1    2    0    0  0.75235003201E-02  0.10316950701E-01 -0.18881799637E-01  0.22793966008E-01  0.00000000000E+00 0.  1.
     999901    1    3    3    0    0 -0.35471571319E-01 -0.13399221934E+00 -0.37781829512E-02  0.89085712765E+00  0.88000000000E+00 0. -1.
        -11    1    4    4    0    0  0.36333196214E-02  0.54296045778E-01  0.14435841290E-01  0.56302009141E-01  0.51100000000E-03 0.  1.
         11    1    4    4    0    0  0.24314751377E-01  0.69379222857E-01  0.82241412987E-02  0.73976897203E-01  0.51100000000E-03 0. -1.
</event>
<event>
 8    1  0.1099478E+005  0.1043930E+01  0.7957747E-01            NaN
         13   -1    0    0    0    0  0.00000000000E+00  0.00000000000E+00  0.74505805969E-08  0.10566000000E+00  0.10566000000E+00 0.  1.
     999900   -1    0    0    0    0 -0.00000000000E+00 -0.00000000000E+00 -0.74505805969E-08  0.93827000000E+00  0.93827000000E+00 0. -1.
     999902    2    1    2    0    0 -0.21561548425E-01 -0.71210209727E-02  0.14498294082E-02  0.10211767296E+01  0.10209232105E+01 0.  0.
     999903    2    3    3    0    0  0.35536603846E-01 -0.11069403093E+00  0.57933052744E-01  0.13147008021E+00  0.20300854533E-01 0.  0.
         14    1    1    2    0    0  0.21561548425E-01  0.71210209727E-02 -0.14498294082E-02  0.22753270435E-01  0.00000000000E+00 0.  1.
     999901    1    3    3    0    0 -0.57098152271E-01  0.10357300996E+00 -0.56483223335E-01  0.88970664935E+00  0.88000000000E+00 0. -1.
        -11    1    4    4    0    0  0.13380400824E-01 -0.16599123147E-01  0.95165787232E-02  0.23353637983E-01  0.51100000000E-03 0.  1.
         11    1    4    4    0    0  0.22156203022E-01 -0.94094907781E-01  0.48416474020E-01  0.10811644223E+00  0.51100000000E-03 0. -1.
</event>
<event>
 8    1  0.1099478E+005  0.1043930E+01  0.7957747E-01            NaN
         13   -1    0    0    0    0  0.00000000000E+00  0.00000000000E+00  0.74505805969E-08  0.10566000000E+00  0.10566000000E+00 0.  1.
     999900   -1    0    0    0    0 -0.00000000000E+00 -0.00000000000E+00 -0.74505805969E-08  0.93827000000E+00  0.93827000000E+00 0. -1.
     999902    2    1    2    0    0  0.43631041745E-02 -0.73738698866E-02 -0.24671744960E-01  0.10178128479E+01  0.10174777087E+01 0.  0.
     999903    2    3    3    0    0  0.27645653196E-01  0.83508504472E-02 -0.12634455529E+00  0.13151340398E+00  0.22334053157E-01 0.  0.
         14    1    1    2    0    0 -0.43631041745E-02  0.73738698866E-02  0.24671744960E-01  0.26117152113E-01  0.00000000000E+00 0.  1.
     999901    1    3    3    0    0 -0.23282549021E-01 -0.15724720334E-01  0.10167281033E+00  0.88629944391E+00  0.88000000000E+00 0.  1.
        -11    1    4    4    0    0  0.17837734508E-01  0.37229971192E-02 -0.34413686249E-01  0.38943656764E-01  0.51100000000E-03 0.  1.
         11    1    4    4    0    0  0.98079186876E-02  0.46278533280E-02 -0.91930869039E-01  0.92569747211E-01  0.51100000000E-03 0. -1.
</event>
<event>
 8    1  0.1099478E+005  0.1043930E+01  0.7957747E-01            NaN
         13   -1    0    0    0    0  0.00000000000E+00  0.00000000000E+00  0.74505805969E-08  0.10566000000E+00  0.10566000000E+00 0.  1.
     999900   -1    0    0    0    0 -0.00000000000E+00 -0.00000000000E+00 -0.74505805969E-08  0.93827000000E+00  0.93827000000E+00 0.  1.
     999902    2    1    2    0    0  0.10317703816E-01  0.19313425686E-02 -0.18545198258E-01  0.10226201555E+01  0.10223980990E+01 0.  0.
     999903    2    3    3    0    0  0.12883189659E+00 -0.22360115188E-01 -0.23555287795E-01  0.13432921786E+00  0.19795324125E-01 0.  0.
         14    1    1    2    0    0 -0.10317703816E-01 -0.19313425686E-02  0.18545198258E-01  0.21309844546E-01  0.00000000000E+00 0.  1.
     999901    1    3    3    0    0 -0.11851419278E+00  0.24291457757E-01  0.50100895368E-02  0.88829093759E+00  0.88000000000E+00 0.  1.
        -11    1    4    4    0    0  0.54400039453E-01 -0.13316077562E-01 -0.19251769136E-01  0.59224774799E-01  0.51100000000E-03 0.  1.
         11    1    4    4    0    0  0.74431857140E-01 -0.90440376263E-02 -0.43035186589E-02  0.75104443063E-01  0.51100000000E-03 0. -1.
</event>
<event>
 8    1  0.1099478E+005  0.1043930E+01  0.7957747E-01            NaN
         13   -1    0    0    0    0  0.00000000000E+00  0.00000000000E+00  0.74505805969E-08  0.10566000000E+00  0.10566000000E+00 0.  1.
     999900   -1    0    0    0    0 -0.00000000000E+00 -0.00000000000E+00 -0.74505805969E-08  0.93827000000E+00  0.93827000000E+00 0. -1.
     999902    2    1    2    0    0 -0.59535582008E-02 -0.19571700857E-01 -0.11889212270E-01  0.10202688568E+01  0.10199944561E+01 0.  0.
     999903    2    3    3    0    0 -0.39659526993E-01 -0.63789640008E-01  0.10522992352E+00  0.13077000325E+00  0.19633152882E-01 0.  0.
         14    1    1    2    0    0  0.59535582008E-02  0.19571700857E-01  0.11889212270E-01  0.23661143212E-01  0.00000000000E+00 0.  1.
     999901    1    3    3    0    0  0.33705968793E-01  0.44217939151E-01 -0.11711913579E+00  0.88949885354E+00  0.88000000000E+00 0. -1.
        -11    1    4    4    0    0 -0.18630228809E-01 -0.46683509779E-01  0.73332778187E-01  0.88906653229E-01  0.51100000000E-03 0.  1.
         11    1    4    4    0    0 -0.21029298184E-01 -0.17106130229E-01  0.31897145336E-01  0.41863350022E-01  0.51100000000E-03 0. -1.
</event>
<event>
 8    1  0.1099478E+005  0.1043930E+01  0.7957747E-01            NaN
         13   -1    0    0    0    0  0.00000000000E+00  0.00000000000E+00  0.74505805969E-08  0.10566000000E+00  0.10566000000E+00 0. -1.
     999900   -1    0    0    0    0 -0.00000000000E+00 -0.00000000000E+00 -0.74505805969E-08  0.93827000000E+00  0.93827000000E+00 0.  1.
     999902    2    1    2    0    0 -0.22978397968E-01 -0.12159371348E-02  0.55478816706E-02  0.10202600979E+01  0.10199854916E+01 0.  0.
     999903    2    3    3    0    0  0.48777761590E-01 -0.99060191197E-01 -0.64159632311E-01  0.12920365633E+00  0.19619757516E-01 0.  0.
         14    1    1    2    0    0  0.22978397968E-01  0.12159371348E-02 -0.55478816706E-02  0.23669902140E-01  0.00000000000E+00 0.  1.
     999901    1    3    3    0    0 -0.71756159558E-01  0.97844254062E-01  0.69707513982E-01  0.89105644153E+00  0.88000000000E+00 0. -1.
        -11    1    4    4    0    0  0.12621730437E-01 -0.14510576495E-01 -0.17848900164E-01  0.26243270899E-01  0.51100000000E-03 0.  1.
         11    1    4    4    0    0  0.36156031153E-01 -0.84549614701E-01 -0.46310732147E-01  0.10296038543E+00  0.51100000000E-03 0. -1.
</event>
<event>
 8    1  0.1099478E+005  0.1043930E+01  0.7957747E-01            NaN
         13   -1    0    0    0    0  0.00000000000E+00  0.00000000000E+00  0.74505805969E-08  0.10566000000E+00  0.10566000000E+00 0. -1.
     999900   -1    0    0    0    0 -0.00000000000E+00 -0.00000000000E+00 -0.74505805969E-08  0.93827000000E+00  0.93827000000E+00 0. -1.
     999902    2    1    2    0    0 -0.28082929958E-02 -0.83118416172E-02 -0.19884284060E-01  0.10221962021E+01  0.10219651254E+01 0.  0.
     999903    2    3    3    0    0  0.11211474581E+00 -0.52125821555E-01 -0.45846844135E-01  0.13326368256E+00  0.19247297753E-01 0.  0.
         14    1    1    2    0    0  0.28082929958E-02  0.83118416172E-02  0.19884284060E-01  0.21733797947E-01  0.00000000000E+00 0. -1.
     999901    1    3    3    0    0 -0.11492303881E+00  0.43813979937E-01  0.25962560075E-01  0.88893251949E+00  0.88000000000E+00 0.  1.
        -11    1    4    4    0    0  0.10125422637E+00 -0.40190563194E-01 -0.41100303823E-01  0.11643537187E+00  0.51100000000E-03 0. -1.
         11    1    4    4    0    0  0.10860519448E-01 -0.11935258360E-01 -0.47465403122E-02  0.16828310692E-01  0.51100000000E-03 0.  1.
</event>
<event>
 8    1  0.1099478E+005  0.1043930E+01  0.7957747E-01            NaN
         13   -1    0    0    0    0  0.00000000000E+00  0.00000000000E+00  0.74505805969E-08  0.10566000000E+00  0.10566000000E+00 0.  1.
     999900   -1    0    0    0    0 -0.00000000000E+00 -0.00000000000E+00 -0.74505805969E-08  0.93827000000E+00  0.93827000000E+00 0. -1.
     999902    2    1    2    0    0  0.16502508538E-01 -0.11386095043E-01 -0.14412997054E-01  0.10192376847E+01  0.10189385396E+01 0.  0.
     999903    2    3    3    0    0  0.83715354901E-01  0.78524468674E-02  0.96158303520E-01  0.12956712734E+00  0.21709435349E-01 0.  0.
         14    1    1    2    0    0 -0.16502508538E-01  0.11386095043E-01  0.14412997054E-01  0.24692315251E-01  0.00000000000E+00 0.  1.
     999901    1    3    3    0    0 -0.67212846363E-01 -0.19238541910E-01 -0.11057130057E+00  0.88967055741E+00  0.88000000000E+00 0. -1.
        -11    1    4    4    0    0  0.68025634316E-01  0.14627681923E-01  0.80215734207E-01  0.10618983538E+00  0.51100000000E-03 0. -1.
         11    1    4    4    0    0  0.15689720585E-01 -0.67752350555E-02  0.15942569313E-01  0.23377291960E-01  0.51100000000E-03 0.  1.
</event>
<event>
 8    1  0.1099478E+005  0.1043930E+01  0.7957747E-01            NaN
         13   -1    0    0    0    0  0.00000000000E+00  0.00000000000E+00  0.74505805969E-08  0.10566000000E+00  0.10566000000E+00 0.  1.
     999900   -1    0    0    0    0 -0.00000000000E+00 -0.00000000000E+00 -0.74505805969E-08  0.93827000000E+00  0.93827000000E+00 0. -1.
     999902    2    1    2    0    0  0.11964316907E-01 -0.18910070883E-01  0.86147988632E-02  0.10199518762E+01  0.10196699855E+01 0.  0.
     999903    2    3    3    0    0 -0.90601469212E-01  0.78761489989E-01  0.39951235881E-01  0.12807663464E+00  0.19887799362E-01 0.  0.
         14    1    1    2    0    0 -0.11964316907E-01  0.18910070883E-01 -0.86147988632E-02  0.23978123765E-01  0.00000000000E+00 0. -1.
     999901    1    3    3    0    0  0.10256578612E+00 -0.97671560873E-01 -0.31336437018E-01  0.89187524160E+00  0.88000000000E+00 0.  1.
        -11    1    4    4    0    0 -0.30264900807E-02  0.10998914494E-02 -0.18939684742E-02  0.37706287262E-02  0.51100000000E-03 0. -1.
         11    1    4    4    0    0 -0.87574979131E-01  0.77661598540E-01  0.41845204355E-01  0.12430600591E+00  0.51100000000E-03 0.  1.
</event>
<event>
 7    1  0.1099478E+005  0.1043930E+01  0.7957747E-01            NaN
         13   -1    0    0    0    0  0.00000000000E+00  0.00000000000E+00  0.74505805969E-08  0.10566000000E+00  0.10566000000E+00 0. -1.
     999900   -1    0    0    0    0 -0.00000000000E+00 -0.00000000000E+00 -0.74505805969E-08  0.93827000000E+00  0.93827000000E+00 0.  1.
     999903    2    1    2    0    0  0.24270208902E-01 -0.12932055743E-01 -0.11219080664E+00  0.11752739492E+00  0.21670956490E-01 0.  0.
         14    1    1    2    0    0  0.20803794949E-01 -0.24252122841E-01  0.24207484780E-01  0.40086976264E-01  0.00000000000E+00 0. -1.
     999901    1    1    2    0    0 -0.45074003851E-01  0.37184178584E-01  0.87983321863E-01  0.88631562882E+00  0.88000000000E+00 0. -1.
        -11    1    3    3    0    0  0.14347224929E-01 -0.15532548919E-01 -0.47098521674E-01  0.51629786015E-01  0.51100000000E-03 0. -1.
         11    1    3    3    0    0  0.99229839730E-02  0.26004931758E-02 -0.65092284969E-01  0.65897608904E-01  0.51100000000E-03 0.  1.
</event>
<event>
 8    1  0.1099478E+005  0.1043930E+01  0.7957747E-01            NaN
         13   -1    0    0    0    0  0.00000000000E+00  0.00000000000E+00  0.74505805969E-08  0.10566000000E+00  0.10566000000E+00 0.  1.
     999900   -1    0    0    0    0 -0.00000000000E+00 -0.00000000000E+00 -0.74505805969E-08  0.93827000000E+00  0.93827000000E+00 0.  1.
     999902    2    1    2    0    0  0.16156109021E-01 -0.87419623417E-02  0.14254338070E-01  0.10206785932E+01  0.10204137213E+01 0.  0.
     999903    2    3    3    0    0  0.31959228281E-01 -0.12661906047E+00  0.84779213575E-02  0.13265938404E+00  0.21745304712E-01 0.  0.
         14    1    1    2    0    0 -0.16156109021E-01  0.87419623417E-02 -0.14254338070E-01  0.23251406798E-01  0.00000000000E+00 0. -1.
     999901    1    3    3    0    0 -0.15803119260E-01  0.11787709813E+00  0.57764167122E-02  0.88801920916E+00  0.88000000000E+00 0.  1.
        -11    1    4    4    0    0  0.23296309276E-01 -0.64253145834E-01  0.12832522683E-01  0.69542214049E-01  0.51100000000E-03 0.  1.
         11    1    4    4    0    0  0.86629190053E-02 -0.62365914640E-01 -0.43546013257E-02  0.63117169996E-01  0.51100000000E-03 0. -1.
</event>
<event>
 8    1  0.1099478E+005  0.1043930E+01  0.7957747E-01            NaN
         13   -1    0    0    0    0  0.00000000000E+00  0.00000000000E+00  0.74505805969E-08  0.10566000000E+00  0.10566000000E+00 0.  1.
     999900   -1    0    0    0    0 -0.00000000000E+00 -0.00000000000E+00 -0.74505805969E-08  0.93827000000E+00  0.93827000000E+00 0. -1.
     999902    2    1    2    0    0 -0.15272068553E-01  0.10431772583E-01 -0.13440274029E-01  0.10210673903E+01  0.10208114011E+01 0.  0.
     999903    2    3    3    0    0  0.30292697668E-02  0.11322512526E+00 -0.67272311860E-01  0.13326149898E+00  0.20098699005E-01 0.  0.
         14    1    1    2    0    0  0.15272068553E-01 -0.10431772583E-01  0.13440274029E-01  0.22862609717E-01  0.00000000000E+00 0.  1.
     999901    1    3    3    0    0 -0.18301338320E-01 -0.10279335268E+00  0.53832037832E-01  0.88780589130E+00  0.88000000000E+00 0.  1.
        -11    1    4    4    0    0  0.90202323582E-02  0.46138902535E-01 -0.20682926642E-01  0.51363484056E-01  0.51100000000E-03 0.  1.
         11    1    4    4    0    0 -0.59909625914E-02  0.67086222724E-01 -0.46589385218E-01  0.81898014922E-01  0.51100000000E-03 0. -1.
</event>
<event>
 8    1  0.1099478E+005  0.1043930E+01  0.7957747E-01            NaN
         13   -1    0    0    0    0  0.00000000000E+00  0.00000000000E+00  0.74505805969E-08  0.10566000000E+00  0.10566000000E+00 0. -1.
     999900   -1    0    0    0    0 -0.00000000000E+00 -0.00000000000E+00 -0.74505805969E-08  0.93827000000E+00  0.93827000000E+00 0. -1.
     999902    2    1    2    0    0  0.62640896837E-02 -0.13585807497E-01 -0.18506584073E-01  0.10201328019E+01  0.10198551989E+01 0.  0.
     999903    2    3    3    0    0 -0.34803623247E-01 -0.77026254544E-01 -0.99442112110E-01  0.13319322835E+00  0.26596359489E-01 0.  0.
         14    1    1    2    0    0 -0.62640896837E-02  0.13585807497E-01  0.18506584073E-01  0.23797198132E-01  0.00000000000E+00 0. -1.
     999901    1    3    3    0    0  0.41067712930E-01  0.63440447048E-01  0.80935528037E-01  0.88693957351E+00  0.88000000000E+00 0. -1.
        -11    1    4    4    0    0 -0.13165928474E-02 -0.32583996015E-01 -0.42530142249E-01  0.53595935795E-01  0.51100000000E-03 0. -1.
         11    1    4    4    0    0 -0.33487030399E-01 -0.44442258529E-01 -0.56911969861E-01  0.79597292558E-01  0.51100000000E-03 0.  1.
</event>
<event>
 8    1  0.1099478E+005  0.1043930E+01  0.7957747E-01            NaN
         13   -1    0    0    0    0  0.00000000000E+00  0.00000000000E+00  0.74505805969E-08  0.10566000000E+00  0.10566000000E+00 0. -1.
     999900   -1    0    0    0    0 -0.00000000000E+00 -0.00000000000E+00 -0.74505805969E-08  0.93827000000E+00  0.93827000000E+00 0.  1.
     999902    2    1    2    0    0 -0.52476025200E-02  0.93483363246E-02 -0.21311069263E-01  0.10200743844E+01  0.10197954007E+01 0.  0.
     999903    2    3    3    0    0  0.12661381046E+00 -0.12275788302E-01 -0.17667245185E-01  0.12997983183E+00  0.20021816894E-01 0.  0.
         14    1    1    2    0    0  0.52476025200E-02 -0.93483363246E-02  0.21311069263E-01  0.23855615636E-01  0.00000000000E+00 0. -1.
     999901    1    3    3    0    0 -0.13186141298E+00  0.21624124626E-01 -0.36438240781E-02  0.89009455254E+00  0.88000000000E+00 0.  1.
        -11    1    4    4    0    0  0.72415610508E-01  0.14283278597E-02 -0.46653525304E-02  0.72581591337E-01  0.51100000000E-03 0.  1.
         11    1    4    4    0    0  0.54198199953E-01 -0.13704116161E-01 -0.13001892654E-01  0.57398240492E-01  0.51100000000E-03 0. -1.
</event>
<event>
 8    1  0.1099478E+005  0.1043930E+01  0.7957747E-01            NaN
         13   -1    0    0    0    0  0.00000000000E+00  0.00000000000E+00  0.74505805969E-08  0.10566000000E+00  0.10566000000E+00 0. -1.
     999900   -1    0    0    0    0 -0.00000000000E+00 -0.00000000000E+00 -0.74505805969E-08  0.93827000000E+00  0.93827000000E+00 0. -1.
     999902    2    1    2    0    0 -0.14796733899E-01 -0.20928157191E-02  0.18211394757E-01  0.10203720266E+01  0.10201000414E+01 0.  0.
     999903    2    3    3    0    0  0.90175723779E-01  0.75664782824E-01  0.51674689154E-01  0.13009945425E+00  0.19969325947E-01 0.  0.
         14    1    1    2    0    0  0.14796733899E-01  0.20928157191E-02 -0.18211394757E-01  0.23557973400E-01  0.00000000000E+00 0.  1.
     999901    1    3    3    0    0 -0.10497245768E+00 -0.77757598543E-01 -0.33463294397E-01  0.89027257235E+00  0.88000000000E+00 0.  1.
        -11    1    4    4    0    0  0.31475140716E-01  0.24321119865E-01  0.75387044722E-02  0.40488202488E-01  0.51100000000E-03 0.  1.
         11    1    4    4    0    0  0.58700583063E-01  0.51343662958E-01  0.44135984682E-01  0.89611251764E-01  0.51100000000E-03 0. -1.
</event>
<event>
 8    1  0.1099478E+005  0.1043930E+01  0.7957747E-01            NaN
         13   -1    0    0    0    0  0.00000000000E+00  0.00000000000E+00  0.74505805969E-08  0.10566000000E+00  0.10566000000E+00 0. -1.
     999900   -1    0    0    0    0 -0.00000000000E+00 -0.00000000000E+00 -0.74505805969E-08  0.93827000000E+00  0.93827000000E+00 0. -1.
     999902    2    1    2    0    0 -0.71504313617E-02 -0.90522089481E-02 -0.20475444312E-01  0.10204286176E+01  0.10201579528E+01 0.  0.
     999903    2    3    3    0    0 -0.81467253554E-01  0.33199759081E-01  0.92347261035E-01  0.12911656129E+00  0.20098068904E-01 0.  0.
         14    1    1    2    0    0  0.71504313617E-02  0.90522089481E-02  0.20475444312E-01  0.23501382412E-01  0.00000000000E+00 0. -1.
     999901    1    3    3    0    0  0.74316822192E-01 -0.42251968029E-01 -0.11282270535E+00  0.89131205630E+00  0.88000000000E+00 0. -1.
        -11    1    4    4    0    0 -0.38488774198E-01  0.53993256013E-02  0.35830246250E-01  0.52864034310E-01  0.51100000000E-03 0. -1.
         11    1    4    4    0    0 -0.42978479356E-01  0.27800433479E-01  0.56517014785E-01  0.76252526978E-01  0.51100000000E-03 0.  1.
</event>
<event>
 8    1  0.1099478E+005  0.1043930E+01  0.7957747E-01            NaN
         13   -1    0    0    0    0  0.00000000000E+00  0.00000000000E+00  0.74505805969E-08  0.10566000000E+00  0.10566000000E+00 0. -1.
     999900   -1    0    0    0    0 -0.00000000000E+00 -0.00000000000E+00 -0.74505805969E-08  0.93827000000E+00  0.93827000000E+00 0. -1.
     999902    2    1    2    0    0  0.67134893375E-02 -0.15366402407E-01  0.19966265636E-01  0.10178560853E+01  0.10175220693E+01 0.  0.
     999903    2    3    3    0    0 -0.34197952085E-01 -0.57420819926E-01  0.11122719633E+00  0.13119330980E+00  0.19327308242E-01 0.  0.
         14    1    1    2    0    0 -0.67134893375E-02  0.15366402407E-01 -0.19966265636E-01  0.26073914655E-01  0.00000000000E+00 0.  1.
     999901    1    3    3    0    0  0.40911441423E-01  0.42054417519E-01 -0.91260930695E-01  0.88666277555E+00  0.88000000000E+00 0. -1.
        -11    1    4    4    0    0 -0.26821090171E-01 -0.31728386431E-01  0.54964777509E-01  0.68901736343E-01  0.51100000000E-03 0. -1.
         11    1    4    4    0    0 -0.73768619145E-02 -0.25692433495E-01  0.56262418821E-01  0.62291573453E-01  0.51100000000E-03 0.  1.
</event>
<event>
 8    1  0.1099478E+005  0.1043930E+01  0.7957747E-01            NaN
         13   -1    0    0    0    0  0.00000000000E+00  0.00000000000E+00  0.74505805969E-08  0.10566000000E+00  0.10566000000E+00 0. -1.
     999900   -1    0    0    0    0 -0.00000000000E+00 -0.00000000000E+00 -0.74505805969E-08  0.93827000000E+00  0.93827000000E+00 0.  1.
     999902    2    1    2    0    0  0.14559385428E-03  0.20607656517E-01  0.95860364663E-02  0.10212014101E+01  0.10209484469E+01 0.  0.
     999903    2    3    3    0    0  0.72193321869E-01 -0.99364014246E-01 -0.34233672383E-01  0.12906675445E+00  0.20029970764E-01 0.  0.
         14    1    1    2    0    0 -0.14559385428E-03 -0.20607656517E-01 -0.95860364663E-02  0.22728589922E-01  0.00000000000E+00 0.  1.
     999901    1    3    3    0    0 -0.72047728014E-01  0.11997167076E+00  0.43819708850E-01  0.89213465563E+00  0.88000000000E+00 0. -1.
        -11    1    4    4    0    0  0.50677939981E-01 -0.69253220892E-01 -0.33277937497E-01  0.92043166230E-01  0.51100000000E-03 0.  1.
         11    1    4    4    0    0  0.21515381887E-01 -0.30110793354E-01 -0.95573488603E-03  0.37023588215E-01  0.51100000000E-03 0. -1.
</event>
<event>
 8    1  0.1099478E+005  0.1043930E+01  0.7957747E-01            NaN
         13   -1    0    0    0    0  0.00000000000E+00  0.00000000000E+00  0.74505805969E-08  0.10566000000E+00  0.10566000000E+00 0.  1.
     999900   -1    0    0    0    0 -0.00000000000E+00 -0.00000000000E+00 -0.74505805969E-08  0.93827000000E+00  0.93827000000E+00 0.  1.
     999902    2    1    2    0    0  0.19315923118E-01 -0.10906491189E-01  0.74411640680E-02  0.10205328344E+01  0.10202645925E+01 0.  0.
     999903    2    3    3    0    0  0.99828999974E-01  0.79517395749E-01  0.27385847356E-01  0.13201911741E+00  0.19753917663E-01 0.  0.
         14    1    1    2    0    0 -0.19315923118E-01  0.10906491189E-01 -0.74411640680E-02  0.23397165612E-01  0.00000000000E+00 0.  1.
     999901    1    3    3    0    0 -0.80513076855E-01 -0.90423886938E-01 -0.19944683288E-01  0.88851371698E+00  0.88000000000E+00 0.  1.
        -11    1    4    4    0    0  0.31834768229E-01  0.33687194381E-01  0.16969119680E-01  0.49360831407E-01  0.51100000000E-03 0.  1.
         11    1    4    4    0    0  0.67994231744E-01  0.45830201367E-01  0.10416727675E-01  0.82658285999E-01  0.51100000000E-03 0. -1.
</event>
<event>
 8    1  0.1099478E+005  0.1043930E+01  0.7957747E-01            NaN
         13   -1    0    0    0    0  0.00000000000E+00  0.00000000000E+00  0.74505805969E-08  0.10566000000E+00  0.10566000000E+00 0. -1.
     999900   -1    0    0    0    0 -0.00000000000E+00 -0.00000000000E+00 -0.74505805969E-08  0.93827000000E+00  0.93827000000E+00 0.  1.
     999902    2    1    2    0    0 -0.11253750851E-01 -0.20297672655E-01  0.42400791024E-02  0.10203371898E+01  0.10200643902E+01 0.  0.
     999903    2    3    3    0    0 -0.62991484162E-01  0.11086260690E+00 -0.13590717528E-02  0.12909582939E+00  0.20135575566E-01 0.  0.
         14    1    1    2    0    0  0.11253750851E-01  0.20297672655E-01 -0.42400791024E-02  0.23592810223E-01  0.00000000000E+00 0.  1.
     999901    1    3    3    0    0  0.51737733311E-01 -0.13116027955E+00  0.55991508552E-02  0.89124136039E+00  0.88000000000E+00 0. -1.
        -11    1    4    4    0    0 -0.93361270933E-02  0.77803862859E-02 -0.41458942806E-02  0.12850962619E-01  0.51100000000E-03 0.  1.
         11    1    4    4    0    0 -0.53655357069E-01  0.10308222061E+00  0.27868225277E-02  0.11624486677E+00  0.51100000000E-03 0. -1.
</event>
<event>
 8    1  0.1099478E+005  0.1043930E+01  0.7957747E-01            NaN
         13   -1    0    0    0    0  0.00000000000E+00  0.00000000000E+00  0.74505805969E-08  0.10566000000E+00  0.10566000000E+00 0. -1.
     999900   -1    0    0    0    0 -0.00000000000E+00 -0.00000000000E+00 -0.74505805969E-08  0.93827000000E+00  0.93827000000E+00 0.  1.
     999902    2    1    2    0    0  0.16072787658E-01  0.16897793433E-01  0.46959081297E-02  0.10201408958E+01  0.10198634839E+01 0.  0.
     999903    2    3    3    0    0 -0.60627347274E-01 -0.74752925765E-01  0.82975453939E-01  0.12861947018E+00  0.19858675819E-01 0.  0.
         14    1    1    2    0    0 -0.16072787658E-01 -0.16897793433E-01 -0.46959081297E-02  0.23789104211E-01  0.00000000000E+00 0.  1.
     999901    1    3    3    0    0  0.76700134932E-01  0.91650719197E-01 -0.78279545809E-01  0.89152142561E+00  0.88000000000E+00 0.  1.
        -11    1    4    4    0    0 -0.20202322260E-01 -0.22570372965E-01  0.38644382866E-01  0.49104022326E-01  0.51100000000E-03 0.  1.
         11    1    4    4    0    0 -0.40425025014E-01 -0.52182552799E-01  0.44331071073E-01  0.79515447855E-01  0.51100000000E-03 0. -1.
</event>
<event>
 8    1  0.1099478E+005  0.1043930E+01  0.7957747E-01            NaN
         13   -1    0    0    0    0  0.00000000000E+00  0.00000000000E+00  0.74505805969E-08  0.10566000000E+00  0.10566000000E+00 0. -1.
     999900   -1    0    0    0    0 -0.00000000000E+00 -0.00000000000E+00 -0.74505805969E-08  0.93827000000E+00  0.93827000000E+00 0.  1.
     999902    2    1    2    0    0 -0.22382432606E-01  0.33595958425E-02 -0.48630919106E-02  0.10207802735E+01  0.10205177397E+01 0.  0.
     999903    2    3    3    0    0 -0.76987660301E-01 -0.79772830759E-01 -0.70173547391E-01  0.13277228546E+00  0.20330978024E-01 0.  0.
         14    1    1    2    0    0  0.22382432606E-01 -0.33595958425E-02  0.48630919106E-02  0.23149726489E-01  0.00000000000E+00 0.  1.
     999901    1    3    3    0    0  0.54605227694E-01  0.83132426601E-01  0.65310455480E-01  0.88800798805E+00  0.88000000000E+00 0. -1.
        -11    1    4    4    0    0 -0.39058710390E-01 -0.54036646676E-01 -0.45415881182E-01  0.80674688880E-01  0.51100000000E-03 0. -1.
         11    1    4    4    0    0 -0.37928949911E-01 -0.25736184083E-01 -0.24757666209E-01  0.52097596582E-01  0.51100000000E-03 0.  1.
</event>
<event>
 8    1  0.1099478E+005  0.1043930E+01  0.7957747E-01            NaN
         13   -1    0    0    0    0  0.00000000000E+00  0.00000000000E+00  0.74505805969E-08  0.10566000000E+00  0.10566000000E+00 0. -1.
     999900   -1    0    0    0    0 -0.00000000000E+00 -0.00000000000E+00 -0.74505805969E-08  0.93827000000E+00  0.93827000000E+00 0.  1.
     999902    2    1    2    0    0  0.32009589508E-02 -0.24277670020E-01  0.12279591550E-02  0.10194114502E+01  0.10191165515E+01 0.  0.
     999903    2    3    3    0    0  0.74582455853E-01  0.27560784776E-01  0.10018992824E+00  0.12948110754E+00  0.20129478598E-01 0.  0.
         14    1    1    2    0    0 -0.32009589508E-02  0.24277670020E-01 -0.12279591550E-02  0.24518549784E-01  0.00000000000E+00 0.  1.
     999901    1    3    3    0    0 -0.71381496902E-01 -0.51838454796E-01 -0.98961969090E-01  0.88993034268E+00  0.88000000000E+00 0.  1.
        -11    1    4    4    0    0  0.50617167330E-01  0.27857122068E-01  0.75448689820E-01  0.95030957035E-01  0.51100000000E-03 0. -1.
         11    1    4    4    0    0  0.23965288523E-01 -0.29633729221E-03  0.24741238425E-01  0.34450150501E-01  0.51100000000E-03 0.  1.
</event>
<event>
 8    1  0.1099478E+005  0.1043930E+01  0.7957747E-01            NaN
         13   -1    0    0    0    0  0.00000000000E+00  0.00000000000E+00  0.74505805969E-08  0.10566000000E+00  0.10566000000E+00 0. -1.
     999900   -1    0    0    0    0 -0.00000000000E+00 -0.00000000000E+00 -0.74505805969E-08  0.93827000000E+00  0.93827000000E+00 0. -1.
     999902    2    1    2    0    0  0.19619894573E-01 -0.55698601932E-02 -0.14121234153E-01  0.10191232900E+01  0.10188213324E+01 0.  0.
     999903    2    3    3    0    0 -0.21813745766E-01 -0.19443706105E-02  0.12393839847E+00  0.12738882681E+00  0.19686708701E-01 0.  0.
         14    1    1    2    0    0 -0.19619894573E-01  0.55698601932E-02  0.14121234153E-01  0.24806709972E-01  0.00000000000E+00 0.  1.
     999901    1    3    3    0    0  0.41433640339E-01 -0.36254895827E-02 -0.13805963262E+00  0.89173446322E+00  0.88000000000E+00 0. -1.
        -11    1    4    4    0    0 -0.87002628294E-02 -0.48927323976E-02  0.17904812454E-01  0.20505531781E-01  0.51100000000E-03 0.  1.
         11    1    4    4    0    0 -0.13113482937E-01  0.29483617872E-02  0.10603358602E+00  0.10688329503E+00  0.51100000000E-03 0. -1.
</event>
<event>
 8    1  0.1099478E+005  0.1043930E+01  0.7957747E-01            NaN
         13   -1    0    0    0    0  0.00000000000E+00  0.00000000000E+00  0.74505805969E-08  0.10566000000E+00  0.10566000000E+00 0. -1.
     999900   -1    0    0    0    0 -0.00000000000E+00 -0.00000000000E+00 -0.74505805969E-08  0.93827000000E+00  0.93827000000E+00 0. -1.
     999902    2    1    2    0    0 -0.17599262880E-01  0.19643834751E-01  0.30066203791E-03  0.10175537854E+01  0.10172118764E+01 0.  0.
     999903    2    3    3    0    0  0.46035384237E-01 -0.11424337285E+00  0.83158694644E-02  0.12511925213E+00  0.20368326563E-01 0.  0.
         14    1    1    2    0    0  0.17599262880E-01 -0.19643834751E-01 -0.30066203791E-03  0.26376214575E-01  0.00000000000E+00 0.  1.
     999901    1    3    3    0    0 -0.63634647117E-01  0.13388720760E+00 -0.80152074265E-02  0.89243453330E+00  0.88000000000E+00 0. -1.
        -11    1    4    4    0    0  0.61819938676E-02 -0.34065110550E-01 -0.35127546810E-02  0.34803008080E-01  0.51100000000E-03 0. -1.
         11    1    4    4    0    0  0.39853390369E-01 -0.80178262296E-01  0.11828624145E-01  0.90316244048E-01  0.51100000000E-03 0.  1.
</event>
<event>
 8    1  0.1099478E+005  0.1043930E+01  0.7957747E-01            NaN
         13   -1    0    0    0    0  0.00000000000E+00  0.00000000000E+00  0.74505805969E-08  0.10566000000E+00  0.10566000000E+00 0. -1.
     999900   -1    0    0    0    0 -0.00000000000E+00 -0.00000000000E+00 -0.74505805969E-08  0.93827000000E+00  0.93827000000E+00 0.  1.
     999902    2    1    2    0    0  0.18366285310E-01  0.10360228930E-01  0.83136766528E-03  0.10228267786E+01  0.10226090520E+01 0.  0.
     999903    2    3    3    0    0  0.11772125404E-01  0.13247453343E+00 -0.36225378372E-02  0.13435887062E+00  0.18737619612E-01 0.  0.
         14    1    1    2    0    0 -0.18366285310E-01 -0.10360228930E-01 -0.83136766528E-03  0.21103221360E-01  0.00000000000E+00 0.  1.
     999901    1    3    3    0    0  0.65941599051E-02 -0.12211430450E+00  0.44539055025E-02  0.88846790802E+00  0.88000000000E+00 0.  1.
        -11    1    4    4    0    0  0.13125161593E-01  0.46661664688E-01 -0.52800149118E-03  0.48478043740E-01  0.51100000000E-03 0. -1.
         11    1    4    4    0    0 -0.13530361883E-02  0.85812868745E-01 -0.30945363460E-02  0.85880826879E-01  0.51100000000E-03 0.  1.
</event>
<event>
 8    1  0.1099478E+005  0.1043930E+01  0.7957747E-01            NaN
         13   -1    0    0    0    0  0.00000000000E+00  0.00000000000E+00  0.74505805969E-08  0.10566000000E+00  0.10566000000E+00 0. -1.
     999900   -1    0    0    0    0 -0.00000000000E+00 -0.00000000000E+00 -0.74505805969E-08  0.93827000000E+00  0.93827000000E+00 0. -1.
     999902    2    1    2    0    0 -0.11679468158E-01 -0.19480748024E-01 -0.25026826600E-03  0.10212149795E+01  0.10209623217E+01 0.  0.
     999903    2    3    3    0    0 -0.65809163111E-01  0.86587289632E-01 -0.67248554583E-01  0.13067063879E+00  0.26911764572E-01 0.  0.
         14    1    1    2    0    0  0.11679468158E-01  0.19480748024E-01  0.25026826600E-03  0.22715020454E-01  0.00000000000E+00 0.  1.
     999901    1    3    3    0    0  0.54129694953E-01 -0.10606803766E+00  0.66998286317E-01  0.89054434076E+00  0.88000000000E+00 0. -1.
        -11    1    4    4    0    0 -0.51033760004E-01  0.56885767479E-01 -0.33822040958E-01  0.83574079578E-01  0.51100000000E-03 0. -1.
         11    1    4    4    0    0 -0.14775403107E-01  0.29701522153E-01 -0.33426513625E-01  0.47096559209E-01  0.51100000000E-03 0.  1.
</event>
<event>
 8    1  0.1099478E+005  0.1043930E+01  0.7957747E-01            NaN
         13   -1    0    0    0    0  0.00000000000E+00  0.00000000000E+00  0.74505805969E-08  0.10566000000E+00  0.10566000000E+00 0. -1.
     999900   -1    0    0    0    0 -0.00000000000E+00 -0.00000000000E+00 -0.74505805969E-08  0.93827000000E+00  0.93827000000E+00 0. -1.
     999902    2    1    2    0    0  0.71148692426E-02  0.14919992094E-01 -0.16255620093E-01  0.10207465423E+01  0.10204832340E+01 0.  0.
     999903    2    3    3    0    0 -0.22021196262E-01  0.93990068953E-01 -0.90876705812E-01  0.13357728343E+00  0.16286461949E-01 0.  0.
         14    1    1    2    0    0 -0.71148692426E-02 -0.14919992094E-01  0.16255620093E-01  0.23183457745E-01  0.00000000000E+00 0. -1.
     999901    1    3    3    0    0  0.29136065505E-01 -0.79070076860E-01  0.74621085719E-01  0.88716925882E+00  0.88000000000E+00 0.  1.
        -11    1    4    4    0    0 -0.15544008328E-01  0.33388167236E-01 -0.37430619131E-01  0.52513791292E-01  0.51100000000E-03 0. -1.
         11    1    4    4    0    0 -0.64771879347E-02  0.60601901717E-01 -0.53446086681E-01  0.81063492139E-01  0.51100000000E-03 0.  1.
</event>
<event>
 8    1  0.1099478E+005  0.1043930E+01  0.7957747E-01            NaN
         13   -1    0    0    0    0  0.00000000000E+00  0.00000000000E+00  0.74505805969E-08  0.10566000000E+00  0.10566000000E+00 0.  1.
     999900   -1    0    0    0    0 -0.00000000000E+00 -0.00000000000E+00 -0.74505805969E-08  0.93827000000E+00  0.93827000000E+00 0. -1.
     999902    2    1    2    0    0  0.46797503053E-02 -0.19451358934E-01 -0.12574029941E-01  0.10203003226E+01  0.10200266597E+01 0.  0.
     999903    2    3    3    0    0  0.52293424355E-01  0.44458986929E-01  0.10690892004E+00  0.12865702526E+00  0.20295546723E-01 0.  0.
         14    1    1    2    0    0 -0.46797503053E-02  0.19451358934E-01  0.12574029941E-01  0.23629677448E-01  0.00000000000E+00 0.  1.
     999901    1    3    3    0    0 -0.47613674050E-01 -0.63910345863E-01 -0.11948294998E+00  0.89164329729E+00  0.88000000000E+00 0. -1.
        -11    1    4    4    0    0  0.29450608640E-01  0.20849177997E-01  0.73049913972E-01  0.81477466975E-01  0.51100000000E-03 0. -1.
         11    1    4    4    0    0  0.22842815715E-01  0.23609808932E-01  0.33859006064E-01  0.47179558288E-01  0.51100000000E-03 0.  1.
</event>
<event>
 8    1  0.1099478E+005  0.1043930E+01  0.7957747E-01            NaN
         13   -1    0    0    0    0  0.00000000000E+00  0.00000000000E+00  0.74505805969E-08  0.10566000000E+00  0.10566000000E+00 0. -1.
     999900   -1    0    0    0    0 -0.00000000000E+00 -0.00000000000E+00 -0.74505805969E-08  0.93827000000E+00  0.93827000000E+00 0. -1.
     999902    2    1    2    0    0 -0.55063930866E-02  0.65170092360E-02 -0.23283596980E-01  0.10191324666E+01  0.10188307351E+01 0.  0.
     999903    2    3    3    0    0 -0.96278487417E-01  0.82231144908E-01  0.22233122910E-01  0.13006330437E+00  0.19764692169E-01 0.  0.
         14    1    1    2    0    0  0.55063930866E-02 -0.65170092360E-02  0.23283596980E-01  0.24797533396E-01  0.00000000000E+00 0. -1.
     999901    1    3    3    0    0  0.90772094331E-01 -0.75714135672E-01 -0.45516719890E-01  0.88906916224E+00  0.88000000000E+00 0. -1.
        -11    1    4    4    0    0 -0.63537485158E-01  0.65153801096E-01  0.12415989234E-01  0.91850137328E-01  0.51100000000E-03 0. -1.
         11    1    4    4    0    0 -0.32741002259E-01  0.17077343811E-01  0.98171336765E-02  0.38213167040E-01  0.51100000000E-03 0.  1.
</event>
<event>
 8    1  0.1099478E+005  0.1043930E+01  0.7957747E-01            NaN
         13   -1    0    0    0    0  0.00000000000E+00  0.00000000000E+00  0.74505805969E-08  0.10566000000E+00  0.10566000000E+00 0.  1.
     999900   -1    0    0    0    0 -0.00000000000E+00 -0.00000000000E+00 -0.74505805969E-08  0.93827000000E+00  0.93827000000E+00 0.  1.
     999902    2    1    2    0    0  0.22926114860E-01 -0.14148350914E-02 -0.73951706635E-02  0.10197991681E+01  0.10195136321E+01 0.  0.
     999903    2    3    3    0    0  0.79825225343E-01 -0.90569513793E-02  0.10155718212E+00  0.13122360803E+00  0.21252743190E-01 0.  0.
         14    1    1    2    0    0 -0.22926114860E-01  0.14148350914E-02  0.73951706635E-02  0.24130831939E-01  0.00000000000E+00 0.  1.
     999901    1    3    3    0    0 -0.56899110483E-01  0.76421162880E-02 -0.10895235279E+00  0.88857556004E+00  0.88000000000E+00 0.  1.
        -11    1    4    4    0    0  0.60736198485E-01 -0.99217989643E-02  0.89518580854E-01  0.10863316869E+00  0.51100000000E-03 0. -1.
         11    1    4    4    0    0  0.19089026858E-01  0.86484758499E-03  0.12038601269E-01  0.22590439333E-01  0.51100000000E-03 0.  1.
</event>
<event>
 8    1  0.1099478E+005  0.1043930E+01  0.7957747E-01            NaN
         13   -1    0    0    0    0  0.00000000000E+00  0.00000000000E+00  0.74505805969E-08  0.10566000000E+00  0.10566000000E+00 0.  1.
     999900   -1    0    0    0    0 -0.00000000000E+00 -0.00000000000E+00 -0.74505805969E-08  0.93827000000E+00  0.93827000000E+00 0.  1.
     999902    2    1    2    0    0  0.51860855944E-02  0.40711306289E-02  0.22706779086E-01  0.10202853937E+01  0.10200113810E+01 0.  0.
     999903    2    3    3    0    0 -0.64179423453E-01 -0.95557879649E-01 -0.53468091192E-01  0.12869124594E+00  0.21267187146E-01 0.  0.
         14    1    1    2    0    0 -0.51860855944E-02 -0.40711306289E-02 -0.22706779086E-01  0.23644606253E-01  0.00000000000E+00 0. -1.
     999901    1    3    3    0    0  0.69365509048E-01  0.99629010278E-01  0.76174870278E-01  0.89159414780E+00  0.88000000000E+00 0. -1.
        -11    1    4    4    0    0 -0.58615497159E-01 -0.91582812180E-01 -0.54708431818E-01  0.12172288867E+00  0.51100000000E-03 0.  1.
         11    1    4    4    0    0 -0.55639262939E-02 -0.39750674698E-02  0.12403406254E-02  0.69683572713E-02  0.51100000000E-03 0. -1.
</event>
<event>
 7    1  0.1099478E+005  0.1043930E+01  0.7957747E-01            NaN
         13   -1    0    0    0    0  0.00000000000E+00  0.00000000000E+00  0.74505805969E-08  0.10566000000E+00  0.10566000000E+00 0.  1.
     999900   -1    0    0    0    0 -0.00000000000E+00 -0.00000000000E+00 -0.74505805969E-08  0.93827000000E+00  0.93827000000E+00 0. -1.
     999903    2    1    2    0    0 -0.35412352743E-01  0.93375536991E-01 -0.29910073424E-01  0.10605383618E+00  0.19487894738E-01 0.  0.
         14    1    1    2    0    0 -0.17951112059E-01 -0.16062811414E-01 -0.43617423513E-01  0.49827060606E-01  0.00000000000E+00 0. -1.
     999901    1    1    2    0    0  0.53363464803E-01 -0.77312725577E-01  0.73527496937E-01  0.88804910321E+00  0.88000000000E+00 0.  1.
        -11    1    3    3    0    0 -0.55877917239E-02  0.25740670549E-01 -0.90449003919E-04  0.26345300125E-01  0.51100000000E-03 0. -1.
         11    1    3    3    0    0 -0.29824561020E-01  0.67634866442E-01 -0.29819624420E-01  0.79708536056E-01  0.51100000000E-03 0.  1.
</event>
<event>
 8    1  0.1099478E+005  0.1043930E+01  0.7957747E-01            NaN
         13   -1    0    0    0    0  0.00000000000E+00  0.00000000000E+00  0.74505805969E-08  0.10566000000E+00  0.10566000000E+00 0.  1.
     999900   -1    0    0    0    0 -0.00000000000E+00 -0.00000000000E+00 -0.74505805969E-08  0.93827000000E+00  0.93827000000E+00 0. -1.
     999902    2    1    2    0    0 -0.44053215892E-02 -0.22512029481E-01  0.45191818291E-02  0.10205500656E+01  0.10202822232E+01 0.  0.
     999903    2    3    3    0    0  0.12316894358E+00  0.64550631182E-02 -0.35691118874E-01  0.12997095405E+00  0.20157788278E-01 0.  0.
         14    1    1    2    0    0  0.44053215892E-02  0.22512029481E-01 -0.45191818291E-02  0.23379934432E-01  0.00000000000E+00 0. -1.
     999901    1    3    3    0    0 -0.12757426517E+00 -0.28967092599E-01  0.40210300703E-01  0.89057911152E+00  0.88000000000E+00 0.  1.
        -11    1    4    4    0    0  0.55819646084E-01  0.12598401674E-01 -0.13553093357E-01  0.58809013545E-01  0.51100000000E-03 0.  1.
         11    1    4    4    0    0  0.67349297495E-01 -0.61433385562E-02 -0.22138025517E-01  0.71161940506E-01  0.51100000000E-03 0. -1.
</event>
<event>
 8    1  0.1099478E+005  0.1043930E+01  0.7957747E-01            NaN
         13   -1    0    0    0    0  0.00000000000E+00  0.00000000000E+00  0.74505805969E-08  0.10566000000E+00  0.10566000000E+00 0. -1.
     999900   -1    0    0    0    0 -0.00000000000E+00 -0.00000000000E+00 -0.74505805969E-08  0.93827000000E+00  0.93827000000E+00 0.  1.
     999902    2    1    2    0    0 -0.66506825498E-02  0.25765782072E-02  0.19189719414E-01  0.10234576854E+01  0.10232529102E+01 0.  0.
     999903    2    3    3    0    0 -0.72021279990E-01  0.10931647960E+00 -0.17986299976E-01  0.13382361570E+00  0.21168269887E-01 0.  0.
         14    1    1    2    0    0  0.66506825498E-02 -0.25765782072E-02 -0.19189719414E-01  0.20472314594E-01  0.00000000000E+00 0.  1.
     999901    1    3    3    0    0  0.65370597440E-01 -0.10673990139E+00  0.37176019391E-01  0.88963406970E+00  0.88000000000E+00 0. -1.
        -11    1    4    4    0    0 -0.27467838247E-01  0.32200407961E-01 -0.14324947309E-01  0.44685720843E-01  0.51100000000E-03 0. -1.
         11    1    4    4    0    0 -0.44553441742E-01  0.77116071636E-01 -0.36613526675E-02  0.89137894860E-01  0.51100000000E-03 0.  1.
</event>
<event>
 8    1  0.1099478E+005  0.1043930E+01  0.7957747E-01            NaN
         13   -1    0    0    0    0  0.00000000000E+00  0.00000000000E+00  0.74505805969E-08  0.10566000000E+00  0.10566000000E+00 0.  1.
     999900   -1    0    0    0    0 -0.00000000000E+00 -0.00000000000E+00 -0.74505805969E-08  0.93827000000E+00  0.93827000000E+00 0. -1.
     999902    2    1    2    0    0  0.19603028894E-01 -0.72501719024E-02  0.15865410681E-01  0.10176896686E+01  0.10173513192E+01 0.  0.
     999903    2    3    3    0    0 -0.91743132011E-01 -0.78252877756E-02 -0.79345293346E-01  0.12557791752E+00  0.31561058160E-01 0.  0.
         14    1    1    2    0    0 -0.19603028894E-01  0.72501719024E-02 -0.15865410681E-01  0.26240331372E-01  0.00000000000E+00 0.  1.
     999901    1    3    3    0    0  0.11134616090E+00  0.57511587319E-03  0.95210704028E-01  0.89211175111E+00  0.88000000000E+00 0.  1.
        -11    1    4    4    0    0 -0.33000087860E-01 -0.17719447663E-01 -0.35505712230E-01  0.51612995904E-01  0.51100000000E-03 0.  1.
         11    1    4    4    0    0 -0.58743044151E-01  0.98941598871E-02 -0.43839581116E-01  0.73964921614E-01  0.51100000000E-03 0. -1.
</event>
<event>
 8    1  0.1099478E+005  0.1043930E+01  0.7957747E-01            NaN
         13   -1    0    0    0    0  0.00000000000E+00  0.00000000000E+00  0.74505805969E-08  0.10566000000E+00  0.10566000000E+00 0. -1.
     999900   -1    0    0    0    0 -0.00000000000E+00 -0.00000000000E+00 -0.74505805969E-08  0.93827000000E+00  0.93827000000E+00 0.  1.
     999902    2    1    2    0    0  0.72872998990E-02  0.87549009106E-02  0.20717457894E-01  0.10202875363E+01  0.10200135737E+01 0.  0.
     999903    2    3    3    0    0 -0.34612546297E-01  0.12461335706E+00  0.17491493660E-01  0.13169922562E+00  0.17669650804E-01 0.  0.
         14    1    1    2    0    0 -0.72872998990E-02 -0.87549009106E-02 -0.20717457894E-01  0.23642463733E-01  0.00000000000E+00 0.  1.
     999901    1    3    3    0    0  0.41899846196E-01 -0.11585845615E+00  0.32259642340E-02  0.88858831065E+00  0.88000000000E+00 0.  1.
        -11    1    4    4    0    0 -0.33181879224E-01  0.12464907098E+00  0.17544362650E-01  0.13017869943E+00  0.51100000000E-03 0.  1.
         11    1    4    4    0    0 -0.14306670726E-02 -0.35713916505E-04 -0.52868990156E-04  0.15205261874E-02  0.51100000000E-03 0. -1.
</event>
<event>
 8    1  0.1099478E+005  0.1043930E+01  0.7957747E-01            NaN
         13   -1    0    0    0    0  0.00000000000E+00  0.00000000000E+00  0.74505805969E-08  0.10566000000E+00  0.10566000000E+00 0.  1.
     999900   -1    0    0    0    0 -0.00000000000E+00 -0.00000000000E+00 -0.74505805969E-08  0.93827000000E+00  0.93827000000E+00 0.  1.
     999902    2    1    2    0    0 -0.20487548566E-01 -0.40731545409E-02 -0.11438923996E-01  0.10201144753E+01  0.10198364396E+01 0.  0.
     999903    2    3    3    0    0  0.25763850736E-01  0.12382390098E+00  0.15770174836E-01  0.12925130747E+00  0.21472484961E-01 0.  0.
         14    1    1    2    0    0  0.20487548566E-01  0.40731545409E-02  0.11438923996E-01  0.23815524691E-01  0.00000000000E+00 0.  1.
     999901    1    3    3    0    0 -0.46251399302E-01 -0.12789705552E+00 -0.27209098832E-01  0.89086316784E+00  0.88000000000E+00 0.  1.
        -11    1    4    4    0    0  0.15493361363E-01  0.28925630086E-01  0.31964960197E-02  0.32972943908E-01  0.51100000000E-03 0.  1.
         11    1    4    4    0    0  0.10270489374E-01  0.94898270894E-01  0.12573678816E-01  0.96278363564E-01  0.51100000000E-03 0. -1.
</event>
<event>
 8    1  0.1099478E+005  0.1043930E+01  0.7957747E-01            NaN
         13   -1    0    0    0    0  0.00000000000E+00  0.00000000000E+00  0.74505805969E-08  0.10566000000E+00  0.10566000000E+00 0. -1.
     999900   -1    0    0    0    0 -0.00000000000E+00 -0.00000000000E+00 -0.74505805969E-08  0.93827000000E+00  0.93827000000E+00 0.  1.
     999902    2    1    2    0    0 -0.11543915186E-01 -0.72791754474E-02 -0.20162146681E-01  0.10195833261E+01  0.10192925970E+01 0.  0.
     999903    2    3    3    0    0 -0.92423036005E-02  0.12684310154E+00 -0.23141044269E-01  0.12941314209E+00  0.61368423001E-02 0.  0.
         14    1    1    2    0    0  0.11543915186E-01  0.72791754474E-02  0.20162146681E-01  0.24346673937E-01  0.00000000000E+00 0. -1.
     999901    1    3    3    0    0 -0.23016115856E-02 -0.13412227698E+00  0.29788975880E-02  0.89017018397E+00  0.88000000000E+00 0. -1.
        -11    1    4    4    0    0 -0.35365659050E-02  0.86851230934E-01 -0.15416101685E-01  0.88281147055E-01  0.51100000000E-03 0.  1.
         11    1    4    4    0    0 -0.57057376956E-02  0.39991870601E-01 -0.77249425839E-02  0.41131995038E-01  0.51100000000E-03 0. -1.
</event>
<event>
 8    1  0.1099478E+005  0.1043930E+01  0.7957747E-01            NaN
         13   -1    0    0    0    0  0.00000000000E+00  0.00000000000E+00  0.74505805969E-08  0.10566000000E+00  0.10566000000E+00 0. -1.
     999900   -1    0    0    0    0 -0.00000000000E+00 -0.00000000000E+00 -0.74505805969E-08  0.93827000000E+00  0.93827000000E+00 0. -1.
     999902    2    1    2    0    0 -0.81639632919E-02  0.10575845019E-01  0.19234557862E-01  0.10205106274E+01  0.10202418702E+01 0.  0.
     999903    2    3    3    0    0  0.31723129355E-01 -0.72509620270E-01  0.10337512193E+00  0.13170591930E+00  0.19900537092E-01 0.  0.
         14    1    1    2    0    0  0.81639632919E-02 -0.10575845019E-01 -0.19234557862E-01  0.23419372551E-01  0.00000000000E+00 0.  1.
     999901    1    3    3    0    0 -0.39887092647E-01  0.83085465289E-01 -0.84140564072E-01  0.88880470815E+00  0.88000000000E+00 0. -1.
        -11    1    4    4    0    0 -0.86231425876E-03 -0.89537944084E-02  0.19900160190E-01  0.21844713703E-01  0.51100000000E-03 0.  1.
         11    1    4    4    0    0  0.32585443613E-01 -0.63555825862E-01  0.83474961744E-01  0.10986120560E+00  0.51100000000E-03 0. -1.
</event>
<event>
 8    1  0.1099478E+005  0.1043930E+01  0.7957747E-01            NaN
         13   -1    0    0    0    0  0.00000000000E+00  0.00000000000E+00  0.74505805969E-08  0.10566000000E+00  0.10566000000E+00 0. -1.
     999900   -1    0    0    0    0 -0.00000000000E+00 -0.00000000000E+00 -0.74505805969E-08  0.93827000000E+00  0.93827000000E+00 0.  1.
     999902    2    1    2    0    0 -0.25839344925E-01  0.21684978348E-02 -0.35361649527E-02  0.10177598148E+01  0.10174232954E+01 0.  0.
     999903    2    3    3    0    0 -0.70715768470E-01  0.10096057926E-01 -0.10722397061E+00  0.13050117124E+00  0.20758745743E-01 0.  0.
         14    1    1    2    0    0  0.25839344925E-01 -0.21684978348E-02  0.35361649527E-02  0.26170185166E-01  0.00000000000E+00 0.  1.
     999901    1    3    3    0    0  0.44876423545E-01 -0.79275600912E-02  0.10368780566E+00  0.88725864360E+00  0.88000000000E+00 0. -1.
        -11    1    4    4    0    0 -0.98111446936E-02  0.51938574135E-03 -0.47873796249E-02  0.10941135518E-01  0.51100000000E-03 0. -1.
         11    1    4    4    0    0 -0.60904623777E-01  0.95766721847E-02 -0.10243659098E+00  0.11956003572E+00  0.51100000000E-03 0.  1.
</event>
<event>
 8    1  0.1099478E+005  0.1043930E+01  0.7957747E-01            NaN
         13   -1    0    0    0    0  0.00000000000E+00  0.00000000000E+00  0.74505805969E-08  0.10566000000E+00  0.10566000000E+00 0.  1.
     999900   -1    0    0    0    0 -0.00000000000E+00 -0.00000000000E+00 -0.74505805969E-08  0.93827000000E+00  0.93827000000E+00 0. -1.
     999902    2    1    2    0    0 -0.95097196049E-03  0.22532915142E-01  0.10288731156E-01  0.10191409984E+01  0.10188394770E+01 0.  0.
     999903    2    3    3    0    0 -0.87666893384E-02 -0.92321706147E-01 -0.83271954378E-01  0.12672502399E+00  0.22909846171E-01 0.  0.
         14    1    1    2    0    0  0.95097196049E-03 -0.22532915142E-01 -0.10288731156E-01  0.24789001619E-01  0.00000000000E+00 0.  1.
     999901    1    3    3    0    0  0.78157173779E-02  0.11485462129E+00  0.93560685534E-01  0.89241597439E+00  0.88000000000E+00 0. -1.
        -11    1    4    4    0    0 -0.32637521434E-02 -0.56680770583E-01 -0.64961403962E-01  0.86276340660E-01  0.51100000000E-03 0. -1.
         11    1    4    4    0    0 -0.55029371950E-02 -0.35640935564E-01 -0.18310550417E-01  0.40448683331E-01  0.51100000000E-03 0.  1.
</event>
<event>
 8    1  0.1099478E+005  0.1043930E+01  0.7957747E-01            NaN
         13   -1    0    0    0    0  0.00000000000E+00  0.00000000000E+00  0.74505805969E-08  0.10566000000E+00  0.10566000000E+00 0.  1.
     999900   -1    0    0    0    0 -0.00000000000E+00 -0.00000000000E+00 -0.74505805969E-08  0.93827000000E+00  0.93827000000E+00 0.  1.
     999902    2    1    2    0    0 -0.11761008026E-01  0.10299053248E-02 -0.20807579202E-01  0.10200064265E+01  0.10197258322E+01 0.  0.
     999903    2    3    3    0    0  0.11624150596E-01 -0.15815197230E-01  0.12471606588E+00  0.12758962123E+00  0.18432932970E-01 0.  0.
         14    1    1    2    0    0  0.11761008026E-01 -0.10299053248E-02  0.20807579202E-01  0.23923573458E-01  0.00000000000E+00 0.  1.
     999901    1    3    3    0    0 -0.23385158622E-01  0.16845102555E-01 -0.14552364508E+00  0.89241680531E+00  0.88000000000E+00 0.  1.
        -11    1    4    4    0    0  0.11615446007E-01 -0.18906414802E-01  0.88595745022E-01  0.91333664459E-01  0.51100000000E-03 0.  1.
         11    1    4    4    0    0  0.87045895190E-05  0.30912175720E-02  0.36120320854E-01  0.36255956772E-01  0.51100000000E-03 0. -1.
</event>
<event>
 8    1  0.1099478E+005  0.1043930E+01  0.7957747E-01            NaN
         13   -1    0    0    0    0  0.00000000000E+00  0.00000000000E+00  0.74505805969E-08  0.10566000000E+00  0.10566000000E+00 0.  1.
     999900   -1    0    0    0    0 -0.00000000000E+00 -0.00000000000E+00 -0.74505805969E-08  0.93827000000E+00  0.93827000000E+00 0.  1.
     999902    2    1    2    0    0 -0.93511060382E-03  0.23375020147E-01  0.45570283712E-02  0.10200965675E+01  0.10198181085E+01 0.  0.
     999903    2    3    3    0    0  0.92257115935E-01  0.81316963918E-01 -0.43495358320E-01  0.13197996938E+00  0.20075907457E-01 0.  0.
         14    1    1    2    0    0  0.93511060382E-03 -0.23375020147E-01 -0.45570283712E-02  0.23833432533E-01  0.00000000000E+00 0. -1.
     999901    1    3    3    0    0 -0.93192226538E-01 -0.57941943771E-01  0.48052386691E-01  0.88811659809E+00  0.88000000000E+00 0. -1.
        -11    1    4    4    0    0  0.13384444583E-01  0.70784300079E-02  0.27937613640E-03  0.15152118670E-01  0.51100000000E-03 0.  1.
         11    1    4    4    0    0  0.78872671352E-01  0.74238533910E-01 -0.43774734456E-01  0.11682785071E+00  0.51100000000E-03 0. -1.
</event>
<event>
 8    1  0.1099478E+005  0.1043930E+01  0.7957747E-01            NaN
         13   -1    0    0    0    0  0.00000000000E+00  0.00000000000E+00  0.74505805969E-08  0.10566000000E+00  0.10566000000E+00 0.  1.
     999900   -1    0    0    0    0 -0.00000000000E+00 -0.00000000000E+00 -0.74505805969E-08  0.93827000000E+00  0.93827000000E+00 0.  1.
     999902    2    1    2    0    0  0.13104915498E-01  0.10884880763E-01 -0.16466192822E-01  0.10202370697E+01  0.10199619226E+01 0.  0.
     999903    2    3    3    0    0 -0.52212239761E-02 -0.12325060749E+00  0.30192426971E-01  0.12866250559E+00  0.20603016069E-01 0.  0.
         14    1    1    2    0    0 -0.13104915498E-01 -0.10884880763E-01  0.16466192822E-01  0.23692930285E-01  0.00000000000E+00 0.  1.
     999901    1    3    3    0    0  0.18326139474E-01  0.13413548825E+00 -0.46658619794E-01  0.89157456413E+00  0.88000000000E+00 0.  1.
        -11    1    4    4    0    0  0.65439918316E-02 -0.20298788900E-01  0.31139618137E-02  0.21559743484E-01  0.51100000000E-03 0. -1.
         11    1    4    4    0    0 -0.11765215808E-01 -0.10295181859E+00  0.27078465158E-01  0.10710276210E+00  0.51100000000E-03 0.  1.
</event>
<event>
 8    1  0.1099478E+005  0.1043930E+01  0.7957747E-01            NaN
         13   -1    0    0    0    0  0.00000000000E+00  0.00000000000E+00  0.74505805969E-08  0.10566000000E+00  0.10566000000E+00 0. -1.
     999900   -1    0    0    0    0 -0.00000000000E+00 -0.00000000000E+00 -0.74505805969E-08  0.93827000000E+00  0.93827000000E+00 0.  1.
     999902    2    1    2    0    0 -0.43369867731E-02  0.92467256981E-02  0.20700047396E-01  0.10208474665E+01  0.10205864718E+01 0.  0.
     999903    2    3    3    0    0  0.34194616067E-01 -0.19945074301E-02  0.12747333269E+00  0.13348531710E+00  0.19890437552E-01 0.  0.
         14    1    1    2    0    0  0.43369867731E-02 -0.92467256981E-02 -0.20700047396E-01  0.23082533496E-01  0.00000000000E+00 0.  1.
     999901    1    3    3    0    0 -0.38531602840E-01  0.11241233128E-01 -0.10677328530E+00  0.88736214940E+00  0.88000000000E+00 0.  1.
        -11    1    4    4    0    0  0.33022405324E-02 -0.26899881784E-02  0.48362200144E-01  0.48552078768E-01  0.51100000000E-03 0. -1.
         11    1    4    4    0    0  0.30892375534E-01  0.69548074829E-03  0.79111132549E-01  0.84933238333E-01  0.51100000000E-03 0.  1.
</event>
<event>
 8    1  0.1099478E+005  0.1043930E+01  0.7957747E-01            NaN
         13   -1    0    0    0    0  0.00000000000E+00  0.00000000000E+00  0.74505805969E-08  0.10566000000E+00  0.10566000000E+00 0. -1.
     999900   -1    0    0    0    0 -0.00000000000E+00 -0.00000000000E+00 -0.74505805969E-08  0.93827000000E+00  0.93827000000E+00 0. -1.
     999902    2    1    2    0    0  0.15247332410E-02  0.22478800598E-01  0.23799783237E-02  0.10212741931E+01  0.10210228656E+01 0.  0.
     999903    2    3    3    0    0  0.57505773652E-02 -0.12610431161E+00 -0.14076716807E-01  0.12865690571E+00  0.20471416267E-01 0.  0.
         14    1    1    2    0    0 -0.15247332410E-02 -0.22478800598E-01 -0.23799783237E-02  0.22655806863E-01  0.00000000000E+00 0.  1.
     999901    1    3    3    0    0 -0.42258441242E-02  0.14858311221E+00  0.16456695131E-01  0.89261728742E+00  0.88000000000E+00 0. -1.
        -11    1    4    4    0    0 -0.77047367961E-02 -0.50789335323E-01 -0.52702253021E-02  0.51642578822E-01  0.51100000000E-03 0. -1.
         11    1    4    4    0    0  0.13455314161E-01 -0.75314976292E-01 -0.88064915048E-02  0.77014326892E-01  0.51100000000E-03 0.  1.
</event>
<event>
 8    1  0.1099478E+005  0.1043930E+01  0.7957747E-01            NaN
         13   -1    0    0    0    0  0.00000000000E+00  0.00000000000E+00  0.74505805969E-08  0.10566000000E+00  0.10566000000E+00 0. -1.
     999900   -1    0    0    0    0 -0.00000000000E+00 -0.00000000000E+00 -0.74505805969E-08  0.93827000000E+00  0.93827000000E+00 0.  1.
     999902    2    1    2    0    0 -0.17429524759E-01  0.11148088863E-01 -0.10729741344E-01  0.10206234437E+01  0.10203572993E+01 0.  0.
     999903    2    3    3    0    0 -0.83808253664E-01 -0.91008276715E-01 -0.40751455134E-01  0.13172335818E+00  0.19596739091E-01 0.  0.
         14    1    1    2    0    0  0.17429524759E-01 -0.11148088863E-01  0.10729741344E-01  0.23306556329E-01  0.00000000000E+00 0. -1.
     999901    1    3    3    0    0  0.66378728905E-01  0.10215636558E+00  0.30021713790E-01  0.88890008549E+00  0.88000000000E+00 0. -1.
        -11    1    4    4    0    0 -0.43841388479E-01 -0.42527054810E-01 -0.10462493715E-01  0.61970498064E-01  0.51100000000E-03 0.  1.
         11    1    4    4    0    0 -0.39966865185E-01 -0.48481221905E-01 -0.30288961419E-01  0.69752860120E-01  0.51100000000E-03 0. -1.
</event>
<event>
 8    1  0.1099478E+005  0.1043930E+01  0.7957747E-01            NaN
         13   -1    0    0    0    0  0.00000000000E+00  0.00000000000E+00  0.74505805969E-08  0.10566000000E+00  0.10566000000E+00 0.  1.
     999900   -1    0    0    0    0 -0.00000000000E+00 -0.00000000000E+00 -0.74505805969E-08  0.93827000000E+00  0.93827000000E+00 0.  1.
     999902    2    1    2    0    0  0.16554125088E-01 -0.47791997763E-02  0.20068173491E-01  0.10174798318E+01  0.10171359775E+01 0.  0.
     999903    2    3    3    0    0  0.11518101750E+00  0.50368796028E-01 -0.22351801150E-01  0.12924111416E+00  0.19999504232E-01 0.  0.
         14    1    1    2    0    0 -0.16554125088E-01  0.47791997763E-02 -0.20068173491E-01  0.26450168151E-01  0.00000000000E+00 0. -1.
     999901    1    3    3    0    0 -0.98626892413E-01 -0.55147995805E-01  0.42419974641E-01  0.88823871769E+00  0.88000000000E+00 0. -1.
        -11    1    4    4    0    0  0.60517557586E-01  0.18769779083E-01 -0.18376758864E-01  0.65974584276E-01  0.51100000000E-03 0. -1.
         11    1    4    4    0    0  0.54663459915E-01  0.31599016946E-01 -0.39750422857E-02  0.63266529887E-01  0.51100000000E-03 0.  1.
</event>
<event>
 8    1  0.1099478E+005  0.1043930E+01  0.7957747E-01            NaN
         13   -1    0    0    0    0  0.00000000000E+00  0.00000000000E+00  0.74505805969E-08  0.10566000000E+00  0.10566000000E+00 0. -1.
     999900   -1    0    0    0    0 -0.00000000000E+00 -0.00000000000E+00 -0.74505805969E-08  0.93827000000E+00  0.93827000000E+00 0.  1.
     999902    2    1    2    0    0 -0.62728463312E-02  0.89288889188E-02 -0.19691707342E-01  0.10214169594E+01  0.10211688244E+01 0.  0.
     999903    2    3    3    0    0 -0.55045748357E-01  0.53728636423E-01 -0.10852742735E+00  0.13446848374E+00  0.19666465081E-01 0.  0.
         14    1    1    2    0    0  0.62728463312E-02 -0.89288889188E-02  0.19691707342E-01  0.22513040587E-01  0.00000000000E+00 0.  1.
     999901    1    3    3    0    0  0.48772902026E-01 -0.44799747505E-01  0.88835720006E-01  0.88694847567E+00  0.88000000000E+00 0. -1.
        -11    1    4    4    0    0 -0.20622834035E-01  0.11444950290E-01 -0.22397716224E-01  0.32530093511E-01  0.51100000000E-03 0. -1.
         11    1    4    4    0    0 -0.34422914322E-01  0.42283686134E-01 -0.86129711124E-01  0.10193839023E+00  0.51100000000E-03 0.  1.
</event>
<event>
 8    1  0.1099478E+005  0.1043930E+01  0.7957747E-01            NaN
         13   -1    0    0    0    0  0.00000000000E+00  0.00000000000E+00  0.74505805969E-08  0.10566000000E+00  0.10566000000E+00 0. -1.
     999900   -1    0    0    0    0 -0.00000000000E+00 -0.00000000000E+00 -0.74505805969E-08  0.93827000000E+00  0.93827000000E+00 0. -1.
     999902    2    1    2    0    0 -0.26267668145E-03  0.11612867938E-01 -0.21453172497E-01  0.10195339694E+01  0.10192420460E+01 0.  0.
     999903    2    3    3    0    0 -0.48644272285E-01  0.10380556832E+00 -0.63103118623E-01  0.13241786038E+00  0.20263882372E-01 0.  0.
         14    1    1    2    0    0  0.26267668145E-03 -0.11612867938E-01  0.21453172497E-01  0.24396030640E-01  0.00000000000E+00 0. -1.
     999901    1    3    3    0    0  0.48381595603E-01 -0.92192700377E-01  0.41649946125E-01  0.88711610898E+00  0.88000000000E+00 0.  1.
        -11    1    4    4    0    0 -0.23448292766E-01  0.72652118911E-01 -0.41163044374E-01  0.86734134913E-01  0.51100000000E-03 0. -1.
         11    1    4    4    0    0 -0.25195979519E-01  0.31153449404E-01 -0.21940074249E-01  0.45683725469E-01  0.51100000000E-03 0.  1.
</event>
<event>
 8    1  0.1099478E+005  0.1043930E+01  0.7957747E-01            NaN
         13   -1    0    0    0    0  0.00000000000E+00  0.00000000000E+00  0.74505805969E-08  0.10566000000E+00  0.10566000000E+00 0. -1.
     999900   -1    0    0    0    0 -0.00000000000E+00 -0.00000000000E+00 -0.74505805969E-08  0.93827000000E+00  0.93827000000E+00 0. -1.
     999902    2    1    2    0    0  0.27873331904E-01  0.88939941451E-02  0.82073240526E-02  0.10135427341E+01  0.10130871077E+01 0.  0.
     999903    2    3    3    0    0 -0.10936968020E+00 -0.16200116259E-01  0.46386721776E-01  0.12173388394E+00  0.21053261688E-01 0.  0.
         14    1    1    2    0    0 -0.27873331904E-01 -0.88939941451E-02 -0.82073240526E-02  0.30387265941E-01  0.00000000000E+00 0.  1.
     999901    1    3    3    0    0  0.13724301210E+00  0.25094110404E-01 -0.38179397724E-01  0.89180885012E+00  0.88000000000E+00 0. -1.
        -11    1    4    4    0    0 -0.87667623390E-01 -0.79472495450E-02  0.43927380983E-01  0.98380114287E-01  0.51100000000E-03 0.  1.
         11    1    4    4    0    0 -0.21702056807E-01 -0.82528667144E-02  0.24593407940E-02  0.23353769649E-01  0.51100000000E-03 0. -1.
</event>
<event>
 8    1  0.1099478E+005  0.1043930E+01  0.7957747E-01            NaN
         13   -1    0    0    0    0  0.00000000000E+00  0.00000000000E+00  0.74505805969E-08  0.10566000000E+00  0.10566000000E+00 0. -1.
     999900   -1    0    0    0    0 -0.00000000000E+00 -0.00000000000E+00 -0.74505805969E-08  0.93827000000E+00  0.93827000000E+00 0.  1.
     999902    2    1    2    0    0 -0.15219964459E-01  0.13872175805E-01  0.12062876117E-01  0.10200637569E+01  0.10197845216E+01 0.  0.
     999903    2    3    3    0    0 -0.28542120679E-01  0.86325715760E-01 -0.92033551745E-01  0.13087139211E+00  0.19757650976E-01 0.  0.
         14    1    1    2    0    0  0.15219964459E-01 -0.13872175805E-01 -0.12062876117E-01  0.23866243104E-01  0.00000000000E+00 0.  1.
     999901    1    3    3    0    0  0.13322156220E-01 -0.72453539955E-01  0.10409642786E+00  0.88919236478E+00  0.88000000000E+00 0. -1.
        -11    1    4    4    0    0  0.26135711091E-02  0.11040252603E-01 -0.14286853230E-01  0.18250841835E-01  0.51100000000E-03 0.  1.
         11    1    4    4    0    0 -0.31155691788E-01  0.75285463156E-01 -0.77746698515E-01  0.11262055028E+00  0.51100000000E-03 0. -1.
</event>
<event>
 8    1  0.1099478E+005  0.1043930E+01  0.7957747E-01            NaN
         13   -1    0    0    0    0  0.00000000000E+00  0.00000000000E+00  0.74505805969E-08  0.10566000000E+00  0.10566000000E+00 0. -1.
     999900   -1    0    0    0    0 -0.00000000000E+00 -0.00000000000E+00 -0.74505805969E-08  0.93827000000E+00  0.93827000000E+00 0. -1.
     999902    2    1    2    0    0 -0.10732996780E-01 -0.24454153358E-01  0.13359713094E-01  0.10140689088E+01  0.10136291565E+01 0.  0.
     999903    2    3    3    0    0  0.11037061238E+00  0.48703579379E-01 -0.77476789903E-02  0.12251764270E+00  0.19920730935E-01 0.  0.
         14    1    1    2    0    0  0.10732996780E-01  0.24454153358E-01 -0.13359713094E-01  0.29861091244E-01  0.00000000000E+00 0. -1.
     999901    1    3    3    0    0 -0.12110360916E+00 -0.73157732737E-01  0.21107392084E-01  0.89155126606E+00  0.88000000000E+00 0.  1.
        -11    1    4    4    0    0  0.38013590523E-01  0.11950891073E-01 -0.10846425704E-01  0.41300882962E-01  0.51100000000E-03 0. -1.
         11    1    4    4    0    0  0.72357021856E-01  0.36752688306E-01  0.30987467140E-02  0.81216759735E-01  0.51100000000E-03 0.  1.
</event>
<event>
 8    1  0.1099478E+005  0.1043930E+01  0.7957747E-01            NaN
         13   -1    0    0    0    0  0.00000000000E+00  0.00000000000E+00  0.74505805969E-08  0.10566000000E+00  0.10566000000E+00 0. -1.
     999900   -1    0    0    0    0 -0.00000000000E+00 -0.00000000000E+00 -0.74505805969E-08  0.93827000000E+00  0.93827000000E+00 0.  1.
     999902    2    1    2    0    0 -0.20133950722E-01 -0.31725805274E-02  0.89270703937E-03  0.10235280843E+01  0.10233247291E+01 0.  0.
     999903    2    3    3    0    0  0.54907668552E-01  0.11826825923E+00  0.57673952964E-02  0.13201090287E+00  0.19783387489E-01 0.  0.
         14    1    1    2    0    0  0.20133950722E-01  0.31725805274E-02 -0.89270703937E-03  0.20401915712E-01  0.00000000000E+00 0. -1.
     999901    1    3    3    0    0 -0.75041619274E-01 -0.12144083976E+00 -0.48746882570E-02  0.89151718142E+00  0.88000000000E+00 0. -1.
        -11    1    4    4    0    0  0.21067581448E-01  0.27343980160E-01 -0.26727291751E-02  0.34625725138E-01  0.51100000000E-03 0.  1.
         11    1    4    4    0    0  0.33840087104E-01  0.90924279068E-01  0.84401244714E-02  0.97385177729E-01  0.51100000000E-03 0. -1.
</event>
<event>
 8    1  0.1099478E+005  0.1043930E+01  0.7957747E-01            NaN
         13   -1    0    0    0    0  0.00000000000E+00  0.00000000000E+00  0.74505805969E-08  0.10566000000E+00  0.10566000000E+00 0. -1.
     999900   -1    0    0    0    0 -0.00000000000E+00 -0.00000000000E+00 -0.74505805969E-08  0.93827000000E+00  0.93827000000E+00 0. -1.
     999902    2    1    2    0    0 -0.68079849731E-02 -0.98955790780E-02  0.37355576030E-02  0.10313512268E+01  0.10312745161E+01 0.  0.
     999903    2    3    3    0    0 -0.86314806041E-01  0.10662533194E+00 -0.18293368173E-01  0.13984478774E+00  0.20067640282E-01 0.  0.
         14    1    1    2    0    0  0.68079849731E-02  0.98955790780E-02 -0.37355576030E-02  0.12578773203E-01  0.00000000000E+00 0.  1.
     999901    1    3    3    0    0  0.79506821068E-01 -0.11652091102E+00  0.22028925776E-01  0.89150643905E+00  0.88000000000E+00 0. -1.
        -11    1    4    4    0    0 -0.72795601615E-01  0.83437634546E-01 -0.21530332579E-01  0.11280449820E+00  0.51100000000E-03 0. -1.
         11    1    4    4    0    0 -0.13519204427E-01  0.23187697396E-01  0.32369644067E-02  0.27040289540E-01  0.51100000000E-03 0.  1.
</event>
<event>
 8    1  0.1099478E+005  0.1043930E+01  0.7957747E-01            NaN
         13   -1    0    0    0    0  0.00000000000E+00  0.00000000000E+00  0.74505805969E-08  0.10566000000E+00  0.10566000000E+00 0. -1.
     999900   -1    0    0    0    0 -0.00000000000E+00 -0.00000000000E+00 -0.74505805969E-08  0.93827000000E+00  0.93827000000E+00 0. -1.
     999902    2    1    2    0    0  0.10667078514E-01 -0.21248932189E-01 -0.45425591782E-02  0.10197238329E+01  0.10194364898E+01 0.  0.
     999903    2    3    3    0    0  0.82625461690E-01  0.79803943272E-02 -0.99733169231E-01  0.13118930080E+00  0.19320299862E-01 0.  0.
         14    1    1    2    0    0 -0.10667078514E-01  0.21248932189E-01  0.45425591782E-02  0.24206167129E-01  0.00000000000E+00 0. -1.
     999901    1    3    3    0    0 -0.71958383177E-01 -0.29229326516E-01  0.95190610052E-01  0.88853453207E+00  0.88000000000E+00 0.  1.
        -11    1    4    4    0    0  0.22455348142E-01 -0.56336668489E-02 -0.32928131279E-01  0.40255481774E-01  0.51100000000E-03 0.  1.
         11    1    4    4    0    0  0.60170113548E-01  0.13614061176E-01 -0.66805037952E-01  0.90933819027E-01  0.51100000000E-03 0. -1.
</event>
<event>
 8    1  0.1099478E+005  0.1043930E+01  0.7957747E-01            NaN
         13   -1    0    0    0    0  0.00000000000E+00  0.00000000000E+00  0.74505805969E-08  0.10566000000E+00  0.10566000000E+00 0.  1.
     999900   -1    0    0    0    0 -0.00000000000E+00 -0.00000000000E+00 -0.74505805969E-08  0.93827000000E+00  0.93827000000E+00 0. -1.
     999902    2    1    2    0    0  0.16408018266E-01  0.16166452270E-01 -0.66583743090E-02  0.10199526943E+01  0.10196708230E+01 0.  0.
     999903    2    3    3    0    0  0.47835690897E-01 -0.11848033359E+00  0.28197543125E-02  0.12910630431E+00  0.18293278179E-01 0.  0.
         14    1    1    2    0    0 -0.16408018266E-01 -0.16166452270E-01  0.66583743090E-02  0.23977305747E-01  0.00000000000E+00 0. -1.
     999901    1    3    3    0    0 -0.31427672630E-01  0.13464678586E+00 -0.94781286215E-02  0.89084638994E+00  0.88000000000E+00 0.  1.
        -11    1    4    4    0    0  0.49167320826E-02 -0.33569561354E-01  0.98899421394E-03  0.33945970813E-01  0.51100000000E-03 0. -1.
         11    1    4    4    0    0  0.42918958814E-01 -0.84910772240E-01  0.18307600985E-02  0.95160333499E-01  0.51100000000E-03 0.  1.
</event>
<event>
 8    1  0.1099478E+005  0.1043930E+01  0.7957747E-01            NaN
         13   -1    0    0    0    0  0.00000000000E+00  0.00000000000E+00  0.74505805969E-08  0.10566000000E+00  0.10566000000E+00 0.  1.
     999900   -1    0    0    0    0 -0.00000000000E+00 -0.00000000000E+00 -0.74505805969E-08  0.93827000000E+00  0.93827000000E+00 0. -1.
     999902    2    1    2    0    0  0.11204840266E-01 -0.15737762213E-02  0.21809584775E-01  0.10193600345E+01  0.10190638825E+01 0.  0.
     999903    2    3    3    0    0  0.32823727032E-01  0.78317924386E-01 -0.93738096206E-01  0.12795590242E+00  0.19359440797E-01 0.  0.
         14    1    1    2    0    0 -0.11204840266E-01  0.15737762213E-02 -0.21809584775E-01  0.24569965508E-01  0.00000000000E+00 0. -1.
     999901    1    3    3    0    0 -0.21618886765E-01 -0.79891700608E-01  0.11554768098E+00  0.89140413207E+00  0.88000000000E+00 0.  1.
        -11    1    4    4    0    0  0.27535781008E-01  0.50837412263E-01 -0.72988521796E-01  0.93114161954E-01  0.51100000000E-03 0.  1.
         11    1    4    4    0    0  0.52879460240E-02  0.27480512123E-01 -0.20749574409E-01  0.34841740468E-01  0.51100000000E-03 0. -1.
</event>
<event>
 8    1  0.1099478E+005  0.1043930E+01  0.7957747E-01            NaN
         13   -1    0    0    0    0  0.00000000000E+00  0.00000000000E+00  0.74505805969E-08  0.10566000000E+00  0.10566000000E+00 0. -1.
     999900   -1    0    0    0    0 -0.00000000000E+00 -0.00000000000E+00 -0.74505805969E-08  0.93827000000E+00  0.93827000000E+00 0. -1.
     999902    2    1    2    0    0  0.32628424585E-02 -0.13255665004E-01 -0.19562012095E-01  0.10200756270E+01  0.10197966727E+01 0.  0.
     999903    2    3    3    0    0  0.80058945234E-01  0.56863231326E-01 -0.85268340987E-01  0.13151970713E+00  0.19592896660E-01 0.  0.
         14    1    1    2    0    0 -0.32628424585E-02  0.13255665004E-01  0.19562012095E-01  0.23854373033E-01  0.00000000000E+00 0. -1.
     999901    1    3    3    0    0 -0.76796102775E-01 -0.70118896330E-01  0.65706328893E-01  0.88855591984E+00  0.88000000000E+00 0. -1.
        -11    1    4    4    0    0  0.47751697298E-01  0.39735823060E-01 -0.42616209137E-01  0.75336330089E-01  0.51100000000E-03 0. -1.
         11    1    4    4    0    0  0.32307247936E-01  0.17127408266E-01 -0.42652131851E-01  0.56183377039E-01  0.51100000000E-03 0.  1.
</event>
<event>
 8    1  0.1099478E+005  0.1043930E+01  0.7957747E-01            NaN
         13   -1    0    0    0    0  0.00000000000E+00  0.00000000000E+00  0.74505805969E-08  0.10566000000E+00  0.10566000000E+00 0. -1.
     999900   -1    0    0    0    0 -0.00000000000E+00 -0.00000000000E+00 -0.74505805969E-08  0.93827000000E+00  0.93827000000E+00 0. -1.
     999902    2    1    2    0    0 -0.23680870644E-01  0.26194223077E-02  0.33152221225E-02  0.10198751521E+01  0.10195914330E+01 0.  0.
     999903    2    3    3    0    0  0.76962153853E-01  0.10062793132E+00 -0.97567903341E-02  0.12863693274E+00  0.20077644752E-01 0.  0.
         14    1    1    2    0    0  0.23680870644E-01 -0.26194223077E-02 -0.33152221225E-02  0.24054847856E-01  0.00000000000E+00 0.  1.
     999901    1    3    3    0    0 -0.10064302450E+00 -0.98008509015E-01  0.13072012457E-01  0.89123821941E+00  0.88000000000E+00 0. -1.
        -11    1    4    4    0    0  0.45223564620E-01  0.72235923095E-01 -0.14016309626E-02  0.85237462847E-01  0.51100000000E-03 0. -1.
         11    1    4    4    0    0  0.31738589233E-01  0.28392008228E-01 -0.83551593715E-02  0.43399469891E-01  0.51100000000E-03 0.  1.
</event>
<event>
 8    1  0.1099478E+005  0.1043930E+01  0.7957747E-01            NaN
         13   -1    0    0    0    0  0.00000000000E+00  0.00000000000E+00  0.74505805969E-08  0.10566000000E+00  0.10566000000E+00 0. -1.
     999900   -1    0    0    0    0 -0.00000000000E+00 -0.00000000000E+00 -0.74505805969E-08  0.93827000000E+00  0.93827000000E+00 0. -1.
     999902    2    1    2    0    0 -0.18717821254E-01 -0.25284531199E-02 -0.13082454156E-01  0.10209539143E+01  0.10206953486E+01 0.  0.
     999903    2    3    3    0    0 -0.76121997832E-01  0.92199201574E-01 -0.54590563011E-01  0.13303979054E+00  0.20596236872E-01 0.  0.
         14    1    1    2    0    0  0.18717821254E-01  0.25284531199E-02  0.13082454156E-01  0.22976085707E-01  0.00000000000E+00 0. -1.
     999901    1    3    3    0    0  0.57404176579E-01 -0.94727654694E-01  0.41508108855E-01  0.88791412375E+00  0.88000000000E+00 0. -1.
        -11    1    4    4    0    0 -0.38381116180E-01  0.30923527081E-01 -0.20061216510E-01  0.53217366857E-01  0.51100000000E-03 0.  1.
         11    1    4    4    0    0 -0.37740881652E-01  0.61275674493E-01 -0.34529346501E-01  0.79822423687E-01  0.51100000000E-03 0. -1.
</event>
<event>
 8    1  0.1099478E+005  0.1043930E+01  0.7957747E-01            NaN
         13   -1    0    0    0    0  0.00000000000E+00  0.00000000000E+00  0.74505805969E-08  0.10566000000E+00  0.10566000000E+00 0. -1.
     999900   -1    0    0    0    0 -0.00000000000E+00 -0.00000000000E+00 -0.74505805969E-08  0.93827000000E+00  0.93827000000E+00 0. -1.
     999902    2    1    2    0    0  0.12363711277E-01  0.22524866617E-01 -0.17503496307E-01  0.10128397547E+01  0.10123624673E+01 0.  0.
     999903    2    3    3    0    0 -0.86116434606E-01  0.81121744391E-01 -0.31275757961E-01  0.12530293378E+00  0.26942057372E-01 0.  0.
         14    1    1    2    0    0 -0.12363711277E-01 -0.22524866617E-01  0.17503496307E-01  0.31090245345E-01  0.00000000000E+00 0. -1.
     999901    1    3    3    0    0  0.98480145883E-01 -0.58596877774E-01  0.13772261655E-01  0.88753682088E+00  0.88000000000E+00 0.  1.
        -11    1    4    4    0    0 -0.65904226654E-01  0.45223256114E-01 -0.24083045391E-01  0.83479124221E-01  0.51100000000E-03 0.  1.
         11    1    4    4    0    0 -0.20212207952E-01  0.35898488277E-01 -0.71927125705E-02  0.41823809559E-01  0.51100000000E-03 0. -1.
</event>
<event>
 8    1  0.1099478E+005  0.1043930E+01  0.7957747E-01            NaN
         13   -1    0    0    0    0  0.00000000000E+00  0.00000000000E+00  0.74505805969E-08  0.10566000000E+00  0.10566000000E+00 0. -1.
     999900   -1    0    0    0    0 -0.00000000000E+00 -0.00000000000E+00 -0.74505805969E-08  0.93827000000E+00  0.93827000000E+00 0.  1.
     999902    2    1    2    0    0 -0.12910536318E-01 -0.56623227957E-02 -0.19531710069E-01  0.10198420041E+01  0.10195574931E+01 0.  0.
     999903    2    3    3    0    0 -0.67823853523E-01 -0.39536515779E-01 -0.10553885051E+00  0.13329806185E+00  0.21603544642E-01 0.  0.
         14    1    1    2    0    0  0.12910536318E-01  0.56623227957E-02  0.19531710069E-01  0.24087995884E-01  0.00000000000E+00 0. -1.
     999901    1    3    3    0    0  0.54913317205E-01  0.33874192983E-01  0.86007140437E-01  0.88654394226E+00  0.88000000000E+00 0. -1.
        -11    1    4    4    0    0 -0.50273871276E-01 -0.24302331714E-01 -0.58760481605E-01  0.81062449872E-01  0.51100000000E-03 0.  1.
         11    1    4    4    0    0 -0.17549982246E-01 -0.15234184065E-01 -0.46778368902E-01  0.52235611982E-01  0.51100000000E-03 0. -1.
</event>
<event>
 8    1  0.1099478E+005  0.1043930E+01  0.7957747E-01            NaN
         13   -1    0    0    0    0  0.00000000000E+00  0.00000000000E+00  0.74505805969E-08  0.10566000000E+00  0.10566000000E+00 0.  1.
     999900   -1    0    0    0    0 -0.00000000000E+00 -0.00000000000E+00 -0.74505805969E-08  0.93827000000E+00  0.93827000000E+00 0.  1.
     999902    2    1    2    0    0  0.12109426621E-02 -0.19710962731E-01 -0.10568306715E-01  0.10215318407E+01  0.10212862596E+01 0.  0.
     999903    2    3    3    0    0  0.12799917151E+00  0.21651226765E-01  0.51704766794E-02  0.13134433516E+00  0.19288261251E-01 0.  0.
         14    1    1    2    0    0 -0.12109426621E-02  0.19710962731E-01  0.10568306715E-01  0.22398159316E-01  0.00000000000E+00 0.  1.
     999901    1    3    3    0    0 -0.12678822884E+00 -0.41362189496E-01 -0.15738783394E-01  0.89018750553E+00  0.88000000000E+00 0.  1.
        -11    1    4    4    0    0  0.12141471661E+00  0.22009925568E-01  0.89637868913E-02  0.12371976734E+00  0.51100000000E-03 0.  1.
         11    1    4    4    0    0  0.65844548948E-02 -0.35869880239E-03 -0.37933102119E-02  0.76245678210E-02  0.51100000000E-03 0. -1.
</event>
<event>
 8    1  0.1169001E+005  0.1043930E+01  0.7957747E-01            NaN
         13   -1    0    0    0    0  0.00000000000E+00  0.00000000000E+00  0.74505805969E-08  0.10566000000E+00  0.10566000000E+00 0. -1.
     999900   -1    0    0    0    0 -0.00000000000E+00 -0.00000000000E+00 -0.74505805969E-08  0.93827000000E+00  0.93827000000E+00 0.  1.
     999902    2    1    2    0    0 -0.11709337594E-02 -0.14250243867E-01  0.19610191365E-01  0.10196606749E+01  0.10193718123E+01 0.  0.
     999903    2    3    3    0    0 -0.12663147662E+00 -0.22853108261E-01  0.10896003717E-01  0.13067794493E+00  0.20005173501E-01 0.  0.
         14    1    1    2    0    0  0.11709337594E-02  0.14250243867E-01 -0.19610191365E-01  0.24269325114E-01  0.00000000000E+00 0.  1.
     999901    1    3    3    0    0  0.12546054286E+00  0.86028643931E-02  0.87141876477E-02  0.88898272995E+00  0.88000000000E+00 0.  1.
        -11    1    4    4    0    0 -0.39507644151E-01  0.21506178663E-02  0.41016381540E-02  0.39781448693E-01  0.51100000000E-03 0. -1.
         11    1    4    4    0    0 -0.87123832468E-01 -0.25003726127E-01  0.67943655628E-02  0.90896496239E-01  0.51100000000E-03 0.  1.
</event>
<event>
 8    1  0.1099478E+005  0.1043930E+01  0.7957747E-01            NaN
         13   -1    0    0    0    0  0.00000000000E+00  0.00000000000E+00  0.74505805969E-08  0.10566000000E+00  0.10566000000E+00 0. -1.
     999900   -1    0    0    0    0 -0.00000000000E+00 -0.00000000000E+00 -0.74505805969E-08  0.93827000000E+00  0.93827000000E+00 0.  1.
     999902    2    1    2    0    0  0.13725681774E-01 -0.10871650505E-01 -0.15906983360E-01  0.10202737272E+01  0.10199994407E+01 0.  0.
     999903    2    3    3    0    0 -0.44275904825E-01 -0.44632229329E-01 -0.11456296653E+00  0.13222138426E+00  0.20135280290E-01 0.  0.
         14    1    1    2    0    0 -0.13725681774E-01  0.10871650505E-01  0.15906983360E-01  0.23656272836E-01  0.00000000000E+00 0.  1.
     999901    1    3    3    0    0  0.58001586599E-01  0.33760578823E-01  0.98655983166E-01  0.88805234291E+00  0.88000000000E+00 0. -1.
        -11    1    4    4    0    0 -0.14878192064E-01 -0.14043637100E-01 -0.20185088972E-01  0.28745143588E-01  0.51100000000E-03 0.  1.
         11    1    4    4    0    0 -0.29397712761E-01 -0.30588592229E-01 -0.94377877555E-01  0.10347624067E+00  0.51100000000E-03 0. -1.
</event>
<event>
 8    1  0.1099478E+005  0.1043930E+01  0.7957747E-01            NaN
         13   -1    0    0    0    0  0.00000000000E+00  0.00000000000E+00  0.74505805969E-08  0.10566000000E+00  0.10566000000E+00 0.  1.
     999900   -1    0    0    0    0 -0.00000000000E+00 -0.00000000000E+00 -0.74505805969E-08  0.93827000000E+00  0.93827000000E+00 0. -1.
     999902    2    1    2    0    0 -0.51004016094E-02 -0.16048952540E-01 -0.77860406340E-02  0.10253772265E+01  0.10252093695E+01 0.  0.
     999903    2    3    3    0    0  0.69796011809E-01  0.70827782647E-01  0.85537919468E-01  0.13303962149E+00  0.22242912586E-01 0.  0.
         14    1    1    2    0    0  0.51004016094E-02  0.16048952540E-01  0.77860406340E-02  0.18552773458E-01  0.00000000000E+00 0.  1.
     999901    1    3    3    0    0 -0.74896413419E-01 -0.86876735188E-01 -0.93323960102E-01  0.89233760505E+00  0.88000000000E+00 0.  1.
        -11    1    4    4    0    0  0.52682036238E-01  0.43621620272E-01  0.67874305138E-01  0.96360910728E-01  0.51100000000E-03 0. -1.
         11    1    4    4    0    0  0.17113975572E-01  0.27206162375E-01  0.17663614329E-01  0.36678710762E-01  0.51100000000E-03 0.  1.
</event>
<event>
 8    1  0.1099478E+005  0.1043930E+01  0.7957747E-01            NaN
         13   -1    0    0    0    0  0.00000000000E+00  0.00000000000E+00  0.74505805969E-08  0.10566000000E+00  0.10566000000E+00 0.  1.
     999900   -1    0    0    0    0 -0.00000000000E+00 -0.00000000000E+00 -0.74505805969E-08  0.93827000000E+00  0.93827000000E+00 0.  1.
     999902    2    1    2    0    0 -0.18356434258E-01  0.13640838123E-01 -0.34149736105E-02  0.10208065663E+01  0.10205446352E+01 0.  0.
     999903    2    3    3    0    0  0.91650216095E-01  0.89688319181E-01  0.14437229553E-01  0.13052381137E+00  0.19602934178E-01 0.  0.
         14    1    1    2    0    0  0.18356434258E-01 -0.13640838123E-01  0.34149736105E-02  0.23123433744E-01  0.00000000000E+00 0.  1.
     999901    1    3    3    0    0 -0.11000665035E+00 -0.76047481058E-01 -0.17852203163E-01  0.89028275489E+00  0.88000000000E+00 0.  1.
        -11    1    4    4    0    0  0.67263482222E-01  0.76764723012E-01  0.98370546672E-02  0.10253890728E+00  0.51100000000E-03 0. -1.
         11    1    4    4    0    0  0.24386733874E-01  0.12923596169E-01  0.46001748854E-02  0.27984904090E-01  0.51100000000E-03 0.  1.
</event>
<event>
 8    1  0.1099478E+005  0.1043930E+01  0.7957747E-01            NaN
         13   -1    0    0    0    0  0.00000000000E+00  0.00000000000E+00  0.74505805969E-08  0.10566000000E+00  0.10566000000E+00 0.  1.
     999900   -1    0    0    0    0 -0.00000000000E+00 -0.00000000000E+00 -0.74505805969E-08  0.93827000000E+00  0.93827000000E+00 0. -1.
     999902    2    1    2    0    0  0.18303269187E-01 -0.14070631917E-01  0.36865292767E-03  0.10208404298E+01  0.10205792742E+01 0.  0.
     999903    2    3    3    0    0 -0.50537268047E-01  0.62542201597E-01  0.99236737096E-01  0.12933415173E+00  0.20343312735E-01 0.  0.
         14    1    1    2    0    0 -0.18303269187E-01  0.14070631917E-01 -0.36865292767E-03  0.23089570166E-01  0.00000000000E+00 0. -1.
     999901    1    3    3    0    0  0.68840537234E-01 -0.76612833513E-01 -0.98868084168E-01  0.89150627810E+00  0.88000000000E+00 0. -1.
        -11    1    4    4    0    0 -0.14217358399E-01  0.33041024451E-01  0.39007329083E-01  0.53062938289E-01  0.51100000000E-03 0. -1.
         11    1    4    4    0    0 -0.36319909648E-01  0.29501177145E-01  0.60229408013E-01  0.76271213445E-01  0.51100000000E-03 0.  1.
</event>
<event>
 7    1  0.1099478E+005  0.1043930E+01  0.7957747E-01            NaN
         13   -1    0    0    0    0  0.00000000000E+00  0.00000000000E+00  0.74505805969E-08  0.10566000000E+00  0.10566000000E+00 0.  1.
     999900   -1    0    0    0    0 -0.00000000000E+00 -0.00000000000E+00 -0.74505805969E-08  0.93827000000E+00  0.93827000000E+00 0. -1.
     999902    2    1    2    0    0 -0.22347635991E-02 -0.11212092219E-01 -0.20787939521E-01  0.10202056747E+01  0.10199297893E+01 0.  0.
         14    1    1    2    0    0  0.22347635991E-02  0.11212092219E-01  0.20787939521E-01  0.23724325276E-01  0.00000000000E+00 0.  1.
     999901    1    3    3    0    0  0.25288211359E-01 -0.84111871176E-01 -0.12160339706E+00  0.89269350098E+00  0.88000000000E+00 0. -1.
        -11    1    3    3    0    0 -0.10012426349E-01  0.21840996373E-01  0.33431545195E-01  0.41172893256E-01  0.51100000000E-03 0.  1.
         11    1    3    3    0    0 -0.17510548610E-01  0.51058782585E-01  0.67383912348E-01  0.86339280492E-01  0.51100000000E-03 0. -1.
</event>
<event>
 8    1  0.1099478E+005  0.1043930E+01  0.7957747E-01            NaN
         13   -1    0    0    0    0  0.00000000000E+00  0.00000000000E+00  0.74505805969E-08  0.10566000000E+00  0.10566000000E+00 0. -1.
     999900   -1    0    0    0    0 -0.00000000000E+00 -0.00000000000E+00 -0.74505805969E-08  0.93827000000E+00  0.93827000000E+00 0.  1.
     999902    2    1    2    0    0 -0.13070956394E-01  0.15925831582E-01 -0.12456892865E-01  0.10198539498E+01  0.10195697243E+01 0.  0.
     999903    2    3    3    0    0 -0.51279807292E-01  0.31858449019E-01  0.11323320103E+00  0.12995970650E+00  0.20571535877E-01 0.  0.
         14    1    1    2    0    0  0.13070956394E-01 -0.15925831582E-01  0.12456892865E-01  0.24076050185E-01  0.00000000000E+00 0. -1.
     999901    1    3    3    0    0  0.38208850897E-01 -0.15932617437E-01 -0.12569009389E+00  0.88989424332E+00  0.88000000000E+00 0.  1.
        -11    1    4    4    0    0 -0.32481950412E-01  0.12539036199E-01  0.47367584509E-01  0.58789911674E-01  0.51100000000E-03 0.  1.
         11    1    4    4    0    0 -0.18797856880E-01  0.19319412820E-01  0.65865616519E-01  0.71169794825E-01  0.51100000000E-03 0. -1.
</event>
<event>
 8    1  0.1099478E+005  0.1043930E+01  0.7957747E-01            NaN
         13   -1    0    0    0    0  0.00000000000E+00  0.00000000000E+00  0.74505805969E-08  0.10566000000E+00  0.10566000000E+00 0. -1.
     999900   -1    0    0    0    0 -0.00000000000E+00 -0.00000000000E+00 -0.74505805969E-08  0.93827000000E+00  0.93827000000E+00 0. -1.
     999902    2    1    2    0    0  0.12417559426E-01  0.92890086738E-02 -0.18397320708E-01  0.10198687682E+01  0.10195848967E+01 0.  0.
     999903    2    3    3    0    0 -0.10262671572E+00 -0.34020372156E-01 -0.69224171890E-01  0.12987199493E+00  0.19624489584E-01 0.  0.
         14    1    1    2    0    0 -0.12417559426E-01 -0.92890086738E-02  0.18397320708E-01  0.24061231753E-01  0.00000000000E+00 0. -1.
     999901    1    3    3    0    0  0.11504427515E+00  0.43309380830E-01  0.50826851182E-01  0.88999677332E+00  0.88000000000E+00 0.  1.
        -11    1    4    4    0    0 -0.41373701002E-01 -0.18527535116E-01 -0.18989992050E-01  0.49152147574E-01  0.51100000000E-03 0.  1.
         11    1    4    4    0    0 -0.61253014722E-01 -0.15492837040E-01 -0.50234179840E-01  0.80719847356E-01  0.51100000000E-03 0. -1.
</event>
<event>
 8    1  0.1099478E+005  0.1043930E+01  0.7957747E-01            NaN
         13   -1    0    0    0    0  0.00000000000E+00  0.00000000000E+00  0.74505805969E-08  0.10566000000E+00  0.10566000000E+00 0.  1.
     999900   -1    0    0    0    0 -0.00000000000E+00 -0.00000000000E+00 -0.74505805969E-08  0.93827000000E+00  0.93827000000E+00 0.  1.
     999902    2    1    2    0    0 -0.16035578366E-01 -0.27083300402E-02  0.17028593590E-01  0.10203832842E+01  0.10201115620E+01 0.  0.
     999903    2    3    3    0    0  0.11954234779E+00  0.42128246148E-01  0.10624712721E-01  0.12884938002E+00  0.20594081014E-01 0.  0.
         14    1    1    2    0    0  0.16035578366E-01  0.27083300402E-02 -0.17028593590E-01  0.23546715796E-01  0.00000000000E+00 0.  1.
     999901    1    3    3    0    0 -0.13557792615E+00 -0.44836576188E-01  0.64038808691E-02  0.89153390419E+00  0.88000000000E+00 0. -1.
        -11    1    4    4    0    0  0.69410916173E-01  0.16199156045E-01 -0.70349217591E-03  0.71281441924E-01  0.51100000000E-03 0. -1.
         11    1    4    4    0    0  0.50131431613E-01  0.25929090103E-01  0.11328204897E-01  0.57567938093E-01  0.51100000000E-03 0.  1.
</event>
<event>
 8    1  0.1099478E+005  0.1043930E+01  0.7957747E-01            NaN
         13   -1    0    0    0    0  0.00000000000E+00  0.00000000000E+00  0.74505805969E-08  0.10566000000E+00  0.10566000000E+00 0. -1.
     999900   -1    0    0    0    0 -0.00000000000E+00 -0.00000000000E+00 -0.74505805969E-08  0.93827000000E+00  0.93827000000E+00 0.  1.
     999902    2    1    2    0    0 -0.92897427835E-02 -0.18173837070E-01 -0.12158343390E-01  0.10201726224E+01  0.10198959587E+01 0.  0.
     999903    2    3    3    0    0  0.99730192447E-01  0.70406158971E-01  0.32430417503E-01  0.12791709873E+00  0.20196872589E-01 0.  0.
         14    1    1    2    0    0  0.92897427835E-02  0.18173837070E-01  0.12158343390E-01  0.23757377566E-01  0.00000000000E+00 0. -1.
     999901    1    3    3    0    0 -0.10901993523E+00 -0.88579996042E-01 -0.44588760892E-01  0.89225552370E+00  0.88000000000E+00 0.  1.
        -11    1    4    4    0    0  0.59237460972E-01  0.48824519236E-01  0.12049784261E-01  0.77706942307E-01  0.51100000000E-03 0. -1.
         11    1    4    4    0    0  0.40492731475E-01  0.21581639735E-01  0.20380633242E-01  0.50210156426E-01  0.51100000000E-03 0.  1.
</event>
<event>
 7    1  0.1099478E+005  0.1043930E+01  0.7957747E-01            NaN
         13   -1    0    0    0    0  0.00000000000E+00  0.00000000000E+00  0.74505805969E-08  0.10566000000E+00  0.10566000000E+00 0.  1.
     999900   -1    0    0    0    0 -0.00000000000E+00 -0.00000000000E+00 -0.74505805969E-08  0.93827000000E+00  0.93827000000E+00 0.  1.
     999903    2    1    2    0    0 -0.50558874248E-01  0.89372089658E-02 -0.82221623886E-01  0.98079439530E-01  0.14936785292E-01 0.  0.
         14    1    1    2    0    0 -0.10508068465E-01  0.43537463154E-01  0.41780698792E-01  0.61249955039E-01  0.00000000000E+00 0. -1.
     999901    1    1    2    0    0  0.61066942713E-01 -0.52474672119E-01  0.40440925094E-01  0.88460060543E+00  0.88000000000E+00 0. -1.
        -11    1    3    3    0    0 -0.68048103559E-02  0.44482417881E-02 -0.61520921813E-02  0.10207921345E-01  0.51100000000E-03 0. -1.
         11    1    3    3    0    0 -0.43754063892E-01  0.44889671777E-02 -0.76069531704E-01  0.87871518185E-01  0.51100000000E-03 0.  1.
</event>
<event>
 8    1  0.1099478E+005  0.1043930E+01  0.7957747E-01            NaN
         13   -1    0    0    0    0  0.00000000000E+00  0.00000000000E+00  0.74505805969E-08  0.10566000000E+00  0.10566000000E+00 0.  1.
     999900   -1    0    0    0    0 -0.00000000000E+00 -0.00000000000E+00 -0.74505805969E-08  0.93827000000E+00  0.93827000000E+00 0.  1.
     999902    2    1    2    0    0  0.21297099003E-01  0.11450179958E-02 -0.98506981493E-02  0.10204371554E+01  0.10201666895E+01 0.  0.
     999903    2    3    3    0    0  0.12586501339E+00 -0.24128734859E-01  0.28745400052E-01  0.13304610854E+00  0.21231380782E-01 0.  0.
         14    1    1    2    0    0 -0.21297099003E-01 -0.11450179958E-02  0.98506981493E-02  0.23492844574E-01  0.00000000000E+00 0. -1.
     999901    1    3    3    0    0 -0.10456791439E+00  0.25273752855E-01 -0.38596098202E-01  0.88739104689E+00  0.88000000000E+00 0.  1.
        -11    1    4    4    0    0  0.74112551594E-01 -0.60770474235E-02  0.23475751290E-01  0.77980592642E-01  0.51100000000E-03 0.  1.
         11    1    4    4    0    0  0.51752461800E-01 -0.18051687436E-01  0.52696487623E-02  0.55065515895E-01  0.51100000000E-03 0. -1.
</event>
<event>
 8    1  0.1099478E+005  0.1043930E+01  0.7957747E-01            NaN
         13   -1    0    0    0    0  0.00000000000E+00  0.00000000000E+00  0.74505805969E-08  0.10566000000E+00  0.10566000000E+00 0. -1.
     999900   -1    0    0    0    0 -0.00000000000E+00 -0.00000000000E+00 -0.74505805969E-08  0.93827000000E+00  0.93827000000E+00 0.  1.
     999902    2    1    2    0    0  0.12336162895E-01 -0.18542215830E-01  0.10933402103E-01  0.10191200430E+01  0.10188180054E+01 0.  0.
     999903    2    3    3    0    0 -0.10833294784E+00 -0.67696281010E-01  0.13283639808E-02  0.12947437584E+00  0.21048406066E-01 0.  0.
         14    1    1    2    0    0 -0.12336162895E-01  0.18542215830E-01 -0.10933402103E-01  0.24809956961E-01  0.00000000000E+00 0.  1.
     999901    1    3    3    0    0  0.12066911073E+00  0.49154065180E-01  0.96050381224E-02  0.88964566720E+00  0.88000000000E+00 0.  1.
        -11    1    4    4    0    0 -0.40857242326E-01 -0.26029467115E-01 -0.96918932527E-02  0.49406895517E-01  0.51100000000E-03 0.  1.
         11    1    4    4    0    0 -0.67475705514E-01 -0.41666813895E-01  0.11020257233E-01  0.80067480323E-01  0.51100000000E-03 0. -1.
</event>
<event>
 8    1  0.1099478E+005  0.1043930E+01  0.7957747E-01            NaN
         13   -1    0    0    0    0  0.00000000000E+00  0.00000000000E+00  0.74505805969E-08  0.10566000000E+00  0.10566000000E+00 0. -1.
     999900   -1    0    0    0    0 -0.00000000000E+00 -0.00000000000E+00 -0.74505805969E-08  0.93827000000E+00  0.93827000000E+00 0.  1.
     999902    2    1    2    0    0  0.18054437231E-01  0.12813524532E-01 -0.73309594775E-02  0.10206085060E+01  0.10203420164E+01 0.  0.
     999903    2    3    3    0    0 -0.52934898991E-01 -0.32039193563E-01 -0.11294867904E+00  0.13032408244E+00  0.19958680129E-01 0.  0.
         14    1    1    2    0    0 -0.18054437231E-01 -0.12813524532E-01  0.73309594775E-02  0.23321493981E-01  0.00000000000E+00 0. -1.
     999901    1    3    3    0    0  0.70989336222E-01  0.44852718095E-01  0.10561771956E+00  0.89028442358E+00  0.88000000000E+00 0. -1.
        -11    1    4    4    0    0 -0.26895586875E-01 -0.16783892419E-01 -0.77687504773E-01  0.83908766865E-01  0.51100000000E-03 0.  1.
         11    1    4    4    0    0 -0.26039312116E-01 -0.15255301145E-01 -0.35261174266E-01  0.46415315577E-01  0.51100000000E-03 0. -1.
</event>
<event>
 8    1  0.1099478E+005  0.1043930E+01  0.7957747E-01            NaN
         13   -1    0    0    0    0  0.00000000000E+00  0.00000000000E+00  0.74505805969E-08  0.10566000000E+00  0.10566000000E+00 0.  1.
     999900   -1    0    0    0    0 -0.00000000000E+00 -0.00000000000E+00 -0.74505805969E-08  0.93827000000E+00  0.93827000000E+00 0. -1.
     999902    2    1    2    0    0  0.19348380518E-01  0.12823650270E-01  0.41965190064E-02  0.10203415154E+01  0.10200688170E+01 0.  0.
     999903    2    3    3    0    0  0.20894379854E-01  0.12684860886E+00  0.26307206221E-01  0.13270816552E+00  0.19805136154E-01 0.  0.
         14    1    1    2    0    0 -0.19348380518E-01 -0.12823650270E-01 -0.41965190064E-02  0.23588484620E-01  0.00000000000E+00 0. -1.
     999901    1    3    3    0    0 -0.15459993364E-02 -0.11402495859E+00 -0.22110687215E-01  0.88763334986E+00  0.88000000000E+00 0. -1.
        -11    1    4    4    0    0 -0.27416531267E-02  0.18187639711E-01  0.77570691416E-02  0.19968478730E-01  0.51100000000E-03 0.  1.
         11    1    4    4    0    0  0.23636032981E-01  0.10866096915E+00  0.18550137080E-01  0.11273968679E+00  0.51100000000E-03 0. -1.
</event>
<event>
 8    1  0.1099478E+005  0.1043930E+01  0.7957747E-01            NaN
         13   -1    0    0    0    0  0.00000000000E+00  0.00000000000E+00  0.74505805969E-08  0.10566000000E+00  0.10566000000E+00 0.  1.
     999900   -1    0    0    0    0 -0.00000000000E+00 -0.00000000000E+00 -0.74505805969E-08  0.93827000000E+00  0.93827000000E+00 0.  1.
     999902    2    1    2    0    0  0.12676898717E-01  0.18030552759E-01 -0.11814046634E-01  0.10189224753E+01  0.10186155479E+01 0.  0.
     999903    2    3    3    0    0  0.12560762154E+00  0.18477829925E-01  0.24916263722E-01  0.13094575043E+00  0.20180797073E-01 0.  0.
         14    1    1    2    0    0 -0.12676898717E-01 -0.18030552759E-01  0.11814046634E-01  0.25007524702E-01  0.00000000000E+00 0.  1.
     999901    1    3    3    0    0 -0.11293072282E+00 -0.44727716599E-03 -0.36730310355E-01  0.88797672487E+00  0.88000000000E+00 0.  1.
        -11    1    4    4    0    0  0.10025461123E+00  0.96249160650E-02  0.12965618218E-01  0.10154799092E+00  0.51100000000E-03 0. -1.
         11    1    4    4    0    0  0.25353010305E-01  0.88529138598E-02  0.11950645503E-01  0.29397759511E-01  0.51100000000E-03 0.  1.
</event>
<event>
 8    1  0.1099478E+005  0.1043930E+01  0.7957747E-01            NaN
         13   -1    0    0    0    0  0.00000000000E+00  0.00000000000E+00  0.74505805969E-08  0.10566000000E+00  0.10566000000E+00 0. -1.
     999900   -1    0    0    0    0 -0.00000000000E+00 -0.00000000000E+00 -0.74505805969E-08  0.93827000000E+00  0.93827000000E+00 0.  1.
     999902    2    1    2    0    0  0.22524022086E-01  0.97570614534E-03 -0.66699293018E-02  0.10204189062E+01  0.10201480151E+01 0.  0.
     999903    2    3    3    0    0  0.73080424736E-01 -0.10743444645E+00 -0.13345100465E-01  0.13230108243E+00  0.21037489013E-01 0.  0.
         14    1    1    2    0    0 -0.22524022086E-01 -0.97570614534E-03  0.66699293018E-02  0.23511093771E-01  0.00000000000E+00 0. -1.
     999901    1    3    3    0    0 -0.50556402649E-01  0.10841015259E+00  0.66751711630E-02  0.88811782380E+00  0.88000000000E+00 0.  1.
        -11    1    4    4    0    0  0.50583528904E-01 -0.74430872192E-01 -0.18942081255E-01  0.91965818079E-01  0.51100000000E-03 0.  1.
         11    1    4    4    0    0  0.22496895831E-01 -0.33003574254E-01  0.55969807901E-02  0.40335264354E-01  0.51100000000E-03 0. -1.
</event>
<event>
 8    1  0.1099478E+005  0.1043930E+01  0.7957747E-01            NaN
         13   -1    0    0    0    0  0.00000000000E+00  0.00000000000E+00  0.74505805969E-08  0.10566000000E+00  0.10566000000E+00 0. -1.
     999900   -1    0    0    0    0 -0.00000000000E+00 -0.00000000000E+00 -0.74505805969E-08  0.93827000000E+00  0.93827000000E+00 0. -1.
     999902    2    1    2    0    0  0.78995636079E-03 -0.62397324151E-02  0.15949510152E-01  0.10267851709E+01  0.10266420223E+01 0.  0.
     999903    2    3    3    0    0  0.75682829235E-01 -0.73804342657E-01  0.86795276627E-01  0.13819469062E+00  0.19732735134E-01 0.  0.
         14    1    1    2    0    0 -0.78995636079E-03  0.62397324151E-02 -0.15949510152E-01  0.17144829126E-01  0.00000000000E+00 0.  1.
     999901    1    3    3    0    0 -0.74892872874E-01  0.67564610242E-01 -0.70845766476E-01  0.88859048025E+00  0.88000000000E+00 0.  1.
        -11    1    4    4    0    0  0.54579408279E-01 -0.42097506184E-01  0.62261826893E-01  0.92886533168E-01  0.51100000000E-03 0.  1.
         11    1    4    4    0    0  0.21103420956E-01 -0.31706836473E-01  0.24533449735E-01  0.45308157456E-01  0.51100000000E-03 0. -1.
</event>
<event>
 8    1  0.1099478E+005  0.1043930E+01  0.7957747E-01            NaN
         13   -1    0    0    0    0  0.00000000000E+00  0.00000000000E+00  0.74505805969E-08  0.10566000000E+00  0.10566000000E+00 0. -1.
     999900   -1    0    0    0    0 -0.00000000000E+00 -0.00000000000E+00 -0.74505805969E-08  0.93827000000E+00  0.93827000000E+00 0.  1.
     999902    2    1    2    0    0  0.15720618390E-01  0.18137019071E-01  0.46199676881E-02  0.10194875491E+01  0.10191945003E+01 0.  0.
     999903    2    3    3    0    0 -0.66781313888E-01 -0.90520905528E-01  0.56120033744E-01  0.12748678107E+00  0.21204785732E-01 0.  0.
         14    1    1    2    0    0 -0.15720618390E-01 -0.18137019071E-01 -0.46199676881E-02  0.24442450875E-01  0.00000000000E+00 0.  1.
     999901    1    3    3    0    0  0.82501932278E-01  0.10865792460E+00 -0.51500066056E-01  0.89200076806E+00  0.88000000000E+00 0.  1.
        -11    1    4    4    0    0 -0.32965243573E-01 -0.27439724481E-01  0.20807106147E-01  0.47674338491E-01  0.51100000000E-03 0.  1.
         11    1    4    4    0    0 -0.33816070316E-01 -0.63081181047E-01  0.35312927597E-01  0.79812442578E-01  0.51100000000E-03 0. -1.
</event>
<event>
 8    1  0.1099478E+005  0.1043930E+01  0.7957747E-01            NaN
         13   -1    0    0    0    0  0.00000000000E+00  0.00000000000E+00  0.74505805969E-08  0.10566000000E+00  0.10566000000E+00 0. -1.
     999900   -1    0    0    0    0 -0.00000000000E+00 -0.00000000000E+00 -0.74505805969E-08  0.93827000000E+00  0.93827000000E+00 0.  1.
     999902    2    1    2    0    0  0.18765636347E-01 -0.25907266464E-01 -0.91225676449E-02  0.10106650514E+01  0.10101174632E+01 0.  0.
     999903    2    3    3    0    0  0.11329349469E+00 -0.44593455366E-01 -0.21376342355E-01  0.12532057347E+00  0.20598687389E-01 0.  0.
         14    1    1    2    0    0 -0.18765636347E-01  0.25907266464E-01  0.91225676449E-02  0.33264948573E-01  0.00000000000E+00 0.  1.
     999901    1    3    3    0    0 -0.94527858339E-01  0.18686188902E-01  0.12253774710E-01  0.88534447796E+00  0.88000000000E+00 0.  1.
        -11    1    4    4    0    0  0.57619340417E-01 -0.28109875524E-01 -0.20284854089E-01  0.67244999208E-01  0.51100000000E-03 0.  1.
         11    1    4    4    0    0  0.55674154269E-01 -0.16483579842E-01 -0.10914882666E-02  0.58075574260E-01  0.51100000000E-03 0. -1.
</event>
<event>
 8    1  0.1099478E+005  0.1043930E+01  0.7957747E-01            NaN
         13   -1    0    0    0    0  0.00000000000E+00  0.00000000000E+00  0.74505805969E-08  0.10566000000E+00  0.10566000000E+00 0.  1.
     999900   -1    0    0    0    0 -0.00000000000E+00 -0.00000000000E+00 -0.74505805969E-08  0.93827000000E+00  0.93827000000E+00 0. -1.
     999902    2    1    2    0    0  0.69492335889E-03  0.75622478331E-02  0.21452909541E-01  0.10211726311E+01  0.10209190197E+01 0.  0.
     999903    2    3    3    0    0 -0.64435268006E-01 -0.79943872964E-01  0.81023074324E-01  0.13243877470E+00  0.20793361542E-01 0.  0.
         14    1    1    2    0    0 -0.69492335889E-03 -0.75622478331E-02 -0.21452909541E-01  0.22757368884E-01  0.00000000000E+00 0. -1.
     999901    1    3    3    0    0  0.65130191365E-01  0.87506120797E-01 -0.59570164783E-01  0.88873385641E+00  0.88000000000E+00 0. -1.
        -11    1    4    4    0    0 -0.38936153867E-01 -0.56203340435E-01  0.64020175223E-01  0.93667942812E-01  0.51100000000E-03 0.  1.
         11    1    4    4    0    0 -0.25499114139E-01 -0.23740532528E-01  0.17002899101E-01  0.38770831890E-01  0.51100000000E-03 0. -1.
</event>
<event>
 8    1  0.1099478E+005  0.1043930E+01  0.7957747E-01            NaN
         13   -1    0    0    0    0  0.00000000000E+00  0.00000000000E+00  0.74505805969E-08  0.10566000000E+00  0.10566000000E+00 0.  1.
     999900   -1    0    0    0    0 -0.00000000000E+00 -0.00000000000E+00 -0.74505805969E-08  0.93827000000E+00  0.93827000000E+00 0.  1.
     999902    2    1    2    0    0  0.93326078456E-02 -0.20448761610E-01 -0.68516844239E-02  0.10204311702E+01  0.10201605649E+01 0.  0.
     999903    2    3    3    0    0 -0.46167531769E-01  0.10526215379E-02  0.11886699113E+00  0.12950594310E+00  0.22580494154E-01 0.  0.
         14    1    1    2    0    0 -0.93326078456E-02  0.20448761610E-01  0.68516844239E-02  0.23498829758E-01  0.00000000000E+00 0.  1.
     999901    1    3    3    0    0  0.55500139614E-01 -0.21501383147E-01 -0.12571867555E+00  0.89092522714E+00  0.88000000000E+00 0.  1.
        -11    1    4    4    0    0 -0.37779110615E-01 -0.82977598250E-02  0.93785743877E-01  0.10145018922E+00  0.51100000000E-03 0. -1.
         11    1    4    4    0    0 -0.83884211541E-02  0.93503813629E-02  0.25081247253E-01  0.28055753882E-01  0.51100000000E-03 0.  1.
</event>
<event>
 8    1  0.1099478E+005  0.1043930E+01  0.7957747E-01            NaN
         13   -1    0    0    0    0  0.00000000000E+00  0.00000000000E+00  0.74505805969E-08  0.10566000000E+00  0.10566000000E+00 0. -1.
     999900   -1    0    0    0    0 -0.00000000000E+00 -0.00000000000E+00 -0.74505805969E-08  0.93827000000E+00  0.93827000000E+00 0. -1.
     999902    2    1    2    0    0  0.37458864948E-03  0.18123244975E-01 -0.16833485028E-01  0.10191922042E+01  0.10188919425E+01 0.  0.
     999903    2    3    3    0    0  0.64385726587E-01 -0.95242269903E-01  0.50408517766E-01  0.12707637497E+00  0.19768020831E-01 0.  0.
         14    1    1    2    0    0 -0.37458864948E-03 -0.18123244975E-01  0.16833485028E-01  0.24737795845E-01  0.00000000000E+00 0.  1.
     999901    1    3    3    0    0 -0.64011137937E-01  0.11336551488E+00 -0.67242002795E-01  0.89211582919E+00  0.88000000000E+00 0. -1.
        -11    1    4    4    0    0  0.24021927269E-01 -0.32804029689E-01  0.28184982871E-01  0.49475364920E-01  0.51100000000E-03 0. -1.
         11    1    4    4    0    0  0.40363799318E-01 -0.62438240214E-01  0.22223534895E-01  0.77601010049E-01  0.51100000000E-03 0.  1.
</event>
<event>
 8    1  0.1099478E+005  0.1043930E+01  0.7957747E-01            NaN
         13   -1    0    0    0    0  0.00000000000E+00  0.00000000000E+00  0.74505805969E-08  0.10566000000E+00  0.10566000000E+00 0.  1.
     999900   -1    0    0    0    0 -0.00000000000E+00 -0.00000000000E+00 -0.74505805969E-08  0.93827000000E+00  0.93827000000E+00 0. -1.
     999902    2    1    2    0    0 -0.12614688368E-01 -0.13861735150E-01 -0.14191918256E-01  0.10204206698E+01  0.10201498197E+01 0.  0.
     999903    2    3    3    0    0 -0.78269263933E-01  0.69496782559E-01 -0.77641763933E-01  0.13177841966E+00  0.19530179694E-01 0.  0.
         14    1    1    2    0    0  0.12614688368E-01  0.13861735150E-01  0.14191918256E-01  0.23509330228E-01  0.00000000000E+00 0.  1.
     999901    1    3    3    0    0  0.65654575565E-01 -0.83358517708E-01  0.63449845678E-01  0.88864225011E+00  0.88000000000E+00 0. -1.
        -11    1    4    4    0    0 -0.56839027235E-01  0.39143271051E-01 -0.45674118177E-01  0.82760237299E-01  0.51100000000E-03 0. -1.
         11    1    4    4    0    0 -0.21430236698E-01  0.30353511507E-01 -0.31967645757E-01  0.49018182361E-01  0.51100000000E-03 0.  1.
</event>
<event>
 8    1  0.1099478E+005  0.1043930E+01  0.7957747E-01            NaN
         13   -1    0    0    0    0  0.00000000000E+00  0.00000000000E+00  0.74505805969E-08  0.10566000000E+00  0.10566000000E+00 0.  1.
     999900   -1    0    0    0    0 -0.00000000000E+00 -0.00000000000E+00 -0.74505805969E-08  0.93827000000E+00  0.93827000000E+00 0. -1.
     999902    2    1    2    0    0 -0.20072334564E-01  0.20519128634E-01 -0.20664741228E-03  0.10152250186E+01  0.10148191279E+01 0.  0.
     999903    2    3    3    0    0  0.22130567288E-01  0.11141205019E+00  0.55296869527E-01  0.12779995217E+00  0.19304845494E-01 0.  0.
         14    1    1    2    0    0  0.20072334564E-01 -0.20519128634E-01  0.20664741228E-03  0.28704981412E-01  0.00000000000E+00 0.  1.
     999901    1    3    3    0    0 -0.42202901852E-01 -0.90892921555E-01 -0.55503516939E-01  0.88742506642E+00  0.88000000000E+00 0. -1.
        -11    1    4    4    0    0  0.15731070148E-01  0.36954608334E-01  0.23895438115E-01  0.46737166462E-01  0.51100000000E-03 0.  1.
         11    1    4    4    0    0  0.63994971396E-02  0.74457441854E-01  0.31401431412E-01  0.81062785708E-01  0.51100000000E-03 0. -1.
</event>
<event>
 8    1  0.1099478E+005  0.1043930E+01  0.7957747E-01            NaN
         13   -1    0    0    0    0  0.00000000000E+00  0.00000000000E+00  0.74505805969E-08  0.10566000000E+00  0.10566000000E+00 0. -1.
     999900   -1    0    0    0    0 -0.00000000000E+00 -0.00000000000E+00 -0.74505805969E-08  0.93827000000E+00  0.93827000000E+00 0.  1.
     999902    2    1    2    0    0 -0.91768652937E-02  0.19723940377E-01  0.47516215690E-02  0.10216628361E+01  0.10214201506E+01 0.  0.
     999903    2    3    3    0    0 -0.60536726343E-02 -0.69633546028E-02  0.13051563867E+00  0.13231557319E+00  0.19696286730E-01 0.  0.
         14    1    1    2    0    0  0.91768652937E-02 -0.19723940377E-01 -0.47516215690E-02  0.22267163900E-01  0.00000000000E+00 0.  1.
     999901    1    3    3    0    0 -0.31231926594E-02  0.26687294979E-01 -0.12576401710E+00  0.88934726291E+00  0.88000000000E+00 0.  1.
        -11    1    4    4    0    0 -0.10695142764E-01  0.25465091994E-02  0.58730248527E-01  0.59752606645E-01  0.51100000000E-03 0.  1.
         11    1    4    4    0    0  0.46414701301E-02 -0.95098638022E-02  0.71785390146E-01  0.72562966546E-01  0.51100000000E-03 0. -1.
</event>
<event>
 8    1  0.1099478E+005  0.1043930E+01  0.7957747E-01            NaN
         13   -1    0    0    0    0  0.00000000000E+00  0.00000000000E+00  0.74505805969E-08  0.10566000000E+00  0.10566000000E+00 0. -1.
     999900   -1    0    0    0    0 -0.00000000000E+00 -0.00000000000E+00 -0.74505805969E-08  0.93827000000E+00  0.93827000000E+00 0.  1.
     999902    2    1    2    0    0 -0.18447016638E-01  0.11927466962E-01  0.91232861981E-02  0.10201436333E+01  0.10198662860E+01 0.  0.
     999903    2    3    3    0    0  0.25672969108E-01 -0.73726984127E-01  0.10241319964E+00  0.12998282416E+00  0.17672056633E-01 0.  0.
         14    1    1    2    0    0  0.18447016638E-01 -0.11927466962E-01 -0.91232861981E-02  0.23786366726E-01  0.00000000000E+00 0. -1.
     999901    1    3    3    0    0 -0.44119985745E-01  0.85654451090E-01 -0.93289913438E-01  0.89016080911E+00  0.88000000000E+00 0.  1.
        -11    1    4    4    0    0  0.11137734108E-02 -0.28637797669E-01  0.34890871335E-01  0.45155265142E-01  0.51100000000E-03 0.  1.
         11    1    4    4    0    0  0.24559195697E-01 -0.45089186458E-01  0.67522328301E-01  0.84827559018E-01  0.51100000000E-03 0. -1.
</event>
<event>
 7    1  0.1099478E+005  0.1043930E+01  0.7957747E-01            NaN
         13   -1    0    0    0    0  0.00000000000E+00  0.00000000000E+00  0.74505805969E-08  0.10566000000E+00  0.10566000000E+00 0. -1.
     999900   -1    0    0    0    0 -0.00000000000E+00 -0.00000000000E+00 -0.74505805969E-08  0.93827000000E+00  0.93827000000E+00 0. -1.
     999902    2    1    2    0    0  0.69088761753E-02 -0.17820277122E-01  0.11387614855E-01  0.10216820199E+01  0.10214397570E+01 0.  0.
         14    1    1    2    0    0 -0.69088761753E-02  0.17820277122E-01 -0.11387614855E-01  0.22247980106E-01  0.00000000000E+00 0.  1.
     999901    1    3    3    0    0 -0.69271636277E-01 -0.12269498639E+00 -0.29340463831E-02  0.89121334590E+00  0.88000000000E+00 0. -1.
        -11    1    3    3    0    0  0.28263640780E-01  0.36133964978E-01  0.57490204999E-02  0.46236448532E-01  0.51100000000E-03 0.  1.
         11    1    3    3    0    0  0.47916871673E-01  0.68740744290E-01  0.85726407383E-02  0.84232225465E-01  0.51100000000E-03 0. -1.
</event>
<event>
 8    1  0.1099478E+005  0.1043930E+01  0.7957747E-01            NaN
         13   -1    0    0    0    0  0.00000000000E+00  0.00000000000E+00  0.74505805969E-08  0.10566000000E+00  0.10566000000E+00 0. -1.
     999900   -1    0    0    0    0 -0.00000000000E+00 -0.00000000000E+00 -0.74505805969E-08  0.93827000000E+00  0.93827000000E+00 0. -1.
     999902    2    1    2    0    0 -0.24518840602E-04  0.12999757747E-01  0.21270887133E-01  0.10190012026E+01  0.10186962285E+01 0.  0.
     999903    2    3    3    0    0 -0.46788581632E-01  0.74887584004E-01 -0.91308427793E-01  0.12844458854E+00  0.19064672332E-01 0.  0.
         14    1    1    2    0    0  0.24518840602E-04 -0.12999757747E-01 -0.21270887133E-01  0.24928797446E-01  0.00000000000E+00 0.  1.
     999901    1    3    3    0    0  0.46764062792E-01 -0.61887826257E-01  0.11257931493E+00  0.89055661401E+00  0.88000000000E+00 0.  1.
        -11    1    4    4    0    0 -0.21915242899E-01  0.23768906205E-01 -0.43260153699E-01  0.54008710340E-01  0.51100000000E-03 0. -1.
         11    1    4    4    0    0 -0.24873338734E-01  0.51118677799E-01 -0.48048274094E-01  0.74435878205E-01  0.51100000000E-03 0.  1.
</event>
<event>
 8    1  0.1099478E+005  0.1043930E+01  0.7957747E-01            NaN
         13   -1    0    0    0    0  0.00000000000E+00  0.00000000000E+00  0.74505805969E-08  0.10566000000E+00  0.10566000000E+00 0.  1.
     999900   -1    0    0    0    0 -0.00000000000E+00 -0.00000000000E+00 -0.74505805969E-08  0.93827000000E+00  0.93827000000E+00 0.  1.
     999902    2    1    2    0    0  0.20258266483E-01 -0.43418056592E-02 -0.10816981324E-01  0.10205578858E+01  0.10202902247E+01 0.  0.
     999903    2    3    3    0    0 -0.43250467349E-01 -0.73855791686E-01  0.95284728806E-01  0.12919761833E+00  0.16957716458E-01 0.  0.
         14    1    1    2    0    0 -0.20258266483E-01  0.43418056592E-02  0.10816981324E-01  0.23372114201E-01  0.00000000000E+00 0.  1.
     999901    1    3    3    0    0  0.63508733832E-01  0.69513986026E-01 -0.10610171013E+00  0.89136026747E+00  0.88000000000E+00 0.  1.
        -11    1    4    4    0    0 -0.32608526118E-01 -0.66483390147E-01  0.77463114064E-01  0.10716413720E+00  0.51100000000E-03 0. -1.
         11    1    4    4    0    0 -0.10641941232E-01 -0.73724015386E-02  0.17821614742E-01  0.22033481129E-01  0.51100000000E-03 0.  1.
</event>
<event>
 8    1  0.1099478E+005  0.1043930E+01  0.7957747E-01            NaN
         13   -1    0    0    0    0  0.00000000000E+00  0.00000000000E+00  0.74505805969E-08  0.10566000000E+00  0.10566000000E+00 0. -1.
     999900   -1    0    0    0    0 -0.00000000000E+00 -0.00000000000E+00 -0.74505805969E-08  0.93827000000E+00  0.93827000000E+00 0.  1.
     999902    2    1    2    0    0 -0.22378916570E-01 -0.27580342016E-02  0.13208998181E-02  0.10213431136E+01  0.10210933299E+01 0.  0.
     999903    2    3    3    0    0 -0.93170391021E-01 -0.84610446014E-01 -0.40957335087E-01  0.13370653297E+00  0.18981157095E-01 0.  0.
         14    1    1    2    0    0  0.22378916570E-01  0.27580342016E-02 -0.13208998181E-02  0.22586886369E-01  0.00000000000E+00 0.  1.
     999901    1    3    3    0    0  0.70791474451E-01  0.81852411813E-01  0.42278234905E-01  0.88763658066E+00  0.88000000000E+00 0. -1.
        -11    1    4    4    0    0 -0.38319555486E-01 -0.45529086620E-01 -0.13827357672E-01  0.61096178295E-01  0.51100000000E-03 0. -1.
         11    1    4    4    0    0 -0.54850835535E-01 -0.39081359394E-01 -0.27129977415E-01  0.72610354678E-01  0.51100000000E-03 0.  1.
</event>
<event>
 8    1  0.1099478E+005  0.1043930E+01  0.7957747E-01            NaN
         13   -1    0    0    0    0  0.00000000000E+00  0.00000000000E+00  0.74505805969E-08  0.10566000000E+00  0.10566000000E+00 0. -1.
     999900   -1    0    0    0    0 -0.00000000000E+00 -0.00000000000E+00 -0.74505805969E-08  0.93827000000E+00  0.93827000000E+00 0. -1.
     999902    2    1    2    0    0  0.12235154436E-01 -0.96068051519E-02  0.17244813815E-01  0.10207055880E+01  0.10204413379E+01 0.  0.
     999903    2    3    3    0    0 -0.16917999078E-01 -0.10697731519E+00 -0.70177896027E-01  0.13055186376E+00  0.19710083235E-01 0.  0.
         14    1    1    2    0    0 -0.12235154436E-01  0.96068051519E-02 -0.17244813815E-01  0.23224412002E-01  0.00000000000E+00 0.  1.
     999901    1    3    3    0    0  0.29153153515E-01  0.97370510040E-01  0.87422709842E-01  0.89015372424E+00  0.88000000000E+00 0. -1.
        -11    1    4    4    0    0 -0.23098000933E-02 -0.71023649545E-01 -0.49213306925E-01  0.86440179724E-01  0.51100000000E-03 0.  1.
         11    1    4    4    0    0 -0.14608198985E-01 -0.35953665647E-01 -0.20964589102E-01  0.44111684033E-01  0.51100000000E-03 0. -1.
</event>
<event>
 8    1  0.1099478E+005  0.1043930E+01  0.7957747E-01            NaN
         13   -1    0    0    0    0  0.00000000000E+00  0.00000000000E+00  0.74505805969E-08  0.10566000000E+00  0.10566000000E+00 0.  1.
     999900   -1    0    0    0    0 -0.00000000000E+00 -0.00000000000E+00 -0.74505805969E-08  0.93827000000E+00  0.93827000000E+00 0. -1.
     999902    2    1    2    0    0  0.63153161288E-02 -0.22532900570E-01 -0.74548049337E-02  0.10193700948E+01  0.10190741883E+01 0.  0.
     999903    2    3    3    0    0 -0.71369627601E-01  0.66830395680E-01  0.78989241238E-01  0.12724156018E+00  0.19778495268E-01 0.  0.
         14    1    1    2    0    0 -0.63153161288E-02  0.22532900570E-01  0.74548049337E-02  0.24559905181E-01  0.00000000000E+00 0. -1.
     999901    1    3    3    0    0  0.77684943729E-01 -0.89363296250E-01 -0.86444046172E-01  0.89212853464E+00  0.88000000000E+00 0. -1.
        -11    1    4    4    0    0 -0.33190118469E-01  0.33570567810E-01  0.50538008763E-01  0.69158646877E-01  0.51100000000E-03 0. -1.
         11    1    4    4    0    0 -0.38179509132E-01  0.33259827869E-01  0.28451232475E-01  0.58082913303E-01  0.51100000000E-03 0.  1.
</event>
<event>
 8    1  0.1099478E+005  0.1043930E+01  0.7957747E-01            NaN
         13   -1    0    0    0    0  0.00000000000E+00  0.00000000000E+00  0.74505805969E-08  0.10566000000E+00  0.10566000000E+00 0. -1.
     999900   -1    0    0    0    0 -0.00000000000E+00 -0.00000000000E+00 -0.74505805969E-08  0.93827000000E+00  0.93827000000E+00 0. -1.
     999902    2    1    2    0    0  0.23253674288E-01 -0.28468141954E-02 -0.57451332983E-02  0.10198085515E+01  0.10195232403E+01 0.  0.
     999903    2    3    3    0    0 -0.71223214300E-01  0.10252894622E+00 -0.21442312569E-01  0.12836234745E+00  0.20789141554E-01 0.  0.
         14    1    1    2    0    0 -0.23253674288E-01  0.28468141954E-02  0.57451332983E-02  0.24121448455E-01  0.00000000000E+00 0.  1.
     999901    1    3    3    0    0  0.94476888588E-01 -0.10537576041E+00  0.15697179270E-01  0.89144620410E+00  0.88000000000E+00 0. -1.
        -11    1    4    4    0    0 -0.31890379101E-01  0.28968528059E-01 -0.90991004926E-02  0.44036651188E-01  0.51100000000E-03 0.  1.
         11    1    4    4    0    0 -0.39332835199E-01  0.73560418159E-01 -0.12343212076E-01  0.84325696261E-01  0.51100000000E-03 0. -1.
</event>
<event>
 8    1  0.1099478E+005  0.1043930E+01  0.7957747E-01            NaN
         13   -1    0    0    0    0  0.00000000000E+00  0.00000000000E+00  0.74505805969E-08  0.10566000000E+00  0.10566000000E+00 0.  1.
     999900   -1    0    0    0    0 -0.00000000000E+00 -0.00000000000E+00 -0.74505805969E-08  0.93827000000E+00  0.93827000000E+00 0. -1.
     999902    2    1    2    0    0  0.14312795751E-01 -0.11535897658E-01 -0.12562565510E-01  0.10216645310E+01  0.10214218829E+01 0.  0.
     999903    2    3    3    0    0 -0.11165001277E+00 -0.22127147156E-01  0.59822942973E-01  0.12969005518E+00  0.16893487307E-01 0.  0.
         14    1    1    2    0    0 -0.14312795751E-01  0.11535897658E-01  0.12562565510E-01  0.22265468986E-01  0.00000000000E+00 0.  1.
     999901    1    3    3    0    0  0.12596280853E+00  0.10591249498E-01 -0.72385508483E-01  0.89197447583E+00  0.88000000000E+00 0. -1.
        -11    1    4    4    0    0 -0.83546018642E-01 -0.95752206189E-02  0.47047397464E-01  0.96360473276E-01  0.51100000000E-03 0. -1.
         11    1    4    4    0    0 -0.28103994132E-01 -0.12551926537E-01  0.12775545508E-01  0.33329581906E-01  0.51100000000E-03 0.  1.
</event>
<event>
 8    1  0.1099478E+005  0.1043930E+01  0.7957747E-01            NaN
         13   -1    0    0    0    0  0.00000000000E+00  0.00000000000E+00  0.74505805969E-08  0.10566000000E+00  0.10566000000E+00 0.  1.
     999900   -1    0    0    0    0 -0.00000000000E+00 -0.00000000000E+00 -0.74505805969E-08  0.93827000000E+00  0.93827000000E+00 0.  1.
     999902    2    1    2    0    0  0.20974511527E-01 -0.70205745122E-02 -0.61921333717E-02  0.10209613014E+01  0.10207029038E+01 0.  0.
     999903    2    3    3    0    0  0.20093009943E-01  0.72477705583E-01 -0.10627102450E+00  0.13172762117E+00  0.20047161292E-01 0.  0.
         14    1    1    2    0    0 -0.20974511527E-01  0.70205745122E-02  0.61921333717E-02  0.22968698613E-01  0.00000000000E+00 0. -1.
     999901    1    3    3    0    0  0.88150158369E-03 -0.79498280096E-01  0.10007889113E+00  0.88923368022E+00  0.88000000000E+00 0. -1.
        -11    1    4    4    0    0  0.18069558720E-01  0.35786757053E-01 -0.44906763782E-01  0.60200327965E-01  0.51100000000E-03 0. -1.
         11    1    4    4    0    0  0.20234512231E-02  0.36690948530E-01 -0.61364260717E-01  0.71527293205E-01  0.51100000000E-03 0.  1.
</event>
<event>
 8    1  0.1099478E+005  0.1043930E+01  0.7957747E-01            NaN
         13   -1    0    0    0    0  0.00000000000E+00  0.00000000000E+00  0.74505805969E-08  0.10566000000E+00  0.10566000000E+00 0.  1.
     999900   -1    0    0    0    0 -0.00000000000E+00 -0.00000000000E+00 -0.74505805969E-08  0.93827000000E+00  0.93827000000E+00 0.  1.
     999902    2    1    2    0    0  0.18960700610E-01 -0.29709963863E-02  0.15049671809E-01  0.10195409121E+01  0.10192491569E+01 0.  0.
     999903    2    3    3    0    0 -0.45491196980E-01  0.93321870909E-01 -0.71641333504E-01  0.12772159531E+00  0.20047559684E-01 0.  0.
         14    1    1    2    0    0 -0.18960700610E-01  0.29709963863E-02 -0.15049671809E-01  0.24389087903E-01  0.00000000000E+00 0. -1.
     999901    1    3    3    0    0  0.64451897590E-01 -0.96292867296E-01  0.86691005313E-01  0.89181931679E+00  0.88000000000E+00 0. -1.
        -11    1    4    4    0    0 -0.73859504536E-02  0.26840871972E-01 -0.10753844633E-01  0.29847796698E-01  0.51100000000E-03 0. -1.
         11    1    4    4    0    0 -0.38105246526E-01  0.66480998938E-01 -0.60887488871E-01  0.97873798611E-01  0.51100000000E-03 0.  1.
</event>
<event>
 8    1  0.1099478E+005  0.1043930E+01  0.7957747E-01            NaN
         13   -1    0    0    0    0  0.00000000000E+00  0.00000000000E+00  0.74505805969E-08  0.10566000000E+00  0.10566000000E+00 0.  1.
     999900   -1    0    0    0    0 -0.00000000000E+00 -0.00000000000E+00 -0.74505805969E-08  0.93827000000E+00  0.93827000000E+00 0. -1.
     999902    2    1    2    0    0 -0.19088345108E-01 -0.49681257684E-02  0.14762752777E-01  0.10192929129E+01  0.10189951208E+01 0.  0.
     999903    2    3    3    0    0  0.12092610672E-01 -0.16829812433E-01 -0.12457150024E+00  0.12770613320E+00  0.19008523529E-01 0.  0.
         14    1    1    2    0    0  0.19088345108E-01  0.49681257684E-02 -0.14762752777E-01  0.24637087129E-01  0.00000000000E+00 0. -1.
     999901    1    3    3    0    0 -0.31180955780E-01  0.11861686664E-01  0.13933425302E+00  0.89158677967E+00  0.88000000000E+00 0.  1.
        -11    1    4    4    0    0  0.25736208612E-02 -0.12740556900E-01 -0.31815836006E-01  0.34372283256E-01  0.51100000000E-03 0.  1.
         11    1    4    4    0    0  0.95189898108E-02 -0.40892555327E-02 -0.92755664233E-01  0.93333849948E-01  0.51100000000E-03 0. -1.
</event>
<event>
 8    1  0.1099478E+005  0.1043930E+01  0.7957747E-01            NaN
         13   -1    0    0    0    0  0.00000000000E+00  0.00000000000E+00  0.74505805969E-08  0.10566000000E+00  0.10566000000E+00 0. -1.
     999900   -1    0    0    0    0 -0.00000000000E+00 -0.00000000000E+00 -0.74505805969E-08  0.93827000000E+00  0.93827000000E+00 0. -1.
     999902    2    1    2    0    0 -0.22394461985E-01  0.25164585080E-02  0.96560075118E-02  0.10194130065E+01  0.10191181456E+01 0.  0.
     999903    2    3    3    0    0 -0.83449433746E-01 -0.62135703605E-01  0.79275567677E-01  0.13219573048E+00  0.19142671496E-01 0.  0.
         14    1    1    2    0    0  0.22394461985E-01 -0.25164585080E-02 -0.96560075118E-02  0.24516993537E-01  0.00000000000E+00 0.  1.
     999901    1    3    3    0    0  0.61054971760E-01  0.64652162113E-01 -0.69619560165E-01  0.88721727598E+00  0.88000000000E+00 0. -1.
        -11    1    4    4    0    0 -0.28985700141E-01 -0.22495787385E-01  0.16941950105E-01  0.40416853627E-01  0.51100000000E-03 0. -1.
         11    1    4    4    0    0 -0.54463733605E-01 -0.39639916220E-01  0.62333617572E-01  0.91778876855E-01  0.51100000000E-03 0.  1.
</event>
<event>
 8    1  0.1099478E+005  0.1043930E+01  0.7957747E-01            NaN
         13   -1    0    0    0    0  0.00000000000E+00  0.00000000000E+00  0.74505805969E-08  0.10566000000E+00  0.10566000000E+00 0.  1.
     999900   -1    0    0    0    0 -0.00000000000E+00 -0.00000000000E+00 -0.74505805969E-08  0.93827000000E+00  0.93827000000E+00 0.  1.
     999902    2    1    2    0    0 -0.16997703964E-01  0.18413828991E-01  0.18479623913E-02  0.10188022066E+01  0.10184922828E+01 0.  0.
     999903    2    3    3    0    0 -0.47355023293E-01  0.11362916062E+00  0.43654832899E-01  0.13215947094E+00  0.20156808966E-01 0.  0.
         14    1    1    2    0    0  0.16997703964E-01 -0.18413828991E-01 -0.18479623913E-02  0.25127793440E-01  0.00000000000E+00 0. -1.
     999901    1    3    3    0    0  0.30357319329E-01 -0.95215331631E-01 -0.41806870507E-01  0.88664273562E+00  0.88000000000E+00 0.  1.
        -11    1    4    4    0    0 -0.12320281223E-01  0.24171583488E-01  0.18515188112E-01  0.32850085077E-01  0.51100000000E-03 0.  1.
         11    1    4    4    0    0 -0.35034742070E-01  0.89457577134E-01  0.25139644787E-01  0.99309385858E-01  0.51100000000E-03 0. -1.
</event>
<event>
 8    1  0.1099478E+005  0.1043930E+01  0.7957747E-01            NaN
         13   -1    0    0    0    0  0.00000000000E+00  0.00000000000E+00  0.74505805969E-08  0.10566000000E+00  0.10566000000E+00 0.  1.
     999900   -1    0    0    0    0 -0.00000000000E+00 -0.00000000000E+00 -0.74505805969E-08  0.93827000000E+00  0.93827000000E+00 0.  1.
     999902    2    1    2    0    0 -0.22092605163E-02 -0.14213752259E-01  0.18820507289E-01  0.10202419634E+01  0.10199669312E+01 0.  0.
     999903    2    3    3    0    0 -0.57025484488E-01 -0.11797417088E+00  0.44222913149E-02  0.13233523881E+00  0.17979096040E-01 0.  0.
         14    1    1    2    0    0  0.22092605163E-02  0.14213752259E-01 -0.18820507289E-01  0.23688036641E-01  0.00000000000E+00 0. -1.
     999901    1    3    3    0    0  0.54816223972E-01  0.10376041862E+00  0.14398215974E-01  0.88790672455E+00  0.88000000000E+00 0. -1.
        -11    1    4    4    0    0 -0.50101732288E-01 -0.11239734540E+00  0.63530653370E-02  0.12322325021E+00  0.51100000000E-03 0. -1.
         11    1    4    4    0    0 -0.69237522008E-02 -0.55768254768E-02 -0.19307740221E-02  0.91119886008E-02  0.51100000000E-03 0.  1.
</event>
<event>
 8    1  0.1099478E+005  0.1043930E+01  0.7957747E-01            NaN
         13   -1    0    0    0    0  0.00000000000E+00  0.00000000000E+00  0.74505805969E-08  0.10566000000E+00  0.10566000000E+00 0. -1.
     999900   -1    0    0    0    0 -0.00000000000E+00 -0.00000000000E+00 -0.74505805969E-08  0.93827000000E+00  0.93827000000E+00 0. -1.
     999902    2    1    2    0    0 -0.20907132181E-01  0.18249653243E-02  0.16688980029E-01  0.10171165569E+01  0.10167630647E+01 0.  0.
     999903    2    3    3    0    0  0.13787816668E-01  0.16869495132E-01  0.12616552904E+00  0.12952701659E+00  0.19616920126E-01 0.  0.
         14    1    1    2    0    0  0.20907132181E-01 -0.18249653243E-02 -0.16688980029E-01  0.26813443062E-01  0.00000000000E+00 0.  1.
     999901    1    3    3    0    0 -0.34694948849E-01 -0.15044529808E-01 -0.10947654901E+00  0.88758954035E+00  0.88000000000E+00 0. -1.
        -11    1    4    4    0    0  0.15599674720E-01  0.82245186277E-02  0.53710879195E-01  0.56534168632E-01  0.51100000000E-03 0. -1.
         11    1    4    4    0    0 -0.18118580524E-02  0.86449765042E-02  0.72454649841E-01  0.72992847958E-01  0.51100000000E-03 0.  1.
</event>
<event>
 8    1  0.1099478E+005  0.1043930E+01  0.7957747E-01            NaN
         13   -1    0    0    0    0  0.00000000000E+00  0.00000000000E+00  0.74505805969E-08  0.10566000000E+00  0.10566000000E+00 0.  1.
     999900   -1    0    0    0    0 -0.00000000000E+00 -0.00000000000E+00 -0.74505805969E-08  0.93827000000E+00  0.93827000000E+00 0.  1.
     999902    2    1    2    0    0  0.10345700914E-01 -0.97734812509E-02  0.18849835860E-01  0.10203107118E+01  0.10200372924E+01 0.  0.
     999903    2    3    3    0    0  0.31602867608E-02  0.51872730924E-01 -0.11526145819E+00  0.12798917511E+00  0.19881085884E-01 0.  0.
         14    1    1    2    0    0 -0.10345700914E-01  0.97734812509E-02 -0.18849835860E-01  0.23619288201E-01  0.00000000000E+00 0. -1.
     999901    1    3    3    0    0  0.71854141527E-02 -0.61646212175E-01  0.13411129405E+00  0.89232153669E+00  0.88000000000E+00 0. -1.
        -11    1    4    4    0    0  0.84592158080E-02  0.35746522747E-01 -0.61795385038E-01  0.71890910090E-01  0.51100000000E-03 0.  1.
         11    1    4    4    0    0 -0.52989290471E-02  0.16126208176E-01 -0.53466073148E-01  0.56098265018E-01  0.51100000000E-03 0. -1.
</event>
<event>
 8    1  0.1099478E+005  0.1043930E+01  0.7957747E-01            NaN
         13   -1    0    0    0    0  0.00000000000E+00  0.00000000000E+00  0.74505805969E-08  0.10566000000E+00  0.10566000000E+00 0.  1.
     999900   -1    0    0    0    0 -0.00000000000E+00 -0.00000000000E+00 -0.74505805969E-08  0.93827000000E+00  0.93827000000E+00 0. -1.
     999902    2    1    2    0    0  0.15283008461E-01 -0.15682179103E-01 -0.25467153556E-02  0.10218848906E+01  0.10216470735E+01 0.  0.
     999903    2    3    3    0    0  0.33007122132E-01 -0.79063134970E-01 -0.10119111192E+00  0.13393105918E+00  0.18906032355E-01 0.  0.
         14    1    1    2    0    0 -0.15283008461E-01  0.15682179103E-01  0.25467153556E-02  0.22045109393E-01  0.00000000000E+00 0.  1.
     999901    1    3    3    0    0 -0.17724113671E-01  0.63380955868E-01  0.98644396562E-01  0.88795383143E+00  0.88000000000E+00 0.  1.
        -11    1    4    4    0    0  0.86180232877E-02 -0.16929945904E-01 -0.11806744315E-01  0.22373058039E-01  0.51100000000E-03 0.  1.
         11    1    4    4    0    0  0.24389098844E-01 -0.62133189066E-01 -0.89384367603E-01  0.11155800114E+00  0.51100000000E-03 0. -1.
</event>
<event>
 8    1  0.1099478E+005  0.1043930E+01  0.7957747E-01            NaN
         13   -1    0    0    0    0  0.00000000000E+00  0.00000000000E+00  0.74505805969E-08  0.10566000000E+00  0.10566000000E+00 0. -1.
     999900   -1    0    0    0    0 -0.00000000000E+00 -0.00000000000E+00 -0.74505805969E-08  0.93827000000E+00  0.93827000000E+00 0.  1.
     999902    2    1    2    0    0 -0.14477803276E-01 -0.15349758198E-01  0.11772529725E-01  0.10197677501E+01  0.10194814612E+01 0.  0.
     999903    2    3    3    0    0  0.52951915980E-01  0.81808160004E-01  0.82710482476E-01  0.12902725969E+00  0.17621843878E-01 0.  0.
         14    1    1    2    0    0  0.14477803276E-01  0.15349758198E-01 -0.11772529725E-01  0.24162249907E-01  0.00000000000E+00 0. -1.
     999901    1    3    3    0    0 -0.67429719256E-01 -0.97157918202E-01 -0.70937952751E-01  0.89074049041E+00  0.88000000000E+00 0. -1.
        -11    1    4    4    0    0  0.25795332185E-01  0.36419178234E-01  0.49115545948E-01  0.66365304795E-01  0.51100000000E-03 0. -1.
         11    1    4    4    0    0  0.27156583794E-01  0.45388981771E-01  0.33594936529E-01  0.62661954892E-01  0.51100000000E-03 0.  1.
</event>
<event>
 8    1  0.1099478E+005  0.1043930E+01  0.7957747E-01            NaN
         13   -1    0    0    0    0  0.00000000000E+00  0.00000000000E+00  0.74505805969E-08  0.10566000000E+00  0.10566000000E+00 0. -1.
     999900   -1    0    0    0    0 -0.00000000000E+00 -0.00000000000E+00 -0.74505805969E-08  0.93827000000E+00  0.93827000000E+00 0. -1.
     999902    2    1    2    0    0 -0.11550153985E-02  0.15468734367E-01  0.17649415593E-01  0.10204328156E+01  0.10201622486E+01 0.  0.
     999903    2    3    3    0    0 -0.36954024698E-01  0.11849234641E+00  0.44181213644E-01  0.13330296603E+00  0.20289529658E-01 0.  0.
         14    1    1    2    0    0  0.11550153985E-02 -0.15468734367E-01 -0.17649415593E-01  0.23497184390E-01  0.00000000000E+00 0.  1.
     999901    1    3    3    0    0  0.35799009299E-01 -0.10302361205E+00 -0.26531798052E-01  0.88712984958E+00  0.88000000000E+00 0. -1.
        -11    1    4    4    0    0 -0.10213818133E-01  0.32783255955E-01  0.22115339083E-01  0.40846215193E-01  0.51100000000E-03 0. -1.
         11    1    4    4    0    0 -0.26740206565E-01  0.85709090459E-01  0.22065874561E-01  0.92456750838E-01  0.51100000000E-03 0.  1.
</event>
<event>
 8    1  0.1099478E+005  0.1043930E+01  0.7957747E-01            NaN
         13   -1    0    0    0    0  0.00000000000E+00  0.00000000000E+00  0.74505805969E-08  0.10566000000E+00  0.10566000000E+00 0. -1.
     999900   -1    0    0    0    0 -0.00000000000E+00 -0.00000000000E+00 -0.74505805969E-08  0.93827000000E+00  0.93827000000E+00 0.  1.
     999902    2    1    2    0    0 -0.23352030096E-03  0.22995965787E-01 -0.77827683652E-03  0.10209196830E+01  0.10206603374E+01 0.  0.
     999903    2    3    3    0    0  0.35905107655E-01  0.41137728728E-01  0.11831049059E+00  0.13197803219E+00  0.20960422645E-01 0.  0.
         14    1    1    2    0    0  0.23352030096E-03 -0.22995965787E-01  0.77827683652E-03  0.23010317013E-01  0.00000000000E+00 0.  1.
     999901    1    3    3    0    0 -0.36138627956E-01 -0.18141762942E-01 -0.11908876742E+00  0.88894165080E+00  0.88000000000E+00 0.  1.
        -11    1    4    4    0    0  0.12510568411E-01  0.24167650300E-02  0.33682842044E-01  0.36015969296E-01  0.51100000000E-03 0. -1.
         11    1    4    4    0    0  0.23394539244E-01  0.38720963698E-01  0.84627648543E-01  0.95962062895E-01  0.51100000000E-03 0.  1.
</event>
<event>
 8    1  0.1099478E+005  0.1043930E+01  0.7957747E-01            NaN
         13   -1    0    0    0    0  0.00000000000E+00  0.00000000000E+00  0.74505805969E-08  0.10566000000E+00  0.10566000000E+00 0. -1.
     999900   -1    0    0    0    0 -0.00000000000E+00 -0.00000000000E+00 -0.74505805969E-08  0.93827000000E+00  0.93827000000E+00 0.  1.
     999902    2    1    2    0    0 -0.14311148028E-01 -0.79453264747E-02  0.14752809906E-01  0.10218940618E+01  0.10216564447E+01 0.  0.
     999903    2    3    3    0    0  0.86208633763E-01 -0.46339096627E-01  0.87085372317E-01  0.13239402940E+00  0.19106976150E-01 0.  0.
         14    1    1    2    0    0  0.14311148028E-01  0.79453264747E-02 -0.14752809906E-01  0.22035938164E-01  0.00000000000E+00 0.  1.
     999901    1    3    3    0    0 -0.10051978179E+00  0.38393770153E-01 -0.72332562411E-01  0.88950003244E+00  0.88000000000E+00 0.  1.
        -11    1    4    4    0    0  0.41491241540E-01 -0.24761801652E-01  0.30637587485E-01  0.57215319920E-01  0.51100000000E-03 0. -1.
         11    1    4    4    0    0  0.44717392223E-01 -0.21577294975E-01  0.56447784832E-01  0.75178709480E-01  0.51100000000E-03 0.  1.
</event>
<event>
 8    1  0.1099478E+005  0.1043930E+01  0.7957747E-01            NaN
         13   -1    0    0    0    0  0.00000000000E+00  0.00000000000E+00  0.74505805969E-08  0.10566000000E+00  0.10566000000E+00 0. -1.
     999900   -1    0    0    0    0 -0.00000000000E+00 -0.00000000000E+00 -0.74505805969E-08  0.93827000000E+00  0.93827000000E+00 0. -1.
     999902    2    1    2    0    0  0.91501247774E-02 -0.12945283390E-01  0.17497823733E-01  0.10203190072E+01  0.10200457820E+01 0.  0.
     999903    2    3    3    0    0  0.11094875416E+00  0.27411916264E-01  0.63657431124E-01  0.13233118417E+00  0.19955815279E-01 0.  0.
         14    1    1    2    0    0 -0.91501247774E-02  0.12945283390E-01 -0.17497823733E-01  0.23610992798E-01  0.00000000000E+00 0.  1.
     999901    1    3    3    0    0 -0.10179862938E+00 -0.40357199654E-01 -0.46159607391E-01  0.88798782304E+00  0.88000000000E+00 0.  1.
        -11    1    4    4    0    0  0.76307886903E-01  0.22130046081E-01  0.53700850813E-01  0.95899296360E-01  0.51100000000E-03 0. -1.
         11    1    4    4    0    0  0.34640867252E-01  0.52818701824E-02  0.99565803105E-02  0.36431887806E-01  0.51100000000E-03 0.  1.
</event>
<event>
 8    1  0.1099478E+005  0.1043930E+01  0.7957747E-01            NaN
         13   -1    0    0    0    0  0.00000000000E+00  0.00000000000E+00  0.74505805969E-08  0.10566000000E+00  0.10566000000E+00 0.  1.
     999900   -1    0    0    0    0 -0.00000000000E+00 -0.00000000000E+00 -0.74505805969E-08  0.93827000000E+00  0.93827000000E+00 0. -1.
     999902    2    1    2    0    0 -0.83842388041E-02  0.17043118511E-01 -0.12996272435E-01  0.10209155166E+01  0.10206560761E+01 0.  0.
     999903    2    3    3    0    0 -0.94934888983E-01 -0.26064141463E-01 -0.82484056408E-01  0.13289648357E+00  0.34145031361E-01 0.  0.
         14    1    1    2    0    0  0.83842388041E-02 -0.17043118511E-01  0.12996272435E-01  0.23014483399E-01  0.00000000000E+00 0.  1.
     999901    1    3    3    0    0  0.86550650179E-01  0.43107259974E-01  0.69487783973E-01  0.88801903303E+00  0.88000000000E+00 0. -1.
        -11    1    4    4    0    0 -0.19695758424E-01  0.76224201963E-02 -0.11187785071E-01  0.23905058991E-01  0.51100000000E-03 0. -1.
         11    1    4    4    0    0 -0.75239130559E-01 -0.33686561659E-01 -0.71296271337E-01  0.10899142458E+00  0.51100000000E-03 0.  1.
</event>
<event>
 8    1  0.1099478E+005  0.1043930E+01  0.7957747E-01            NaN
         13   -1    0    0    0    0  0.00000000000E+00  0.00000000000E+00  0.74505805969E-08  0.10566000000E+00  0.10566000000E+00 0.  1.
     999900   -1    0    0    0    0 -0.00000000000E+00 -0.00000000000E+00 -0.74505805969E-08  0.93827000000E+00  0.93827000000E+00 0. -1.
     999902    2    1    2    0    0 -0.14510774451E-01  0.86497154545E-02 -0.10548905313E-01  0.10240136862E+01  0.10238199890E+01 0.  0.
     999903    2    3    3    0    0 -0.40514580343E-01  0.12359662863E+00  0.30763452190E-01  0.13519666247E+00  0.20351651585E-01 0.  0.
         14    1    1    2    0    0  0.14510774451E-01 -0.86497154545E-02  0.10548905313E-01  0.19916313813E-01  0.00000000000E+00 0.  1.
     999901    1    3    3    0    0  0.26003805892E-01 -0.11494691318E+00 -0.41312357503E-01  0.88881702372E+00  0.88000000000E+00 0.  1.
        -11    1    4    4    0    0 -0.27498545154E-01  0.79758449932E-01  0.99546519311E-02  0.84952554624E-01  0.51100000000E-03 0. -1.
         11    1    4    4    0    0 -0.13016035189E-01  0.43838178700E-01  0.20808800259E-01  0.50244107844E-01  0.51100000000E-03 0.  1.
</event>
<event>
 8    1  0.1099478E+005  0.1043930E+01  0.7957747E-01            NaN
         13   -1    0    0    0    0  0.00000000000E+00  0.00000000000E+00  0.74505805969E-08  0.10566000000E+00  0.10566000000E+00 0.  1.
     999900   -1    0    0    0    0 -0.00000000000E+00 -0.00000000000E+00 -0.74505805969E-08  0.93827000000E+00  0.93827000000E+00 0.  1.
     999902    2    1    2    0    0 -0.77549466485E-02 -0.12298093598E-01  0.18659477439E-01  0.10202750132E+01  0.10200007569E+01 0.  0.
     999903    2    3    3    0    0 -0.42613284657E-01 -0.12332443397E+00  0.20120591085E-01  0.13261286638E+00  0.12511039181E-01 0.  0.
         14    1    1    2    0    0  0.77549466485E-02  0.12298093598E-01 -0.18659477439E-01  0.23654986831E-01  0.00000000000E+00 0. -1.
     999901    1    3    3    0    0  0.34858338009E-01  0.11102634037E+00 -0.14611136459E-02  0.88766214679E+00  0.88000000000E+00 0.  1.
        -11    1    4    4    0    0 -0.14596021945E-01 -0.61316508361E-01  0.97301145774E-02  0.63778478383E-01  0.51100000000E-03 0.  1.
         11    1    4    4    0    0 -0.28017262713E-01 -0.62007925608E-01  0.10390476508E-01  0.68834387999E-01  0.51100000000E-03 0. -1.
</event>
<event>
 8    1  0.1099478E+005  0.1043930E+01  0.7957747E-01            NaN
         13   -1    0    0    0    0  0.00000000000E+00  0.00000000000E+00  0.74505805969E-08  0.10566000000E+00  0.10566000000E+00 0.  1.
     999900   -1    0    0    0    0 -0.00000000000E+00 -0.00000000000E+00 -0.74505805969E-08  0.93827000000E+00  0.93827000000E+00 0. -1.
     999902    2    1    2    0    0  0.16494335696E-01  0.12862589706E-01 -0.10988929514E-01  0.10203023489E+01  0.10200287336E+01 0.  0.
     999903    2    3    3    0    0 -0.12002875555E+00 -0.33051780734E-01  0.22008070352E-01  0.12798206681E+00  0.19893011203E-01 0.  0.
         14    1    1    2    0    0 -0.16494335696E-01 -0.12862589706E-01  0.10988929514E-01  0.23627651086E-01  0.00000000000E+00 0.  1.
     999901    1    3    3    0    0  0.13652309125E+00  0.45914370440E-01 -0.32996999866E-01  0.89232028211E+00  0.88000000000E+00 0.  1.
        -11    1    4    4    0    0 -0.53221631544E-01 -0.17593969805E-01  0.19536535588E-01  0.59363517260E-01  0.51100000000E-03 0.  1.
         11    1    4    4    0    0 -0.66807124008E-01 -0.15457810928E-01  0.24715347642E-02  0.68618549548E-01  0.51100000000E-03 0. -1.
</event>
<event>
 8    1  0.1099478E+005  0.1043930E+01  0.7957747E-01            NaN
         13   -1    0    0    0    0  0.00000000000E+00  0.00000000000E+00  0.74505805969E-08  0.10566000000E+00  0.10566000000E+00 0. -1.
     999900   -1    0    0    0    0 -0.00000000000E+00 -0.00000000000E+00 -0.74505805969E-08  0.93827000000E+00  0.93827000000E+00 0.  1.
     999902    2    1    2    0    0 -0.11313216834E-01 -0.20286972008E-01  0.58556310831E-02  0.10199750731E+01  0.10196937340E+01 0.  0.
     999903    2    3    3    0    0 -0.11268961963E+00  0.60695894654E-01 -0.13428345623E-01  0.13025192991E+00  0.20057486834E-01 0.  0.
         14    1    1    2    0    0  0.11313216834E-01  0.20286972008E-01 -0.58556310831E-02  0.23954926920E-01  0.00000000000E+00 0.  1.
     999901    1    3    3    0    0  0.10137640280E+00 -0.80982866661E-01  0.19283976706E-01  0.88972314317E+00  0.88000000000E+00 0.  1.
        -11    1    4    4    0    0 -0.40454182107E-01  0.11217218834E-01 -0.33805295327E-02  0.42119543554E-01  0.51100000000E-03 0.  1.
         11    1    4    4    0    0 -0.72235437526E-01  0.49478675819E-01 -0.10047816090E-01  0.88132386354E-01  0.51100000000E-03 0. -1.
</event>
<event>
 8    1  0.1099478E+005  0.1043930E+01  0.7957747E-01            NaN
         13   -1    0    0    0    0  0.00000000000E+00  0.00000000000E+00  0.74505805969E-08  0.10566000000E+00  0.10566000000E+00 0.  1.
     999900   -1    0    0    0    0 -0.00000000000E+00 -0.00000000000E+00 -0.74505805969E-08  0.93827000000E+00  0.93827000000E+00 0. -1.
     999902    2    1    2    0    0  0.14588499990E-01  0.13124545404E-01 -0.16816172919E-01  0.10180869797E+01  0.10177589285E+01 0.  0.
     999903    2    3    3    0    0  0.39938805624E-02 -0.57133929146E-01  0.11057521924E+00  0.12607965579E+00  0.19722158897E-01 0.  0.
         14    1    1    2    0    0 -0.14588499990E-01 -0.13124545404E-01  0.16816172919E-01  0.25843020251E-01  0.00000000000E+00 0.  1.
     999901    1    3    3    0    0  0.10594619428E-01  0.70258474550E-01 -0.12739139216E+00  0.89200732396E+00  0.88000000000E+00 0. -1.
        -11    1    4    4    0    0  0.23802583689E-02 -0.23405677092E-01  0.66589326976E-01  0.70625002216E-01  0.51100000000E-03 0. -1.
         11    1    4    4    0    0  0.16136221934E-02 -0.33728252054E-01  0.43985892265E-01  0.55454653570E-01  0.51100000000E-03 0.  1.
</event>
<event>
 8    1  0.1099478E+005  0.1043930E+01  0.7957747E-01            NaN
         13   -1    0    0    0    0  0.00000000000E+00  0.00000000000E+00  0.74505805969E-08  0.10566000000E+00  0.10566000000E+00 0. -1.
     999900   -1    0    0    0    0 -0.00000000000E+00 -0.00000000000E+00 -0.74505805969E-08  0.93827000000E+00  0.93827000000E+00 0.  1.
     999902    2    1    2    0    0  0.16761470475E-01 -0.14787705622E-01  0.69539373096E-02  0.10205210194E+01  0.10202525034E+01 0.  0.
     999903    2    3    3    0    0 -0.12580769875E+00  0.16142937763E-01  0.40115297593E-02  0.12850569973E+00  0.20234895312E-01 0.  0.
         14    1    1    2    0    0 -0.16761470475E-01  0.14787705622E-01 -0.69539373096E-02  0.23408980630E-01  0.00000000000E+00 0.  1.
     999901    1    3    3    0    0  0.14256916922E+00 -0.30930643385E-01  0.29424075503E-02  0.89201531964E+00  0.88000000000E+00 0.  1.
        -11    1    4    4    0    0 -0.30105443986E-01  0.40814754609E-02 -0.76755341652E-02  0.31339609846E-01  0.51100000000E-03 0. -1.
         11    1    4    4    0    0 -0.95702254759E-01  0.12061462302E-01  0.11687063925E-01  0.97166089883E-01  0.51100000000E-03 0.  1.
</event>
<event>
 8    1  0.1099478E+005  0.1043930E+01  0.7957747E-01            NaN
         13   -1    0    0    0    0  0.00000000000E+00  0.00000000000E+00  0.74505805969E-08  0.10566000000E+00  0.10566000000E+00 0.  1.
     999900   -1    0    0    0    0 -0.00000000000E+00 -0.00000000000E+00 -0.74505805969E-08  0.93827000000E+00  0.93827000000E+00 0.  1.
     999902    2    1    2    0    0  0.25485862317E-02  0.58381123851E-02 -0.22889176491E-01  0.10201709333E+01  0.10198942298E+01 0.  0.
     999903    2    3    3    0    0 -0.36773078196E-01  0.11626961020E+00 -0.46584503524E-01  0.13208153608E+00  0.20113047207E-01 0.  0.
         14    1    1    2    0    0 -0.25485862317E-02 -0.58381123851E-02  0.22889176491E-01  0.23759066657E-01  0.00000000000E+00 0.  1.
     999901    1    3    3    0    0  0.39321664428E-01 -0.11043149782E+00  0.23695327033E-01  0.88808939726E+00  0.88000000000E+00 0. -1.
        -11    1    4    4    0    0 -0.20147911902E-01  0.71331759724E-01 -0.17973115450E-01  0.76272224953E-01  0.51100000000E-03 0.  1.
         11    1    4    4    0    0 -0.16625166294E-01  0.44937850481E-01 -0.28611388073E-01  0.55809311128E-01  0.51100000000E-03 0. -1.
</event>
<event>
 8    1  0.1099478E+005  0.1043930E+01  0.7957747E-01            NaN
         13   -1    0    0    0    0  0.00000000000E+00  0.00000000000E+00  0.74505805969E-08  0.10566000000E+00  0.10566000000E+00 0.  1.
     999900   -1    0    0    0    0 -0.00000000000E+00 -0.00000000000E+00 -0.74505805969E-08  0.93827000000E+00  0.93827000000E+00 0. -1.
     999902    2    1    2    0    0 -0.90799140367E-02  0.24193876358E-01  0.19806490563E-02  0.10180126031E+01  0.10176826365E+01 0.  0.
     999903    2    3    3    0    0  0.76276452998E-01 -0.46098825354E-01  0.88063658896E-01  0.12692503282E+00  0.20286866592E-01 0.  0.
         14    1    1    2    0    0  0.90799140367E-02 -0.24193876358E-01 -0.19806490563E-02  0.25917396914E-01  0.00000000000E+00 0. -1.
     999901    1    3    3    0    0 -0.85356367035E-01  0.70292701712E-01 -0.86083009839E-01  0.89108757027E+00  0.88000000000E+00 0. -1.
        -11    1    4    4    0    0  0.32931881785E-01 -0.21638586235E-01  0.52983678515E-01  0.66032329674E-01  0.51100000000E-03 0. -1.
         11    1    4    4    0    0  0.43344571213E-01 -0.24460239119E-01  0.35079980381E-01  0.60892703142E-01  0.51100000000E-03 0.  1.
</event>
<event>
 8    1  0.1099478E+005  0.1043930E+01  0.7957747E-01            NaN
         13   -1    0    0    0    0  0.00000000000E+00  0.00000000000E+00  0.74505805969E-08  0.10566000000E+00  0.10566000000E+00 0.  1.
     999900   -1    0    0    0    0 -0.00000000000E+00 -0.00000000000E+00 -0.74505805969E-08  0.93827000000E+00  0.93827000000E+00 0. -1.
     999902    2    1    2    0    0  0.13279513039E-01 -0.15532599624E-01 -0.64313299997E-02  0.10225064353E+01  0.10222819773E+01 0.  0.
     999903    2    3    3    0    0 -0.66514682644E-01 -0.14519731393E-01 -0.11207839962E+00  0.13260225909E+00  0.19666363357E-01 0.  0.
         14    1    1    2    0    0 -0.13279513039E-01  0.15532599624E-01  0.64313299997E-02  0.21423564671E-01  0.00000000000E+00 0.  1.
     999901    1    3    3    0    0  0.79794195684E-01 -0.10128682315E-02  0.10564706962E+00  0.88990417624E+00  0.88000000000E+00 0.  1.
        -11    1    4    4    0    0 -0.12731810221E-01  0.46623262912E-02 -0.25562379581E-01  0.28940156337E-01  0.51100000000E-03 0.  1.
         11    1    4    4    0    0 -0.53782872423E-01 -0.19182057684E-01 -0.86516020038E-01  0.10366210275E+00  0.51100000000E-03 0. -1.
</event>
<event>
 7    1  0.1099478E+005  0.1043930E+01  0.7957747E-01            NaN
         13   -1    0    0    0    0  0.00000000000E+00  0.00000000000E+00  0.74505805969E-08  0.10566000000E+00  0.10566000000E+00 0.  1.
     999900   -1    0    0    0    0 -0.00000000000E+00 -0.00000000000E+00 -0.74505805969E-08  0.93827000000E+00  0.93827000000E+00 0. -1.
     999903    2    1    2    0    0 -0.10343240848E+00  0.16533609377E-01 -0.25097454546E-01  0.10950090615E+00  0.19721634334E-01 0.  0.
         14    1    1    2    0    0  0.32111482416E-01 -0.16167464007E-01 -0.34112969809E-01  0.49560356178E-01  0.00000000000E+00 0. -1.
     999901    1    1    2    0    0  0.71320926060E-01 -0.36614536947E-03  0.59210424355E-01  0.88486873767E+00  0.88000000000E+00 0. -1.
        -11    1    3    3    0    0 -0.74244012818E-02  0.64986362945E-02 -0.54492397922E-03  0.98950528662E-02  0.51100000000E-03 0.  1.
         11    1    3    3    0    0 -0.96008007194E-01  0.10034973082E-01 -0.24552530567E-01  0.99605853284E-01  0.51100000000E-03 0. -1.
</event>
<event>
 8    1  0.1099478E+005  0.1043930E+01  0.7957747E-01            NaN
         13   -1    0    0    0    0  0.00000000000E+00  0.00000000000E+00  0.74505805969E-08  0.10566000000E+00  0.10566000000E+00 0.  1.
     999900   -1    0    0    0    0 -0.00000000000E+00 -0.00000000000E+00 -0.74505805969E-08  0.93827000000E+00  0.93827000000E+00 0. -1.
     999902    2    1    2    0    0 -0.11960223010E-01  0.19309987579E-01  0.48941977850E-02  0.10206947740E+01  0.10204302749E+01 0.  0.
     999903    2    3    3    0    0  0.85654186106E-01 -0.90322855421E-01  0.23972683041E-01  0.12833166309E+00  0.19986705855E-01 0.  0.
         14    1    1    2    0    0  0.11960223010E-01 -0.19309987579E-01 -0.48941977850E-02  0.23235225988E-01  0.00000000000E+00 0.  1.
     999901    1    3    3    0    0 -0.97614409116E-01  0.10963284300E+00 -0.19078485256E-01  0.89236311092E+00  0.88000000000E+00 0. -1.
        -11    1    4    4    0    0  0.85689937386E-01 -0.84959598871E-01  0.23351473794E-01  0.12290830427E+00  0.51100000000E-03 0.  1.
         11    1    4    4    0    0 -0.35751279452E-04 -0.53632565493E-02  0.62120924638E-03  0.54233588205E-02  0.51100000000E-03 0. -1.
</event>
<event>
 8    1  0.1099478E+005  0.1043930E+01  0.7957747E-01            NaN
         13   -1    0    0    0    0  0.00000000000E+00  0.00000000000E+00  0.74505805969E-08  0.10566000000E+00  0.10566000000E+00 0. -1.
     999900   -1    0    0    0    0 -0.00000000000E+00 -0.00000000000E+00 -0.74505805969E-08  0.93827000000E+00  0.93827000000E+00 0. -1.
     999902    2    1    2    0    0  0.18050721385E-01 -0.12745640108E-01 -0.22018219172E-02  0.10217235166E+01  0.10214821665E+01 0.  0.
     999903    2    3    3    0    0  0.39792178690E-01 -0.97790545311E-01  0.79074151754E-01  0.13362942771E+00  0.21393789681E-01 0.  0.
         14    1    1    2    0    0 -0.18050721385E-01  0.12745640108E-01  0.22018219172E-02  0.22206483378E-01  0.00000000000E+00 0.  1.
     999901    1    3    3    0    0 -0.21741457305E-01  0.85044905204E-01 -0.81275973671E-01  0.88809408891E+00  0.88000000000E+00 0.  1.
        -11    1    4    4    0    0  0.23276230477E-01 -0.60510599172E-01  0.61019433119E-01  0.89033408654E-01  0.51100000000E-03 0. -1.
         11    1    4    4    0    0  0.16515948213E-01 -0.37279946139E-01  0.18054718635E-01  0.44596019054E-01  0.51100000000E-03 0.  1.
</event>
<event>
 8    1  0.1099478E+005  0.1043930E+01  0.7957747E-01            NaN
         13   -1    0    0    0    0  0.00000000000E+00  0.00000000000E+00  0.74505805969E-08  0.10566000000E+00  0.10566000000E+00 0.  1.
     999900   -1    0    0    0    0 -0.00000000000E+00 -0.00000000000E+00 -0.74505805969E-08  0.93827000000E+00  0.93827000000E+00 0.  1.
     999902    2    1    2    0    0 -0.78387269679E-03 -0.79529505092E-02  0.22647829082E-01  0.10199135881E+01  0.10196307857E+01 0.  0.
     999903    2    3    3    0    0  0.84660834260E-01  0.45324301988E-01  0.87913246578E-01  0.13177010966E+00  0.20319292996E-01 0.  0.
         14    1    1    2    0    0  0.78387269679E-03  0.79529505092E-02 -0.22647829082E-01  0.24016411896E-01  0.00000000000E+00 0. -1.
     999901    1    3    3    0    0 -0.85444706957E-01 -0.53277252497E-01 -0.65265417495E-01  0.88814347844E+00  0.88000000000E+00 0.  1.
        -11    1    4    4    0    0  0.40936212837E-01  0.29980133461E-01  0.55605115622E-01  0.75277964426E-01  0.51100000000E-03 0. -1.
         11    1    4    4    0    0  0.43724621423E-01  0.15344168527E-01  0.32308130955E-01  0.56492145235E-01  0.51100000000E-03 0.  1.
</event>
<event>
 8    1  0.1099478E+005  0.1043930E+01  0.7957747E-01            NaN
         13   -1    0    0    0    0  0.00000000000E+00  0.00000000000E+00  0.74505805969E-08  0.10566000000E+00  0.10566000000E+00 0. -1.
     999900   -1    0    0    0    0 -0.00000000000E+00 -0.00000000000E+00 -0.74505805969E-08  0.93827000000E+00  0.93827000000E+00 0. -1.
     999902    2    1    2    0    0 -0.19559664813E-01 -0.10558592484E-02  0.13171200924E-01  0.10203254271E+01  0.10200523523E+01 0.  0.
     999903    2    3    3    0    0  0.10512150272E+00  0.58248883201E-01  0.42839972194E-01  0.12906638398E+00  0.19478334810E-01 0.  0.
         14    1    1    2    0    0  0.19559664813E-01  0.10558592484E-02 -0.13171200924E-01  0.23604572865E-01  0.00000000000E+00 0.  1.
     999901    1    3    3    0    0 -0.12468116754E+00 -0.59304742449E-01 -0.29668771271E-01  0.89125904315E+00  0.88000000000E+00 0. -1.
        -11    1    4    4    0    0  0.47619670074E-02 -0.94139530874E-03 -0.12336331045E-03  0.48825090285E-02  0.51100000000E-03 0. -1.
         11    1    4    4    0    0  0.10035953572E+00  0.59190278510E-01  0.42963335504E-01  0.12418387495E+00  0.51100000000E-03 0.  1.
</event>
<event>
 8    1  0.1099478E+005  0.1043930E+01  0.7957747E-01            NaN
         13   -1    0    0    0    0  0.00000000000E+00  0.00000000000E+00  0.74505805969E-08  0.10566000000E+00  0.10566000000E+00 0.  1.
     999900   -1    0    0    0    0 -0.00000000000E+00 -0.00000000000E+00 -0.74505805969E-08  0.93827000000E+00  0.93827000000E+00 0. -1.
     999902    2    1    2    0    0  0.58337359878E-02  0.15951837973E-01 -0.16283553024E-01  0.10204002803E+01  0.10201289547E+01 0.  0.
     999903    2    3    3    0    0  0.11294510681E+00 -0.29743969599E-01  0.53418386832E-01  0.12999626357E+00  0.20104815573E-01 0.  0.
         14    1    1    2    0    0 -0.58337359878E-02 -0.15951837973E-01  0.16283553024E-01  0.23529719705E-01  0.00000000000E+00 0.  1.
     999901    1    3    3    0    0 -0.10711137082E+00  0.45695807572E-01 -0.69701939857E-01  0.89040401673E+00  0.88000000000E+00 0. -1.
        -11    1    4    4    0    0  0.82721818099E-01 -0.29588300556E-01  0.34815666060E-01  0.94502690139E-01  0.51100000000E-03 0. -1.
         11    1    4    4    0    0  0.30223288711E-01 -0.15566904271E-03  0.18602720772E-01  0.35493573426E-01  0.51100000000E-03 0.  1.
</event>
<event>
 8    1  0.1099478E+005  0.1043930E+01  0.7957747E-01            NaN
         13   -1    0    0    0    0  0.00000000000E+00  0.00000000000E+00  0.74505805969E-08  0.10566000000E+00  0.10566000000E+00 0. -1.
     999900   -1    0    0    0    0 -0.00000000000E+00 -0.00000000000E+00 -0.74505805969E-08  0.93827000000E+00  0.93827000000E+00 0.  1.
     999902    2    1    2    0    0 -0.22312425218E-01  0.10734935230E-03  0.15863764677E-01  0.10165527307E+01  0.10161840087E+01 0.  0.
     999903    2    3    3    0    0  0.38623309079E-01 -0.10465264720E+00 -0.55535092597E-01  0.12538180582E+00  0.13874946869E-01 0.  0.
         14    1    1    2    0    0  0.22312425218E-01 -0.10734935230E-03 -0.15863764677E-01  0.27377269271E-01  0.00000000000E+00 0.  1.
     999901    1    3    3    0    0 -0.60935734296E-01  0.10475999655E+00  0.71398857275E-01  0.89117092491E+00  0.88000000000E+00 0.  1.
        -11    1    4    4    0    0  0.26468390822E-01 -0.65384526152E-01 -0.27955691611E-01  0.75878150922E-01  0.51100000000E-03 0. -1.
         11    1    4    4    0    0  0.12154918257E-01 -0.39268121043E-01 -0.27579400987E-01  0.49503654894E-01  0.51100000000E-03 0.  1.
</event>
<event>
 8    1  0.1099478E+005  0.1043930E+01  0.7957747E-01            NaN
         13   -1    0    0    0    0  0.00000000000E+00  0.00000000000E+00  0.74505805969E-08  0.10566000000E+00  0.10566000000E+00 0.  1.
     999900   -1    0    0    0    0 -0.00000000000E+00 -0.00000000000E+00 -0.74505805969E-08  0.93827000000E+00  0.93827000000E+00 0. -1.
     999902    2    1    2    0    0 -0.15562749595E-01 -0.11287441887E-01 -0.14083945486E-01  0.10200980248E+01  0.10198196003E+01 0.  0.
     999903    2    3    3    0    0  0.59583696776E-02 -0.99352441047E-01 -0.84677133207E-01  0.13262858830E+00  0.22665300233E-01 0.  0.
         14    1    1    2    0    0  0.15562749595E-01  0.11287441887E-01  0.14083945486E-01  0.23831975155E-01  0.00000000000E+00 0.  1.
     999901    1    3    3    0    0 -0.21521119273E-01  0.88064999160E-01  0.70593187721E-01  0.88746943655E+00  0.88000000000E+00 0.  1.
        -11    1    4    4    0    0 -0.11310533589E-02 -0.68751292875E-02  0.77296776161E-04  0.69866859248E-02  0.51100000000E-03 0.  1.
         11    1    4    4    0    0  0.70894230366E-02 -0.92477311759E-01 -0.84754429984E-01  0.12564190237E+00  0.51100000000E-03 0. -1.
</event>
<event>
 8    1  0.1099478E+005  0.1043930E+01  0.7957747E-01            NaN
         13   -1    0    0    0    0  0.00000000000E+00  0.00000000000E+00  0.74505805969E-08  0.10566000000E+00  0.10566000000E+00 0.  1.
     999900   -1    0    0    0    0 -0.00000000000E+00 -0.00000000000E+00 -0.74505805969E-08  0.93827000000E+00  0.93827000000E+00 0.  1.
     999902    2    1    2    0    0 -0.17205394714E-01 -0.37709008106E-02 -0.15221446752E-01  0.10206504437E+01  0.10203849227E+01 0.  0.
     999903    2    3    3    0    0  0.52439984057E-01 -0.87516239857E-02  0.11506381847E+00  0.12832228841E+00  0.20009611019E-01 0.  0.
         14    1    1    2    0    0  0.17205394714E-01  0.37709008106E-02  0.15221446752E-01  0.23279556298E-01  0.00000000000E+00 0.  1.
     999901    1    3    3    0    0 -0.69645378771E-01  0.49807231751E-02 -0.13028526522E+00  0.89232815529E+00  0.88000000000E+00 0.  1.
        -11    1    4    4    0    0  0.16856648810E-01 -0.12194937658E-01  0.48162196214E-01  0.52466383321E-01  0.51100000000E-03 0. -1.
         11    1    4    4    0    0  0.35583335247E-01  0.34433136722E-02  0.66901622253E-01  0.75855905093E-01  0.51100000000E-03 0.  1.
</event>
<event>
 8    1  0.1099478E+005  0.1043930E+01  0.7957747E-01            NaN
         13   -1    0    0    0    0  0.00000000000E+00  0.00000000000E+00  0.74505805969E-08  0.10566000000E+00  0.10566000000E+00 0.  1.
     999900   -1    0    0    0    0 -0.00000000000E+00 -0.00000000000E+00 -0.74505805969E-08  0.93827000000E+00  0.93827000000E+00 0. -1.
     999902    2    1    2    0    0  0.11992484347E-01  0.15335794495E-01 -0.14632940164E-01  0.10195757558E+01  0.10192848437E+01 0.  0.
     999903    2    3    3    0    0 -0.96293882175E-03  0.12049323013E+00  0.47493931340E-01  0.13104569021E+00  0.19943762191E-01 0.  0.
         14    1    1    2    0    0 -0.11992484347E-01 -0.15335794495E-01  0.14632940164E-01  0.24354244219E-01  0.00000000000E+00 0.  1.
     999901    1    3    3    0    0  0.12955423169E-01 -0.10515743563E+00 -0.62126871505E-01  0.88853006557E+00  0.88000000000E+00 0.  1.
        -11    1    4    4    0    0  0.68479261579E-02  0.73411695397E-01  0.22046382813E-01  0.76957619699E-01  0.51100000000E-03 0.  1.
         11    1    4    4    0    0 -0.78108649796E-02  0.47081534734E-01  0.25447548527E-01  0.54088070511E-01  0.51100000000E-03 0. -1.
</event>
<event>
 8    1  0.1099478E+005  0.1043930E+01  0.7957747E-01            NaN
         13   -1    0    0    0    0  0.00000000000E+00  0.00000000000E+00  0.74505805969E-08  0.10566000000E+00  0.10566000000E+00 0.  1.
     999900   -1    0    0    0    0 -0.00000000000E+00 -0.00000000000E+00 -0.74505805969E-08  0.93827000000E+00  0.93827000000E+00 0.  1.
     999902    2    1    2    0    0 -0.90411549945E-02 -0.25267711985E-02  0.20950724786E-01  0.10209722143E+01  0.10207140650E+01 0.  0.
     999903    2    3    3    0    0  0.14625697055E-01  0.12762723065E+00  0.14888740502E-01  0.13106383038E+00  0.21293943308E-01 0.  0.
         14    1    1    2    0    0  0.90411549945E-02  0.25267711985E-02 -0.20950724786E-01  0.22957785724E-01  0.00000000000E+00 0. -1.
     999901    1    3    3    0    0 -0.23666852050E-01 -0.13015400185E+00  0.60619842838E-02  0.88990838390E+00  0.88000000000E+00 0. -1.
        -11    1    4    4    0    0  0.10861416311E-02  0.65164345284E-01 -0.10774468715E-02  0.65184304957E-01  0.51100000000E-03 0. -1.
         11    1    4    4    0    0  0.13539555424E-01  0.62462885364E-01  0.15966187373E-01  0.65879525418E-01  0.51100000000E-03 0.  1.
</event>
<event>
 8    1  0.1099478E+005  0.1043930E+01  0.7957747E-01            NaN
         13   -1    0    0    0    0  0.00000000000E+00  0.00000000000E+00  0.74505805969E-08  0.10566000000E+00  0.10566000000E+00 0. -1.
     999900   -1    0    0    0    0 -0.00000000000E+00 -0.00000000000E+00 -0.74505805969E-08  0.93827000000E+00  0.93827000000E+00 0.  1.
     999902    2    1    2    0    0 -0.55643146978E-02 -0.76953577192E-02 -0.20439943967E-01  0.10213917783E+01  0.10211430817E+01 0.  0.
     999903    2    3    3    0    0  0.11084009042E-01 -0.74530711760E-01  0.10366289357E+00  0.13001887904E+00  0.21936981340E-01 0.  0.
         14    1    1    2    0    0  0.55643146978E-02  0.76953577192E-02  0.20439943967E-01  0.22538221711E-01  0.00000000000E+00 0. -1.
     999901    1    3    3    0    0 -0.16648323740E-01  0.66835354040E-01 -0.12410283754E+00  0.89137289925E+00  0.88000000000E+00 0.  1.
        -11    1    4    4    0    0 -0.91478486435E-03 -0.11512560928E-01  0.31019358393E-01  0.33103437988E-01  0.51100000000E-03 0.  1.
         11    1    4    4    0    0  0.11998793906E-01 -0.63018150832E-01  0.72643535181E-01  0.96915441051E-01  0.51100000000E-03 0. -1.
</event>
<event>
 8    1  0.1099478E+005  0.1043930E+01  0.7957747E-01            NaN
         13   -1    0    0    0    0  0.00000000000E+00  0.00000000000E+00  0.74505805969E-08  0.10566000000E+00  0.10566000000E+00 0.  1.
     999900   -1    0    0    0    0 -0.00000000000E+00 -0.00000000000E+00 -0.74505805969E-08  0.93827000000E+00  0.93827000000E+00 0. -1.
     999902    2    1    2    0    0  0.11276880524E-01  0.91260619840E-02 -0.19842348704E-01  0.10193500927E+01  0.10190536981E+01 0.  0.
     999903    2    3    3    0    0  0.27510334532E-01 -0.85341667644E-01  0.88374395181E-01  0.12755497012E+00  0.20499217934E-01 0.  0.
         14    1    1    2    0    0 -0.11276880524E-01 -0.91260619840E-02  0.19842348704E-01  0.24579907318E-01  0.00000000000E+00 0.  1.
     999901    1    3    3    0    0 -0.16233454007E-01  0.94467729628E-01 -0.10821674389E+00  0.89179512256E+00  0.88000000000E+00 0. -1.
        -11    1    4    4    0    0  0.54903049170E-02 -0.27530804295E-01  0.40730980775E-01  0.49470825231E-01  0.51100000000E-03 0.  1.
         11    1    4    4    0    0  0.22020029615E-01 -0.57810863349E-01  0.47643414407E-01  0.78084144887E-01  0.51100000000E-03 0. -1.
</event>
<event>
 8    1  0.1099478E+005  0.1043930E+01  0.7957747E-01            NaN
         13   -1    0    0    0    0  0.00000000000E+00  0.00000000000E+00  0.74505805969E-08  0.10566000000E+00  0.10566000000E+00 0.  1.
     999900   -1    0    0    0    0 -0.00000000000E+00 -0.00000000000E+00 -0.74505805969E-08  0.93827000000E+00  0.93827000000E+00 0. -1.
     999902    2    1    2    0    0 -0.21075280934E-02  0.11708852898E-01 -0.21884149996E-01  0.10190210672E+01  0.10187165850E+01 0.  0.
     999903    2    3    3    0    0 -0.12292552989E+00  0.37430671431E-01 -0.57973477404E-02  0.13024810031E+00  0.20474797460E-01 0.  0.
         14    1    1    2    0    0  0.21075280934E-02 -0.11708852898E-01  0.21884149996E-01  0.24908932773E-01  0.00000000000E+00 0.  1.
     999901    1    3    3    0    0  0.12081800180E+00 -0.25721818533E-01 -0.16086802256E-01  0.88877296691E+00  0.88000000000E+00 0. -1.
        -11    1    4    4    0    0 -0.37828857188E-01  0.20919539709E-01 -0.53590922396E-02  0.43561801712E-01  0.51100000000E-03 0.  1.
         11    1    4    4    0    0 -0.85096672706E-01  0.16511131722E-01 -0.43825550078E-03  0.86686298602E-01  0.51100000000E-03 0. -1.
</event>
<event>
 8    1  0.1099478E+005  0.1043930E+01  0.7957747E-01            NaN
         13   -1    0    0    0    0  0.00000000000E+00  0.00000000000E+00  0.74505805969E-08  0.10566000000E+00  0.10566000000E+00 0.  1.
     999900   -1    0    0    0    0 -0.00000000000E+00 -0.00000000000E+00 -0.74505805969E-08  0.93827000000E+00  0.93827000000E+00 0. -1.
     999902    2    1    2    0    0 -0.19360467497E-01 -0.83357207652E-02 -0.11584275393E-01  0.10198778197E+01  0.10195941642E+01 0.  0.
     999903    2    3    3    0    0 -0.57272203011E-01  0.13518719083E-01  0.11390080070E+00  0.12989949378E+00  0.20919490429E-01 0.  0.
         14    1    1    2    0    0  0.19360467497E-01  0.83357207652E-02  0.11584275393E-01  0.24052180333E-01  0.00000000000E+00 0. -1.
     999901    1    3    3    0    0  0.37911735514E-01 -0.21854439848E-01 -0.12548507609E+00  0.88997832589E+00  0.88000000000E+00 0. -1.
        -11    1    4    4    0    0 -0.47461154503E-01  0.10488012858E-01  0.72831227622E-01  0.87562597257E-01  0.51100000000E-03 0.  1.
         11    1    4    4    0    0 -0.98110485084E-02  0.30307062250E-02  0.41069573080E-01  0.42336896521E-01  0.51100000000E-03 0. -1.
</event>
<event>
 8    1  0.1099478E+005  0.1043930E+01  0.7957747E-01            NaN
         13   -1    0    0    0    0  0.00000000000E+00  0.00000000000E+00  0.74505805969E-08  0.10566000000E+00  0.10566000000E+00 0. -1.
     999900   -1    0    0    0    0 -0.00000000000E+00 -0.00000000000E+00 -0.74505805969E-08  0.93827000000E+00  0.93827000000E+00 0.  1.
     999902    2    1    2    0    0  0.19306028010E-01  0.13539499789E-01 -0.70032695927E-02  0.10193314928E+01  0.10190346440E+01 0.  0.
     999903    2    3    3    0    0  0.48044883563E-01  0.61889534097E-01  0.10262051474E+00  0.13074777601E+00  0.20624878635E-01 0.  0.
         14    1    1    2    0    0 -0.19306028010E-01 -0.13539499789E-01  0.70032695927E-02  0.24598507212E-01  0.00000000000E+00 0. -1.
     999901    1    3    3    0    0 -0.28738855553E-01 -0.48350034308E-01 -0.10962378433E+00  0.88858371678E+00  0.88000000000E+00 0.  1.
        -11    1    4    4    0    0  0.35271727331E-01  0.57367027673E-01  0.82733393283E-01  0.10667776759E+00  0.51100000000E-03 0.  1.
         11    1    4    4    0    0  0.12773156232E-01  0.45225064242E-02  0.19887121454E-01  0.24070008417E-01  0.51100000000E-03 0. -1.
</event>
<event>
 8    1  0.1099478E+005  0.1043930E+01  0.7957747E-01            NaN
         13   -1    0    0    0    0  0.00000000000E+00  0.00000000000E+00  0.74505805969E-08  0.10566000000E+00  0.10566000000E+00 0. -1.
     999900   -1    0    0    0    0 -0.00000000000E+00 -0.00000000000E+00 -0.74505805969E-08  0.93827000000E+00  0.93827000000E+00 0. -1.
     999902    2    1    2    0    0  0.73270940291E-02  0.15441024189E-01 -0.15819938557E-01  0.10206409040E+01  0.10203751629E+01 0.  0.
     999903    2    3    3    0    0 -0.47001047914E-01 -0.91048383483E-01  0.74005509903E-01  0.12802668045E+00  0.20374218300E-01 0.  0.
         14    1    1    2    0    0 -0.73270940291E-02 -0.15441024189E-01  0.15819938557E-01  0.23289095965E-01  0.00000000000E+00 0. -1.
     999901    1    3    3    0    0  0.54328141943E-01  0.10648940767E+00 -0.89825448460E-01  0.89261422358E+00  0.88000000000E+00 0. -1.
        -11    1    4    4    0    0 -0.27502751645E-01 -0.72539309685E-01  0.55226531542E-01  0.95229111645E-01  0.51100000000E-03 0. -1.
         11    1    4    4    0    0 -0.19498296269E-01 -0.18509073798E-01  0.18778978360E-01  0.32797568805E-01  0.51100000000E-03 0.  1.
</event>
<event>
 8    1  0.1099478E+005  0.1043930E+01  0.7957747E-01            NaN
         13   -1    0    0    0    0  0.00000000000E+00  0.00000000000E+00  0.74505805969E-08  0.10566000000E+00  0.10566000000E+00 0. -1.
     999900   -1    0    0    0    0 -0.00000000000E+00 -0.00000000000E+00 -0.74505805969E-08  0.93827000000E+00  0.93827000000E+00 0. -1.
     999902    2    1    2    0    0  0.14882947726E-01 -0.18812328131E-01 -0.12027170315E-01  0.10170960914E+01  0.10167420521E+01 0.  0.
     999903    2    3    3    0    0 -0.41213279134E-01  0.93575838157E-01 -0.72498532595E-01  0.12612208944E+00  0.13991867357E-01 0.  0.
         14    1    1    2    0    0 -0.14882947726E-01  0.18812328131E-01  0.12027170315E-01  0.26833908558E-01  0.00000000000E+00 0.  1.
     999901    1    3    3    0    0  0.56096226861E-01 -0.11238816629E+00  0.60471362280E-01  0.89097400200E+00  0.88000000000E+00 0. -1.
        -11    1    4    4    0    0 -0.34451360609E-01  0.77690242727E-01 -0.66232473621E-01  0.10774818674E+00  0.51100000000E-03 0. -1.
         11    1    4    4    0    0 -0.67619185252E-02  0.15885595430E-01 -0.62660589738E-02  0.18373902698E-01  0.51100000000E-03 0.  1.
</event>
<event>
 8    1  0.1099478E+005  0.1043930E+01  0.7957747E-01            NaN
         13   -1    0    0    0    0  0.00000000000E+00  0.00000000000E+00  0.74505805969E-08  0.10566000000E+00  0.10566000000E+00 0.  1.
     999900   -1    0    0    0    0 -0.00000000000E+00 -0.00000000000E+00 -0.74505805969E-08  0.93827000000E+00  0.93827000000E+00 0.  1.
     999902    2    1    2    0    0 -0.14903644092E-01 -0.18289398219E-01  0.25865333478E-02  0.10201958295E+01  0.10199197124E+01 0.  0.
     999903    2    3    3    0    0  0.12609876891E+00  0.24530720438E-02 -0.14805355988E-01  0.12856002473E+00  0.20039069584E-01 0.  0.
         14    1    1    2    0    0  0.14903644092E-01  0.18289398219E-01 -0.25865333478E-02  0.23734170497E-01  0.00000000000E+00 0. -1.
     999901    1    3    3    0    0 -0.14100241300E+00 -0.20742470263E-01  0.17391889335E-01  0.89163580478E+00  0.88000000000E+00 0.  1.
        -11    1    4    4    0    0  0.37043794780E-02  0.31617950345E-03 -0.42829830861E-02  0.56945115604E-02  0.51100000000E-03 0. -1.
         11    1    4    4    0    0  0.12239438943E+00  0.21368925403E-02 -0.10522372901E-01  0.12286551317E+00  0.51100000000E-03 0.  1.
</event>
<event>
 8    1  0.1099478E+005  0.1043930E+01  0.7957747E-01            NaN
         13   -1    0    0    0    0  0.00000000000E+00  0.00000000000E+00  0.74505805969E-08  0.10566000000E+00  0.10566000000E+00 0. -1.
     999900   -1    0    0    0    0 -0.00000000000E+00 -0.00000000000E+00 -0.74505805969E-08  0.93827000000E+00  0.93827000000E+00 0.  1.
     999902    2    1    2    0    0  0.26822490244E-02 -0.21664459589E-01 -0.10370127229E-01  0.10197621948E+01  0.10194757727E+01 0.  0.
     999903    2    3    3    0    0  0.85010142703E-01  0.61834749486E-01 -0.73295896373E-01  0.12975677212E+00  0.20353645351E-01 0.  0.
         14    1    1    2    0    0 -0.26822490244E-02  0.21664459589E-01  0.10370127229E-01  0.24167805193E-01  0.00000000000E+00 0. -1.
     999901    1    3    3    0    0 -0.82327893679E-01 -0.83499209075E-01  0.62925769144E-01  0.89000542269E+00  0.88000000000E+00 0. -1.
        -11    1    4    4    0    0  0.45434790271E-01  0.33507474564E-01 -0.26987784112E-01  0.62575335643E-01  0.51100000000E-03 0. -1.
         11    1    4    4    0    0  0.39575352432E-01  0.28327274922E-01 -0.46308112261E-01  0.67181436475E-01  0.51100000000E-03 0.  1.
</event>
<event>
 8    1  0.1099478E+005  0.1043930E+01  0.7957747E-01            NaN
         13   -1    0    0    0    0  0.00000000000E+00  0.00000000000E+00  0.74505805969E-08  0.10566000000E+00  0.10566000000E+00 0. -1.
     999900   -1    0    0    0    0 -0.00000000000E+00 -0.00000000000E+00 -0.74505805969E-08  0.93827000000E+00  0.93827000000E+00 0.  1.
     999902    2    1    2    0    0 -0.77493774205E-02 -0.18034335089E-01 -0.12771340589E-01  0.10205121172E+01  0.10202433946E+01 0.  0.
     999903    2    3    3    0    0 -0.12410323322E+00 -0.38693096409E-01  0.16322852504E-01  0.13213636552E+00  0.17170188510E-01 0.  0.
         14    1    1    2    0    0  0.77493774205E-02  0.18034335089E-01  0.12771340589E-01  0.23417882759E-01  0.00000000000E+00 0.  1.
     999901    1    3    3    0    0  0.11635385580E+00  0.20658761320E-01 -0.29094193092E-01  0.88837575172E+00  0.88000000000E+00 0.  1.
        -11    1    4    4    0    0 -0.29597640174E-01 -0.13652206866E-01 -0.20253575717E-02  0.32661387761E-01  0.51100000000E-03 0.  1.
         11    1    4    4    0    0 -0.94505593043E-01 -0.25040889542E-01  0.18348210075E-01  0.99474977756E-01  0.51100000000E-03 0. -1.
</event>
<event>
 7    1  0.1099478E+005  0.1043930E+01  0.7957747E-01            NaN
         13   -1    0    0    0    0  0.00000000000E+00  0.00000000000E+00  0.74505805969E-08  0.10566000000E+00  0.10566000000E+00 0. -1.
     999900   -1    0    0    0    0 -0.00000000000E+00 -0.00000000000E+00 -0.74505805969E-08  0.93827000000E+00  0.93827000000E+00 0.  1.
     999902    2    1    2    0    0  0.89505753090E-02  0.19998557029E-01 -0.60758044987E-02  0.10211930151E+01  0.10209398629E+01 0.  0.
         14    1    1    2    0    0 -0.89505753090E-02 -0.19998557029E-01  0.60758044987E-02  0.22736984890E-01  0.00000000000E+00 0.  1.
     999901    1    3    3    0    0  0.13837781760E-01  0.31049454940E-01 -0.13562788738E+00  0.89103898719E+00  0.88000000000E+00 0.  1.
        -11    1    3    3    0    0 -0.38363287774E-02 -0.68623298352E-02  0.69610851228E-01  0.70055269030E-01  0.51100000000E-03 0.  1.
         11    1    3    3    0    0 -0.10508776735E-02 -0.41885680756E-02  0.59941231658E-01  0.60098758890E-01  0.51100000000E-03 0. -1.
</event>
<event>
 8    1  0.1099478E+005  0.1043930E+01  0.7957747E-01            NaN
         13   -1    0    0    0    0  0.00000000000E+00  0.00000000000E+00  0.74505805969E-08  0.10566000000E+00  0.10566000000E+00 0. -1.
     999900   -1    0    0    0    0 -0.00000000000E+00 -0.00000000000E+00 -0.74505805969E-08  0.93827000000E+00  0.93827000000E+00 0.  1.
     999902    2    1    2    0    0  0.17276211682E-01  0.12422894792E-01  0.10474473857E-01  0.10202126981E+01  0.10199369780E+01 0.  0.
     999903    2    3    3    0    0  0.40171670638E-01 -0.12154375291E+00 -0.59021877390E-02  0.12962892342E+00  0.19549296017E-01 0.  0.
         14    1    1    2    0    0 -0.17276211682E-01 -0.12422894792E-01 -0.10474473857E-01  0.23717301863E-01  0.00000000000E+00 0. -1.
     999901    1    3    3    0    0 -0.22895458956E-01  0.13396664770E+00  0.16376661596E-01  0.89058377471E+00  0.88000000000E+00 0. -1.
        -11    1    4    4    0    0  0.31485304168E-01 -0.66810538198E-01  0.31929635002E-03  0.73860242784E-01  0.51100000000E-03 0. -1.
         11    1    4    4    0    0  0.86863664692E-02 -0.54733214711E-01 -0.62214840890E-02  0.55768680640E-01  0.51100000000E-03 0.  1.
</event>
<event>
 8    1  0.1099478E+005  0.1043930E+01  0.7957747E-01            NaN
         13   -1    0    0    0    0  0.00000000000E+00  0.00000000000E+00  0.74505805969E-08  0.10566000000E+00  0.10566000000E+00 0.  1.
     999900   -1    0    0    0    0 -0.00000000000E+00 -0.00000000000E+00 -0.74505805969E-08  0.93827000000E+00  0.93827000000E+00 0.  1.
     999902    2    1    2    0    0  0.25729814575E-01  0.64775783176E-02  0.32524629886E-02  0.10171987282E+01  0.10168474279E+01 0.  0.
     999903    2    3    3    0    0  0.22679250059E-01  0.46005248656E-01  0.11605438900E+00  0.12911313702E+00  0.23890367485E-01 0.  0.
         14    1    1    2    0    0 -0.25729814575E-01 -0.64775783176E-02 -0.32524629886E-02  0.26731271845E-01  0.00000000000E+00 0.  1.
     999901    1    3    3    0    0  0.30505645162E-02 -0.39527670338E-01 -0.11280192601E+00  0.88808559113E+00  0.88000000000E+00 0.  1.
        -11    1    4    4    0    0  0.15846337088E-01  0.30475975089E-01  0.48338373125E-01  0.59302199741E-01  0.51100000000E-03 0.  1.
         11    1    4    4    0    0  0.68329129711E-02  0.15529273566E-01  0.67716015875E-01  0.69810937282E-01  0.51100000000E-03 0. -1.
</event>
<event>
 8    1  0.1099478E+005  0.1043930E+01  0.7957747E-01            NaN
         13   -1    0    0    0    0  0.00000000000E+00  0.00000000000E+00  0.74505805969E-08  0.10566000000E+00  0.10566000000E+00 0. -1.
     999900   -1    0    0    0    0 -0.00000000000E+00 -0.00000000000E+00 -0.74505805969E-08  0.93827000000E+00  0.93827000000E+00 0.  1.
     999902    2    1    2    0    0 -0.20419571623E-01 -0.94423822842E-03 -0.47623772806E-02  0.10229411761E+01  0.10227258279E+01 0.  0.
     999903    2    3    3    0    0 -0.13130777246E-01  0.11913378148E+00 -0.55011797206E-01  0.13333628541E+00  0.19672111633E-01 0.  0.
         14    1    1    2    0    0  0.20419571623E-01  0.94423822842E-03  0.47623772806E-02  0.20988823894E-01  0.00000000000E+00 0. -1.
     999901    1    3    3    0    0 -0.72887943766E-02 -0.12007801971E+00  0.50249419925E-01  0.88960489069E+00  0.88000000000E+00 0. -1.
        -11    1    4    4    0    0 -0.16247159125E-01  0.77339900298E-01 -0.30029455855E-01  0.84542650170E-01  0.51100000000E-03 0.  1.
         11    1    4    4    0    0  0.31163818788E-02  0.41793881179E-01 -0.24982341351E-01  0.48793635245E-01  0.51100000000E-03 0. -1.
</event>
<event>
 8    1  0.1099478E+005  0.1043930E+01  0.7957747E-01            NaN
         13   -1    0    0    0    0  0.00000000000E+00  0.00000000000E+00  0.74505805969E-08  0.10566000000E+00  0.10566000000E+00 0.  1.
     999900   -1    0    0    0    0 -0.00000000000E+00 -0.00000000000E+00 -0.74505805969E-08  0.93827000000E+00  0.93827000000E+00 0. -1.
     999902    2    1    2    0    0 -0.17244908641E-01  0.12578092304E-01 -0.83352100735E-02  0.10210155721E+01  0.10207584080E+01 0.  0.
     999903    2    3    3    0    0  0.10060353586E+00  0.79813463351E-01  0.67065472723E-02  0.13049038689E+00  0.22169865452E-01 0.  0.
         14    1    1    2    0    0  0.17244908641E-01 -0.12578092304E-01  0.83352100735E-02  0.22914427922E-01  0.00000000000E+00 0.  1.
     999901    1    3    3    0    0 -0.11784844450E+00 -0.67235371047E-01 -0.15041757346E-01  0.89052518519E+00  0.88000000000E+00 0. -1.
        -11    1    4    4    0    0  0.78524004573E-01  0.72866233226E-01  0.42683131237E-02  0.10721001286E+00  0.51100000000E-03 0.  1.
         11    1    4    4    0    0  0.22079531289E-01  0.69472301250E-02  0.24382341486E-02  0.23280374033E-01  0.51100000000E-03 0. -1.
</event>
<event>
 8    1  0.1099478E+005  0.1043930E+01  0.7957747E-01            NaN
         13   -1    0    0    0    0  0.00000000000E+00  0.00000000000E+00  0.74505805969E-08  0.10566000000E+00  0.10566000000E+00 0.  1.
     999900   -1    0    0    0    0 -0.00000000000E+00 -0.00000000000E+00 -0.74505805969E-08  0.93827000000E+00  0.93827000000E+00 0. -1.
     999902    2    1    2    0    0 -0.51205025754E-02  0.11549981033E-01 -0.12618951442E-01  0.10260733613E+01  0.10259179710E+01 0.  0.
     999903    2    3    3    0    0 -0.10626021863E+00 -0.78243593911E-01 -0.24211701187E-01  0.13566529753E+00  0.20138828840E-01 0.  0.
         14    1    1    2    0    0  0.51205025754E-02 -0.11549981033E-01  0.12618951442E-01  0.17856638653E-01  0.00000000000E+00 0.  1.
     999901    1    3    3    0    0  0.10113971606E+00  0.89793574944E-01  0.11592749745E-01  0.89040806382E+00  0.88000000000E+00 0. -1.
        -11    1    4    4    0    0 -0.28919785672E-01 -0.20386611200E-01 -0.15667619914E-01  0.38700172536E-01  0.51100000000E-03 0.  1.
         11    1    4    4    0    0 -0.77340432962E-01 -0.57856982712E-01 -0.85440812726E-02  0.96965124994E-01  0.51100000000E-03 0. -1.
</event>
<event>
 8    1  0.1099478E+005  0.1043930E+01  0.7957747E-01            NaN
         13   -1    0    0    0    0  0.00000000000E+00  0.00000000000E+00  0.74505805969E-08  0.10566000000E+00  0.10566000000E+00 0. -1.
     999900   -1    0    0    0    0 -0.00000000000E+00 -0.00000000000E+00 -0.74505805969E-08  0.93827000000E+00  0.93827000000E+00 0. -1.
     999902    2    1    2    0    0  0.21933835274E-01  0.76987957191E-02  0.45484278928E-02  0.10202434472E+01  0.10199684499E+01 0.  0.
     999903    2    3    3    0    0 -0.90697431526E-01 -0.57310666016E-01 -0.66612067567E-01  0.12784451823E+00  0.19912728903E-01 0.  0.
         14    1    1    2    0    0 -0.21933835274E-01 -0.76987957191E-02 -0.45484278928E-02  0.23686552760E-01  0.00000000000E+00 0. -1.
     999901    1    3    3    0    0  0.11263126680E+00  0.65009461735E-01  0.71160495460E-01  0.89239892901E+00  0.88000000000E+00 0. -1.
        -11    1    4    4    0    0 -0.29885247868E-01 -0.17544256039E-01 -0.32734370335E-01  0.47673148441E-01  0.51100000000E-03 0. -1.
         11    1    4    4    0    0 -0.60812183658E-01 -0.39766409977E-01 -0.33877697233E-01  0.80171369793E-01  0.51100000000E-03 0.  1.
</event>
<event>
 8    1  0.1099478E+005  0.1043930E+01  0.7957747E-01            NaN
         13   -1    0    0    0    0  0.00000000000E+00  0.00000000000E+00  0.74505805969E-08  0.10566000000E+00  0.10566000000E+00 0. -1.
     999900   -1    0    0    0    0 -0.00000000000E+00 -0.00000000000E+00 -0.74505805969E-08  0.93827000000E+00  0.93827000000E+00 0. -1.
     999902    2    1    2    0    0 -0.12412819444E-01  0.61552075476E-02  0.17398020010E-01  0.10216891420E+01  0.10214470358E+01 0.  0.
     999903    2    3    3    0    0 -0.72174782065E-01 -0.10783897031E+00 -0.82757187280E-02  0.13195586415E+00  0.22481545297E-01 0.  0.
         14    1    1    2    0    0  0.12412819444E-01 -0.61552075476E-02 -0.17398020010E-01  0.22240858049E-01  0.00000000000E+00 0.  1.
     999901    1    3    3    0    0  0.59761962621E-01  0.11399417786E+00  0.25673738738E-01  0.88973327780E+00  0.88000000000E+00 0. -1.
        -11    1    4    4    0    0 -0.62864371064E-01 -0.78387600435E-01 -0.10227794049E-01  0.10100204920E+00  0.51100000000E-03 0.  1.
         11    1    4    4    0    0 -0.93104110012E-02 -0.29451369880E-01  0.19520753208E-02  0.30953814948E-01  0.51100000000E-03 0. -1.
</event>
<event>
 8    1  0.1099478E+005  0.1043930E+01  0.7957747E-01            NaN
         13   -1    0    0    0    0  0.00000000000E+00  0.00000000000E+00  0.74505805969E-08  0.10566000000E+00  0.10566000000E+00 0. -1.
     999900   -1    0    0    0    0 -0.00000000000E+00 -0.00000000000E+00 -0.74505805969E-08  0.93827000000E+00  0.93827000000E+00 0. -1.
     999902    2    1    2    0    0  0.13648253221E-01  0.16003579562E-01  0.96089127452E-02  0.10208059740E+01  0.10205440294E+01 0.  0.
     999903    2    3    3    0    0 -0.10776694429E+00 -0.59056174109E-01  0.34148832282E-01  0.12896640072E+00  0.19100884404E-01 0.  0.
         14    1    1    2    0    0 -0.13648253221E-01 -0.16003579562E-01 -0.96089127452E-02  0.23124026010E-01  0.00000000000E+00 0.  1.
     999901    1    3    3    0    0  0.12141519751E+00  0.75059753670E-01 -0.24539919537E-01  0.89183957327E+00  0.88000000000E+00 0. -1.
        -11    1    4    4    0    0 -0.34196275887E-01 -0.13995042974E-01  0.23847485135E-02  0.37029645676E-01  0.51100000000E-03 0. -1.
         11    1    4    4    0    0 -0.73570668404E-01 -0.45061131135E-01  0.31764083769E-01  0.91936755039E-01  0.51100000000E-03 0.  1.
</event>
<event>
 8    1  0.1099478E+005  0.1043930E+01  0.7957747E-01            NaN
         13   -1    0    0    0    0  0.00000000000E+00  0.00000000000E+00  0.74505805969E-08  0.10566000000E+00  0.10566000000E+00 0.  1.
     999900   -1    0    0    0    0 -0.00000000000E+00 -0.00000000000E+00 -0.74505805969E-08  0.93827000000E+00  0.93827000000E+00 0.  1.
     999902    2    1    2    0    0  0.10253159216E-01  0.79889644721E-02  0.17083188803E-01  0.10224640696E+01  0.10222387136E+01 0.  0.
     999903    2    3    3    0    0 -0.31297106190E-02  0.20460136832E-03  0.13319771612E+00  0.13470155579E+00  0.19825251644E-01 0.  0.
         14    1    1    2    0    0 -0.10253159216E-01 -0.79889644721E-02 -0.17083188803E-01  0.21465930376E-01  0.00000000000E+00 0. -1.
     999901    1    3    3    0    0  0.13382869835E-01  0.77843631038E-02 -0.11611452732E+00  0.88776251383E+00  0.88000000000E+00 0.  1.
        -11    1    4    4    0    0  0.11548489556E-02  0.94389564018E-02  0.51794493255E-01  0.52662683436E-01  0.51100000000E-03 0. -1.
         11    1    4    4    0    0 -0.42845595746E-02 -0.92343550335E-02  0.81403222864E-01  0.82038872355E-01  0.51100000000E-03 0.  1.
</event>
<event>
 8    1  0.1099478E+005  0.1043930E+01  0.7957747E-01            NaN
         13   -1    0    0    0    0  0.00000000000E+00  0.00000000000E+00  0.74505805969E-08  0.10566000000E+00  0.10566000000E+00 0. -1.
     999900   -1    0    0    0    0 -0.00000000000E+00 -0.00000000000E+00 -0.74505805969E-08  0.93827000000E+00  0.93827000000E+00 0.  1.
     999902    2    1    2    0    0 -0.21706271095E-01 -0.74404199467E-02  0.69768985435E-02  0.10199466898E+01  0.10196646757E+01 0.  0.
     999903    2    3    3    0    0 -0.36479622567E-01  0.90023645731E-02  0.12473856460E+00  0.13182708804E+00  0.20170924909E-01 0.  0.
         14    1    1    2    0    0  0.21706271095E-01  0.74404199467E-02 -0.69768985435E-02  0.23983310179E-01  0.00000000000E+00 0.  1.
     999901    1    3    3    0    0  0.14773351472E-01 -0.16442784520E-01 -0.11776166606E+00  0.88811960178E+00  0.88000000000E+00 0.  1.
        -11    1    4    4    0    0 -0.28174173220E-01  0.60803546389E-02  0.60854131075E-01  0.67336774047E-01  0.51100000000E-03 0. -1.
         11    1    4    4    0    0 -0.83054493476E-02  0.29220099343E-02  0.63884433526E-01  0.64490313992E-01  0.51100000000E-03 0.  1.
</event>
<event>
 8    1  0.1099478E+005  0.1043930E+01  0.7957747E-01            NaN
         13   -1    0    0    0    0  0.00000000000E+00  0.00000000000E+00  0.74505805969E-08  0.10566000000E+00  0.10566000000E+00 0.  1.
     999900   -1    0    0    0    0 -0.00000000000E+00 -0.00000000000E+00 -0.74505805969E-08  0.93827000000E+00  0.93827000000E+00 0.  1.
     999902    2    1    2    0    0 -0.75904961829E-02 -0.21933437993E-01  0.55685293154E-02  0.10200616139E+01  0.10197823279E+01 0.  0.
     999903    2    3    3    0    0  0.37487079303E-02 -0.10340547590E+00  0.81388085294E-01  0.13297938800E+00  0.18781691781E-01 0.  0.
         14    1    1    2    0    0  0.75904961829E-02  0.21933437993E-01 -0.55685293154E-02  0.23868386063E-01  0.00000000000E+00 0.  1.
     999901    1    3    3    0    0 -0.11339204113E-01  0.81472037910E-01 -0.75819555979E-01  0.88708222594E+00  0.88000000000E+00 0.  1.
        -11    1    4    4    0    0 -0.62171745245E-02 -0.63339734266E-01  0.53604115691E-01  0.83212003557E-01  0.51100000000E-03 0.  1.
         11    1    4    4    0    0  0.99658824548E-02 -0.40065741638E-01  0.27783969603E-01  0.49767384440E-01  0.51100000000E-03 0. -1.
</event>
<event>
 8    1  0.1099478E+005  0.1043930E+01  0.7957747E-01            NaN
         13   -1    0    0    0    0  0.00000000000E+00  0.00000000000E+00  0.74505805969E-08  0.10566000000E+00  0.10566000000E+00 0.  1.
     999900   -1    0    0    0    0 -0.00000000000E+00 -0.00000000000E+00 -0.74505805969E-08  0.93827000000E+00  0.93827000000E+00 0. -1.
     999902    2    1    2    0    0 -0.75685747481E-02  0.16567827841E-01 -0.15118098258E-01  0.10202586431E+01  0.10199840026E+01 0.  0.
     999903    2    3    3    0    0  0.66282589962E-01  0.87219379671E-01  0.67885498438E-01  0.13046359176E+00  0.20290538545E-01 0.  0.
         14    1    1    2    0    0  0.75685747481E-02 -0.16567827841E-01  0.15118098258E-01  0.23671356911E-01  0.00000000000E+00 0.  1.
     999901    1    3    3    0    0 -0.73851164710E-01 -0.70651551830E-01 -0.83003596696E-01  0.88979505133E+00  0.88000000000E+00 0. -1.
        -11    1    4    4    0    0  0.33501988462E-01  0.33713317543E-01  0.20181184844E-01  0.51638283796E-01  0.51100000000E-03 0.  1.
         11    1    4    4    0    0  0.32780601500E-01  0.53506062128E-01  0.47704313595E-01  0.78825307964E-01  0.51100000000E-03 0. -1.
</event>
<event>
 8    1  0.1099478E+005  0.1043930E+01  0.7957747E-01            NaN
         13   -1    0    0    0    0  0.00000000000E+00  0.00000000000E+00  0.74505805969E-08  0.10566000000E+00  0.10566000000E+00 0. -1.
     999900   -1    0    0    0    0 -0.00000000000E+00 -0.00000000000E+00 -0.74505805969E-08  0.93827000000E+00  0.93827000000E+00 0.  1.
     999902    2    1    2    0    0  0.80848284285E-02 -0.25427826235E-01 -0.10492795094E-01  0.10152588028E+01  0.10148538807E+01 0.  0.
     999903    2    3    3    0    0 -0.66793046372E-01 -0.55301550868E-01 -0.91659381853E-01  0.12785407535E+00  0.20631280391E-01 0.  0.
         14    1    1    2    0    0 -0.80848284285E-02  0.25427826235E-01  0.10492795094E-01  0.28671197161E-01  0.00000000000E+00 0. -1.
     999901    1    3    3    0    0  0.74877874801E-01  0.29873724633E-01  0.81166586760E-01  0.88740472749E+00  0.88000000000E+00 0. -1.
        -11    1    4    4    0    0 -0.25867427327E-01 -0.25309851145E-01 -0.52464444743E-01  0.63737676807E-01  0.51100000000E-03 0. -1.
         11    1    4    4    0    0 -0.40925619045E-01 -0.29991699723E-01 -0.39194937110E-01  0.64116398547E-01  0.51100000000E-03 0.  1.
</event>
<event>
 8    1  0.1099478E+005  0.1043930E+01  0.7957747E-01            NaN
         13   -1    0    0    0    0  0.00000000000E+00  0.00000000000E+00  0.74505805969E-08  0.10566000000E+00  0.10566000000E+00 0. -1.
     999900   -1    0    0    0    0 -0.00000000000E+00 -0.00000000000E+00 -0.74505805969E-08  0.93827000000E+00  0.93827000000E+00 0.  1.
     999902    2    1    2    0    0  0.15069940462E-01 -0.14449333535E-01 -0.10409445245E-01  0.10206009860E+01  0.10203343225E+01 0.  0.
     999903    2    3    3    0    0  0.23893106720E-01  0.66113738636E-01  0.10641880557E+00  0.12918800814E+00  0.20558995182E-01 0.  0.
         14    1    1    2    0    0 -0.15069940462E-01  0.14449333535E-01  0.10409445245E-01  0.23329014026E-01  0.00000000000E+00 0. -1.
     999901    1    3    3    0    0 -0.88231662576E-02 -0.80563072171E-01 -0.11682825082E+00  0.89141297783E+00  0.88000000000E+00 0. -1.
        -11    1    4    4    0    0  0.25855477210E-01  0.55725978489E-01  0.98000991370E-01  0.11566479936E+00  0.51100000000E-03 0.  1.
         11    1    4    4    0    0 -0.19623704900E-02  0.10387760147E-01  0.84178142021E-02  0.13523208782E-01  0.51100000000E-03 0. -1.
</event>
<event>
 8    1  0.1099478E+005  0.1043930E+01  0.7957747E-01            NaN
         13   -1    0    0    0    0  0.00000000000E+00  0.00000000000E+00  0.74505805969E-08  0.10566000000E+00  0.10566000000E+00 0. -1.
     999900   -1    0    0    0    0 -0.00000000000E+00 -0.00000000000E+00 -0.74505805969E-08  0.93827000000E+00  0.93827000000E+00 0.  1.
     999902    2    1    2    0    0  0.41382464070E-02 -0.90547089578E-02 -0.21508021247E-01  0.10202296241E+01  0.10199543020E+01 0.  0.
     999903    2    3    3    0    0 -0.11714761737E+00 -0.12054521456E-01 -0.54348547095E-01  0.13129894082E+00  0.20414983321E-01 0.  0.
         14    1    1    2    0    0 -0.41382464070E-02  0.90547089578E-02  0.21508021247E-01  0.23700375854E-01  0.00000000000E+00 0. -1.
     999901    1    3    3    0    0  0.12128586378E+00  0.29998124977E-02  0.32840525848E-01  0.88893068333E+00  0.88000000000E+00 0.  1.
        -11    1    4    4    0    0 -0.38775132266E-01 -0.13320724326E-02 -0.28266987199E-01  0.48005926567E-01  0.51100000000E-03 0. -1.
         11    1    4    4    0    0 -0.78372485108E-01 -0.10722449023E-01 -0.26081559896E-01  0.83293014249E-01  0.51100000000E-03 0.  1.
</event>
<event>
 8    1  0.1099478E+005  0.1043930E+01  0.7957747E-01            NaN
         13   -1    0    0    0    0  0.00000000000E+00  0.00000000000E+00  0.74505805969E-08  0.10566000000E+00  0.10566000000E+00 0.  1.
     999900   -1    0    0    0    0 -0.00000000000E+00 -0.00000000000E+00 -0.74505805969E-08  0.93827000000E+00  0.93827000000E+00 0. -1.
     999902    2    1    2    0    0 -0.11782065300E-01  0.15607667415E-01 -0.13971446642E-01  0.10198963223E+01  0.10196131082E+01 0.  0.
     999903    2    3    3    0    0 -0.52536785129E-01 -0.46380117672E-01  0.10611306515E+00  0.12864791543E+00  0.19469834151E-01 0.  0.
         14    1    1    2    0    0  0.11782065300E-01 -0.15607667415E-01  0.13971446642E-01  0.24033677749E-01  0.00000000000E+00 0.  1.
     999901    1    3    3    0    0  0.40754719830E-01  0.61987785086E-01 -0.12008451179E+00  0.89124840682E+00  0.88000000000E+00 0. -1.
        -11    1    4    4    0    0 -0.27147605013E-02 -0.11037507390E-01  0.20971025667E-01  0.23858783131E-01  0.51100000000E-03 0.  1.
         11    1    4    4    0    0 -0.49822024628E-01 -0.35342610281E-01  0.85142039484E-01  0.10478913230E+00  0.51100000000E-03 0. -1.
</event>
<event>
 8    1  0.1099478E+005  0.1043930E+01  0.7957747E-01            NaN
         13   -1    0    0    0    0  0.00000000000E+00  0.00000000000E+00  0.74505805969E-08  0.10566000000E+00  0.10566000000E+00 0.  1.
     999900   -1    0    0    0    0 -0.00000000000E+00 -0.00000000000E+00 -0.74505805969E-08  0.93827000000E+00  0.93827000000E+00 0.  1.
     999902    2    1    2    0    0  0.19455507128E-03 -0.17965582350E-01  0.15145164876E-01  0.10204315741E+01  0.10201609782E+01 0.  0.
     999903    2    3    3    0    0  0.69329654285E-01 -0.43528788716E-01 -0.98635455722E-01  0.13005010018E+00  0.21970867576E-01 0.  0.
         14    1    1    2    0    0 -0.19455507128E-03  0.17965582350E-01 -0.15145164876E-01  0.23498425903E-01  0.00000000000E+00 0. -1.
     999901    1    3    3    0    0 -0.69135099214E-01  0.25563206366E-01  0.11378062060E+00  0.89038147391E+00  0.88000000000E+00 0.  1.
        -11    1    4    4    0    0  0.41503189814E-01 -0.37923685737E-01 -0.69092118624E-01  0.89076948093E-01  0.51100000000E-03 0. -1.
         11    1    4    4    0    0  0.27826464472E-01 -0.56051029784E-02 -0.29543337098E-01  0.40973152091E-01  0.51100000000E-03 0.  1.
</event>
<event>
 8    1  0.1099478E+005  0.1043930E+01  0.7957747E-01            NaN
         13   -1    0    0    0    0  0.00000000000E+00  0.00000000000E+00  0.74505805969E-08  0.10566000000E+00  0.10566000000E+00 0. -1.
     999900   -1    0    0    0    0 -0.00000000000E+00 -0.00000000000E+00 -0.74505805969E-08  0.93827000000E+00  0.93827000000E+00 0.  1.
     999902    2    1    2    0    0  0.26722057260E-03  0.14468273393E-01  0.22088063553E-01  0.10175238474E+01  0.10171811516E+01 0.  0.
     999903    2    3    3    0    0 -0.45542127575E-01  0.83890718930E-01 -0.82248459411E-01  0.12746537613E+00  0.19258113326E-01 0.  0.
         14    1    1    2    0    0 -0.26722057260E-03 -0.14468273393E-01 -0.22088063553E-01  0.26406152566E-01  0.00000000000E+00 0.  1.
     999901    1    3    3    0    0  0.45809348148E-01 -0.69422445537E-01  0.10433652296E+00  0.89005847131E+00  0.88000000000E+00 0. -1.
        -11    1    4    4    0    0 -0.30594090456E-01  0.37293869793E-01 -0.44915624088E-01  0.65912862957E-01  0.51100000000E-03 0.  1.
         11    1    4    4    0    0 -0.14948037119E-01  0.46596849137E-01 -0.37332835323E-01  0.61552513170E-01  0.51100000000E-03 0. -1.
</event>
<event>
 8    1  0.1099478E+005  0.1043930E+01  0.7957747E-01            NaN
         13   -1    0    0    0    0  0.00000000000E+00  0.00000000000E+00  0.74505805969E-08  0.10566000000E+00  0.10566000000E+00 0.  1.
     999900   -1    0    0    0    0 -0.00000000000E+00 -0.00000000000E+00 -0.74505805969E-08  0.93827000000E+00  0.93827000000E+00 0. -1.
     999902    2    1    2    0    0 -0.12387360829E-02 -0.22946452868E-01 -0.11740027482E-02  0.10209201663E+01  0.10206608317E+01 0.  0.
     999903    2    3    3    0    0  0.17459946301E-01 -0.40624528056E-01 -0.12337490904E+00  0.13210341542E+00  0.16575348604E-01 0.  0.
         14    1    1    2    0    0  0.12387360829E-02  0.22946452868E-01  0.11740027482E-02  0.23009833741E-01  0.00000000000E+00 0.  1.
     999901    1    3    3    0    0 -0.18698682384E-01  0.17678075188E-01  0.12220090629E+00  0.88881675083E+00  0.88000000000E+00 0. -1.
        -11    1    4    4    0    0  0.36746068804E-02 -0.28592167767E-01 -0.79284499751E-01  0.84364138205E-01  0.51100000000E-03 0.  1.
         11    1    4    4    0    0  0.13785339421E-01 -0.12032360289E-01 -0.44090409290E-01  0.47739277220E-01  0.51100000000E-03 0. -1.
</event>
<event>
 8    1  0.1099478E+005  0.1043930E+01  0.7957747E-01            NaN
         13   -1    0    0    0    0  0.00000000000E+00  0.00000000000E+00  0.74505805969E-08  0.10566000000E+00  0.10566000000E+00 0. -1.
     999900   -1    0    0    0    0 -0.00000000000E+00 -0.00000000000E+00 -0.74505805969E-08  0.93827000000E+00  0.93827000000E+00 0. -1.
     999902    2    1    2    0    0 -0.81692489425E-02  0.80566733916E-02 -0.22877902446E-01  0.10183361524E+01  0.10180144764E+01 0.  0.
     999903    2    3    3    0    0 -0.28256028970E-01  0.43742980517E-01  0.11385650668E+00  0.12683556918E+00  0.20300393578E-01 0.  0.
         14    1    1    2    0    0  0.81692489425E-02 -0.80566733916E-02  0.22877902446E-01  0.25593847596E-01  0.00000000000E+00 0. -1.
     999901    1    3    3    0    0  0.20086780028E-01 -0.35686307125E-01 -0.13673440912E+00  0.89150058322E+00  0.88000000000E+00 0. -1.
        -11    1    4    4    0    0 -0.80812644643E-02  0.30775040489E-01  0.61509244452E-01  0.69253579160E-01  0.51100000000E-03 0.  1.
         11    1    4    4    0    0 -0.20174764506E-01  0.12967940028E-01  0.52347262225E-01  0.57581990022E-01  0.51100000000E-03 0. -1.
</event>
<event>
 8    1  0.1099478E+005  0.1043930E+01  0.7957747E-01            NaN
         13   -1    0    0    0    0  0.00000000000E+00  0.00000000000E+00  0.74505805969E-08  0.10566000000E+00  0.10566000000E+00 0. -1.
     999900   -1    0    0    0    0 -0.00000000000E+00 -0.00000000000E+00 -0.74505805969E-08  0.93827000000E+00  0.93827000000E+00 0. -1.
     999902    2    1    2    0    0  0.22261927955E-02 -0.12260372988E-01 -0.21902726960E-01  0.10187307514E+01  0.10184190404E+01 0.  0.
     999903    2    3    3    0    0  0.39787175747E-01  0.20507615699E-01 -0.12278002335E+00  0.13156628108E+00  0.15204293085E-01 0.  0.
         14    1    1    2    0    0 -0.22261927955E-02  0.12260372988E-01  0.21902726960E-01  0.25199248570E-01  0.00000000000E+00 0. -1.
     999901    1    3    3    0    0 -0.37560982952E-01 -0.32767988687E-01  0.10087729639E+00  0.88716447035E+00  0.88000000000E+00 0.  1.
        -11    1    4    4    0    0  0.29819292226E-01  0.13940834871E-01 -0.68678347378E-01  0.76161102837E-01  0.51100000000E-03 0.  1.
         11    1    4    4    0    0  0.99678835212E-02  0.65667808272E-02 -0.54101675972E-01  0.55405178244E-01  0.51100000000E-03 0. -1.
</event>
<event>
 8    1  0.1099478E+005  0.1043930E+01  0.7957747E-01            NaN
         13   -1    0    0    0    0  0.00000000000E+00  0.00000000000E+00  0.74505805969E-08  0.10566000000E+00  0.10566000000E+00 0. -1.
     999900   -1    0    0    0    0 -0.00000000000E+00 -0.00000000000E+00 -0.74505805969E-08  0.93827000000E+00  0.93827000000E+00 0. -1.
     999902    2    1    2    0    0  0.48696115387E-02 -0.18729312880E-01  0.16709839472E-01  0.10183620706E+01  0.10180410541E+01 0.  0.
     999903    2    3    3    0    0  0.16255205408E-01 -0.20795116270E-01  0.12742759823E+00  0.13134892450E+00  0.17834758562E-01 0.  0.
         14    1    1    2    0    0 -0.48696115387E-02  0.18729312880E-01 -0.16709839472E-01  0.25567929378E-01  0.00000000000E+00 0.  1.
     999901    1    3    3    0    0 -0.11385593869E-01  0.20658033899E-02 -0.11071775876E+00  0.88701314612E+00  0.88000000000E+00 0. -1.
        -11    1    4    4    0    0  0.21476279972E-02 -0.55666164414E-03  0.50700848479E-01  0.50751939231E-01  0.51100000000E-03 0.  1.
         11    1    4    4    0    0  0.14107577411E-01 -0.20238454626E-01  0.76726749750E-01  0.80596985268E-01  0.51100000000E-03 0. -1.
</event>
<event>
 8    1  0.1099478E+005  0.1043930E+01  0.7957747E-01            NaN
         13   -1    0    0    0    0  0.00000000000E+00  0.00000000000E+00  0.74505805969E-08  0.10566000000E+00  0.10566000000E+00 0.  1.
     999900   -1    0    0    0    0 -0.00000000000E+00 -0.00000000000E+00 -0.74505805969E-08  0.93827000000E+00  0.93827000000E+00 0.  1.
     999902    2    1    2    0    0 -0.91641852335E-02  0.24630082705E-01 -0.97406707660E-02  0.10159031569E+01  0.10155164796E+01 0.  0.
     999903    2    3    3    0    0 -0.16639320583E-01 -0.55979294960E-01  0.10748238899E+00  0.12444648656E+00  0.22889203177E-01 0.  0.
         14    1    1    2    0    0  0.91641852335E-02 -0.24630082705E-01  0.97406707660E-02  0.28026843062E-01  0.00000000000E+00 0.  1.
     999901    1    3    3    0    0  0.74751353491E-02  0.80609377665E-01 -0.11722305975E+00  0.89145667037E+00  0.88000000000E+00 0. -1.
        -11    1    4    4    0    0  0.57789788982E-04 -0.65882219491E-02  0.32202803172E-01  0.32873844637E-01  0.51100000000E-03 0.  1.
         11    1    4    4    0    0 -0.16697110372E-01 -0.49391073010E-01  0.75279585816E-01  0.91572641927E-01  0.51100000000E-03 0. -1.
</event>
<event>
 8    1  0.1099478E+005  0.1043930E+01  0.7957747E-01            NaN
         13   -1    0    0    0    0  0.00000000000E+00  0.00000000000E+00  0.74505805969E-08  0.10566000000E+00  0.10566000000E+00 0. -1.
     999900   -1    0    0    0    0 -0.00000000000E+00 -0.00000000000E+00 -0.74505805969E-08  0.93827000000E+00  0.93827000000E+00 0.  1.
     999902    2    1    2    0    0 -0.13718079675E-01  0.18511457006E-01  0.60420185651E-02  0.10201105596E+01  0.10198324314E+01 0.  0.
     999903    2    3    3    0    0  0.84653755143E-01  0.68461765091E-01  0.69828031203E-01  0.13093076536E+00  0.20338137477E-01 0.  0.
         14    1    1    2    0    0  0.13718079675E-01 -0.18511457006E-01 -0.60420185651E-02  0.23819440354E-01  0.00000000000E+00 0.  1.
     999901    1    3    3    0    0 -0.98371834818E-01 -0.49950308085E-01 -0.63786012638E-01  0.88917979429E+00  0.88000000000E+00 0.  1.
        -11    1    4    4    0    0  0.32106390639E-03 -0.11384803845E-03  0.35903030773E-02  0.36424498068E-02  0.51100000000E-03 0. -1.
         11    1    4    4    0    0  0.84332691236E-01  0.68575613130E-01  0.66237728126E-01  0.12728831555E+00  0.51100000000E-03 0.  1.
</event>
<event>
 7    1  0.1099478E+005  0.1043930E+01  0.7957747E-01            NaN
         13   -1    0    0    0    0  0.00000000000E+00  0.00000000000E+00  0.74505805969E-08  0.10566000000E+00  0.10566000000E+00 0. -1.
     999900   -1    0    0    0    0 -0.00000000000E+00 -0.00000000000E+00 -0.74505805969E-08  0.93827000000E+00  0.93827000000E+00 0. -1.
     999903    2    1    2    0    0  0.10990816059E+00 -0.28119613396E-01 -0.20192352164E-02  0.11536479708E+00  0.20843288458E-01 0.  0.
         14    1    1    2    0    0 -0.30893397284E-01 -0.15237236174E-01  0.26754181941E-01  0.43616070585E-01  0.00000000000E+00 0. -1.
     999901    1    1    2    0    0 -0.79014763305E-01  0.43356849570E-01 -0.24734946724E-01  0.88494913233E+00  0.88000000000E+00 0. -1.
        -11    1    3    3    0    0  0.18535349601E-01 -0.11488804551E-01  0.44572859944E-02  0.22263879587E-01  0.51100000000E-03 0. -1.
         11    1    3    3    0    0  0.91372810988E-01 -0.16630808844E-01 -0.64765212108E-02  0.93100917496E-01  0.51100000000E-03 0.  1.
</event>
<event>
 8    1  0.1099478E+005  0.1043930E+01  0.7957747E-01            NaN
         13   -1    0    0    0    0  0.00000000000E+00  0.00000000000E+00  0.74505805969E-08  0.10566000000E+00  0.10566000000E+00 0. -1.
     999900   -1    0    0    0    0 -0.00000000000E+00 -0.00000000000E+00 -0.74505805969E-08  0.93827000000E+00  0.93827000000E+00 0.  1.
     999902    2    1    2    0    0 -0.22917549952E-01 -0.25811990383E-02 -0.74986598155E-02  0.10196790911E+01  0.10193906720E+01 0.  0.
     999903    2    3    3    0    0  0.11060232398E+00 -0.41682508871E-01  0.42902950394E-01  0.12732445784E+00  0.20013715164E-01 0.  0.
         14    1    1    2    0    0  0.22917549952E-01  0.25811990383E-02  0.74986598155E-02  0.24250908917E-01  0.00000000000E+00 0. -1.
     999901    1    3    3    0    0 -0.13351987393E+00  0.39101309832E-01 -0.50401610210E-01  0.89235463325E+00  0.88000000000E+00 0. -1.
        -11    1    4    4    0    0  0.23093408758E-01 -0.10389465684E-01  0.18111809515E-01  0.31137522223E-01  0.51100000000E-03 0.  1.
         11    1    4    4    0    0  0.87508915224E-01 -0.31293043186E-01  0.24791140879E-01  0.96186935613E-01  0.51100000000E-03 0. -1.
</event>
<event>
 8    1  0.1099478E+005  0.1043930E+01  0.7957747E-01            NaN
         13   -1    0    0    0    0  0.00000000000E+00  0.00000000000E+00  0.74505805969E-08  0.10566000000E+00  0.10566000000E+00 0. -1.
     999900   -1    0    0    0    0 -0.00000000000E+00 -0.00000000000E+00 -0.74505805969E-08  0.93827000000E+00  0.93827000000E+00 0. -1.
     999902    2    1    2    0    0 -0.35805097999E-02 -0.64058915216E-02  0.22797084181E-01  0.10199808342E+01  0.10196996320E+01 0.  0.
     999903    2    3    3    0    0  0.89244155494E-02  0.12072954647E+00  0.44813383266E-01  0.13048406061E+00  0.19041590514E-01 0.  0.
         14    1    1    2    0    0  0.35805097999E-02  0.64058915216E-02 -0.22797084181E-01  0.23949165826E-01  0.00000000000E+00 0.  1.
     999901    1    3    3    0    0 -0.12504925349E-01 -0.12713543800E+00 -0.22016299084E-01  0.88949677356E+00  0.88000000000E+00 0. -1.
        -11    1    4    4    0    0  0.12177761647E-01  0.42784098876E-01  0.14559865919E-01  0.46808416038E-01  0.51100000000E-03 0. -1.
         11    1    4    4    0    0 -0.32533460975E-02  0.77945447597E-01  0.30253517346E-01  0.83675644574E-01  0.51100000000E-03 0.  1.
</event>
<event>
 8    1  0.1099478E+005  0.1043930E+01  0.7957747E-01            NaN
         13   -1    0    0    0    0  0.00000000000E+00  0.00000000000E+00  0.74505805969E-08  0.10566000000E+00  0.10566000000E+00 0.  1.
     999900   -1    0    0    0    0 -0.00000000000E+00 -0.00000000000E+00 -0.74505805969E-08  0.93827000000E+00  0.93827000000E+00 0. -1.
     999902    2    1    2    0    0 -0.14178928540E-01 -0.16108708347E-01 -0.82920466188E-02  0.10209236849E+01  0.10206644305E+01 0.  0.
     999903    2    3    3    0    0 -0.78502494962E-01 -0.40706095064E-01 -0.98255517727E-01  0.13366048898E+00  0.19782610037E-01 0.  0.
         14    1    1    2    0    0  0.14178928540E-01  0.16108708347E-01  0.82920466188E-02  0.23006315139E-01  0.00000000000E+00 0. -1.
     999901    1    3    3    0    0  0.64323566422E-01  0.24597386716E-01  0.89963471109E-01  0.88726319588E+00  0.88000000000E+00 0.  1.
        -11    1    4    4    0    0 -0.61058773181E-01 -0.23598742054E-01 -0.63727822885E-01  0.91359569502E-01  0.51100000000E-03 0. -1.
         11    1    4    4    0    0 -0.17443721781E-01 -0.17107353010E-01 -0.34527694842E-01  0.42300919478E-01  0.51100000000E-03 0.  1.
</event>
<event>
 8    1  0.1099478E+005  0.1043930E+01  0.7957747E-01            NaN
         13   -1    0    0    0    0  0.00000000000E+00  0.00000000000E+00  0.74505805969E-08  0.10566000000E+00  0.10566000000E+00 0. -1.
     999900   -1    0    0    0    0 -0.00000000000E+00 -0.00000000000E+00 -0.74505805969E-08  0.93827000000E+00  0.93827000000E+00 0. -1.
     999902    2    1    2    0    0  0.21383452032E-01  0.99223166441E-02 -0.17062261627E-02  0.10202949498E+01  0.10200211611E+01 0.  0.
     999903    2    3    3    0    0 -0.11662168154E+00  0.24382593201E-01  0.43292777813E-01  0.12828630254E+00  0.19697293045E-01 0.  0.
         14    1    1    2    0    0 -0.21383452032E-01 -0.99223166441E-02  0.17062261627E-02  0.23635050161E-01  0.00000000000E+00 0. -1.
     999901    1    3    3    0    0  0.13800513357E+00 -0.14460276557E-01 -0.44999003975E-01  0.89200864730E+00  0.88000000000E+00 0. -1.
        -11    1    4    4    0    0 -0.91558913970E-01  0.10668206480E-01  0.33614940128E-01  0.98117636935E-01  0.51100000000E-03 0.  1.
         11    1    4    4    0    0 -0.25062767569E-01  0.13714386721E-01  0.96778376852E-02  0.30168665609E-01  0.51100000000E-03 0. -1.
</event>
<event>
 8    1  0.1099478E+005  0.1043930E+01  0.7957747E-01            NaN
         13   -1    0    0    0    0  0.00000000000E+00  0.00000000000E+00  0.74505805969E-08  0.10566000000E+00  0.10566000000E+00 0. -1.
     999900   -1    0    0    0    0 -0.00000000000E+00 -0.00000000000E+00 -0.74505805969E-08  0.93827000000E+00  0.93827000000E+00 0. -1.
     999902    2    1    2    0    0 -0.19342745173E-01 -0.70683349684E-02 -0.10998164319E-01  0.10205834206E+01  0.10203163508E+01 0.  0.
     999903    2    3    3    0    0 -0.11730313260E-01  0.12634763844E+00  0.19722999376E-01  0.12996478115E+00  0.20013036935E-01 0.  0.
         14    1    1    2    0    0  0.19342745173E-01  0.70683349684E-02  0.10998164319E-01  0.23346579373E-01  0.00000000000E+00 0. -1.
     999901    1    3    3    0    0 -0.76124319126E-02 -0.13341597341E+00 -0.30721163695E-01  0.89061863947E+00  0.88000000000E+00 0.  1.
        -11    1    4    4    0    0 -0.42649927722E-02  0.32003276600E-01 -0.36066969721E-02  0.32491064318E-01  0.51100000000E-03 0. -1.
         11    1    4    4    0    0 -0.74653204882E-02  0.94344361839E-01  0.23329696349E-01  0.97473716834E-01  0.51100000000E-03 0.  1.
</event>
<event>
 8    1  0.1099478E+005  0.1043930E+01  0.7957747E-01            NaN
         13   -1    0    0    0    0  0.00000000000E+00  0.00000000000E+00  0.74505805969E-08  0.10566000000E+00  0.10566000000E+00 0. -1.
     999900   -1    0    0    0    0 -0.00000000000E+00 -0.00000000000E+00 -0.74505805969E-08  0.93827000000E+00  0.93827000000E+00 0. -1.
     999902    2    1    2    0    0 -0.12305805459E-01  0.68302986843E-02  0.12052648159E-01  0.10254002359E+01  0.10252327988E+01 0.  0.
     999903    2    3    3    0    0 -0.40071004556E-01  0.31078486159E-01  0.12584814509E+00  0.13730773176E+00  0.21073677161E-01 0.  0.
         14    1    1    2    0    0  0.12305805459E-01 -0.68302986843E-02 -0.12052648159E-01  0.18529764050E-01  0.00000000000E+00 0.  1.
     999901    1    3    3    0    0  0.27765199097E-01 -0.24248187475E-01 -0.11379549694E+00  0.88809250419E+00  0.88000000000E+00 0. -1.
        -11    1    4    4    0    0 -0.11982767030E-01 -0.12686828086E-02  0.26514993942E-01  0.29129062575E-01  0.51100000000E-03 0. -1.
         11    1    4    4    0    0 -0.28088237526E-01  0.32347168968E-01  0.99333151152E-01  0.10817866918E+00  0.51100000000E-03 0.  1.
</event>
<event>
 8    1  0.1099478E+005  0.1043930E+01  0.7957747E-01            NaN
         13   -1    0    0    0    0  0.00000000000E+00  0.00000000000E+00  0.74505805969E-08  0.10566000000E+00  0.10566000000E+00 0. -1.
     999900   -1    0    0    0    0 -0.00000000000E+00 -0.00000000000E+00 -0.74505805969E-08  0.93827000000E+00  0.93827000000E+00 0.  1.
     999902    2    1    2    0    0 -0.16706019741E-01 -0.13502425184E-01 -0.50262983587E-02  0.10218693958E+01  0.10216312406E+01 0.  0.
     999903    2    3    3    0    0  0.95728165714E-01 -0.88987450121E-01  0.98127156248E-02  0.13138658780E+00  0.91377281598E-02 0.  0.
         14    1    1    2    0    0  0.16706019741E-01  0.13502425184E-01  0.50262983587E-02  0.22060604176E-01  0.00000000000E+00 0. -1.
     999901    1    3    3    0    0 -0.11243418545E+00  0.75485024937E-01 -0.14839013984E-01  0.89048280802E+00  0.88000000000E+00 0.  1.
        -11    1    4    4    0    0  0.42997262877E-01 -0.43624151761E-01  0.92978238002E-03  0.61261381376E-01  0.51100000000E-03 0.  1.
         11    1    4    4    0    0  0.52730902837E-01 -0.45363298361E-01  0.88829332448E-02  0.70125206425E-01  0.51100000000E-03 0. -1.
</event>
<event>
 8    1  0.1099478E+005  0.1043930E+01  0.7957747E-01            NaN
         13   -1    0    0    0    0  0.00000000000E+00  0.00000000000E+00  0.74505805969E-08  0.10566000000E+00  0.10566000000E+00 0.  1.
     999900   -1    0    0    0    0 -0.00000000000E+00 -0.00000000000E+00 -0.74505805969E-08  0.93827000000E+00  0.93827000000E+00 0.  1.
     999902    2    1    2    0    0  0.13646389192E-01 -0.17790366372E-01 -0.47616013592E-02  0.10210085271E+01  0.10207512030E+01 0.  0.
     999903    2    3    3    0    0 -0.12219017278E+00  0.33873644373E-01  0.51061511758E-02  0.12903424823E+00  0.23364552826E-01 0.  0.
         14    1    1    2    0    0 -0.13646389192E-01  0.17790366372E-01  0.47616013592E-02  0.22921472927E-01  0.00000000000E+00 0.  1.
     999901    1    3    3    0    0  0.13583656198E+00 -0.51664010746E-01 -0.98677525350E-02  0.89197427884E+00  0.88000000000E+00 0. -1.
        -11    1    4    4    0    0 -0.53429776133E-01  0.11944458809E-01 -0.90239933241E-02  0.55489680575E-01  0.51100000000E-03 0. -1.
         11    1    4    4    0    0 -0.68760396651E-01  0.21929185565E-01  0.14130144500E-01  0.73544567656E-01  0.51100000000E-03 0.  1.
</event>
<event>
 8    1  0.1099478E+005  0.1043930E+01  0.7957747E-01            NaN
         13   -1    0    0    0    0  0.00000000000E+00  0.00000000000E+00  0.74505805969E-08  0.10566000000E+00  0.10566000000E+00 0. -1.
     999900   -1    0    0    0    0 -0.00000000000E+00 -0.00000000000E+00 -0.74505805969E-08  0.93827000000E+00  0.93827000000E+00 0.  1.
     999902    2    1    2    0    0 -0.12083208002E-01 -0.11424183388E-01 -0.88286198435E-02  0.10251028810E+01  0.10249299762E+01 0.  0.
     999903    2    3    3    0    0 -0.32729308330E-01  0.72898078202E-01 -0.10763057628E+00  0.13532856587E+00  0.18551074376E-01 0.  0.
         14    1    1    2    0    0  0.12083208002E-01  0.11424183388E-01  0.88286198435E-02  0.18827119006E-01  0.00000000000E+00 0.  1.
     999901    1    3    3    0    0  0.20646100328E-01 -0.84322261590E-01  0.98801956438E-01  0.88977431512E+00  0.88000000000E+00 0. -1.
        -11    1    4    4    0    0 -0.10639052866E-01  0.40757820128E-01 -0.45832749913E-01  0.62251838793E-01  0.51100000000E-03 0.  1.
         11    1    4    4    0    0 -0.22090255464E-01  0.32140258074E-01 -0.61797826368E-01  0.73076727078E-01  0.51100000000E-03 0. -1.
</event>
<event>
 8    1  0.1099478E+005  0.1043930E+01  0.7957747E-01            NaN
         13   -1    0    0    0    0  0.00000000000E+00  0.00000000000E+00  0.74505805969E-08  0.10566000000E+00  0.10566000000E+00 0.  1.
     999900   -1    0    0    0    0 -0.00000000000E+00 -0.00000000000E+00 -0.74505805969E-08  0.93827000000E+00  0.93827000000E+00 0. -1.
     999902    2    1    2    0    0  0.63325671434E-02  0.23769277201E-01 -0.57806718837E-02  0.10186615194E+01  0.10183480716E+01 0.  0.
     999903    2    3    3    0    0  0.11553148782E+00 -0.39907253223E-02  0.54360351311E-01  0.12944165642E+00  0.20896029638E-01 0.  0.
         14    1    1    2    0    0 -0.63325671434E-02 -0.23769277201E-01  0.57806718837E-02  0.25268480617E-01  0.00000000000E+00 0. -1.
     999901    1    3    3    0    0 -0.10919892068E+00  0.27760002523E-01 -0.60141023194E-01  0.88921986296E+00  0.88000000000E+00 0. -1.
        -11    1    4    4    0    0  0.70032882065E-01 -0.39461306547E-02  0.43908996088E-01  0.82755287299E-01  0.51100000000E-03 0.  1.
         11    1    4    4    0    0  0.45498605759E-01 -0.44594667578E-04  0.10451355223E-01  0.46686369121E-01  0.51100000000E-03 0. -1.
</event>
<event>
 8    1  0.1099478E+005  0.1043930E+01  0.7957747E-01            NaN
         13   -1    0    0    0    0  0.00000000000E+00  0.00000000000E+00  0.74505805969E-08  0.10566000000E+00  0.10566000000E+00 0.  1.
     999900   -1    0    0    0    0 -0.00000000000E+00 -0.00000000000E+00 -0.74505805969E-08  0.93827000000E+00  0.93827000000E+00 0.  1.
     999902    2    1    2    0    0 -0.19384461401E-01 -0.95817867352E-02 -0.81135187195E-02  0.10208346072E+01  0.10205733184E+01 0.  0.
     999903    2    3    3    0    0  0.62413778994E-01  0.10513594373E+00  0.31669158826E-01  0.12873944906E+00  0.24937194111E-01 0.  0.
         14    1    1    2    0    0  0.19384461401E-01  0.95817867352E-02  0.81135187195E-02  0.23095392762E-01  0.00000000000E+00 0.  1.
     999901    1    3    3    0    0 -0.81798240395E-01 -0.11471773047E+00 -0.39782677546E-01  0.89209515818E+00  0.88000000000E+00 0. -1.
        -11    1    4    4    0    0  0.20639390065E-01  0.34023293625E-01  0.22597792488E-01  0.45765601467E-01  0.51100000000E-03 0. -1.
         11    1    4    4    0    0  0.41774388929E-01  0.71112650108E-01  0.90713663382E-02  0.82973847590E-01  0.51100000000E-03 0.  1.
</event>
<event>
 8    1  0.1099478E+005  0.1043930E+01  0.7957747E-01            NaN
         13   -1    0    0    0    0  0.00000000000E+00  0.00000000000E+00  0.74505805969E-08  0.10566000000E+00  0.10566000000E+00 0.  1.
     999900   -1    0    0    0    0 -0.00000000000E+00 -0.00000000000E+00 -0.74505805969E-08  0.93827000000E+00  0.93827000000E+00 0.  1.
     999902    2    1    2    0    0 -0.17942797553E-01  0.12117868210E-01  0.11658170203E-01  0.10193393586E+01  0.10190427019E+01 0.  0.
     999903    2    3    3    0    0 -0.22111876033E-02  0.11205054590E-01  0.12943063022E+00  0.13135362156E+00  0.19262483142E-01 0.  0.
         14    1    1    2    0    0  0.17942797553E-01 -0.12117868210E-01 -0.11658170203E-01  0.24590641441E-01  0.00000000000E+00 0.  1.
     999901    1    3    3    0    0 -0.15731609950E-01  0.91281361945E-03 -0.11777246002E+00  0.88798573700E+00  0.88000000000E+00 0.  1.
        -11    1    4    4    0    0 -0.92047664735E-02  0.45257949743E-03  0.43409056972E-01  0.44379498670E-01  0.51100000000E-03 0. -1.
         11    1    4    4    0    0  0.69935788703E-02  0.10752475093E-01  0.86021573253E-01  0.86974122887E-01  0.51100000000E-03 0.  1.
</event>
<event>
 8    1  0.1099478E+005  0.1043930E+01  0.7957747E-01            NaN
         13   -1    0    0    0    0  0.00000000000E+00  0.00000000000E+00  0.74505805969E-08  0.10566000000E+00  0.10566000000E+00 0.  1.
     999900   -1    0    0    0    0 -0.00000000000E+00 -0.00000000000E+00 -0.74505805969E-08  0.93827000000E+00  0.93827000000E+00 0.  1.
     999902    2    1    2    0    0  0.63127898899E-02  0.12991866365E-01 -0.14130253268E-01  0.10237234673E+01  0.10235240268E+01 0.  0.
     999903    2    3    3    0    0  0.61092421387E-01  0.75296893194E-01 -0.93591457483E-01  0.13625695670E+00  0.20116939622E-01 0.  0.
         14    1    1    2    0    0 -0.63127898899E-02 -0.12991866365E-01  0.14130253268E-01  0.20206532737E-01  0.00000000000E+00 0.  1.
     999901    1    3    3    0    0 -0.54779631497E-01 -0.62305026829E-01  0.79461204214E-01  0.88746651056E+00  0.88000000000E+00 0. -1.
        -11    1    4    4    0    0  0.79681171583E-02  0.20138815494E-02 -0.51786101309E-02  0.97275759483E-02  0.51100000000E-03 0. -1.
         11    1    4    4    0    0  0.53124304229E-01  0.73283011645E-01 -0.88412847352E-01  0.12652938075E+00  0.51100000000E-03 0.  1.
</event>
<event>
 8    1  0.1099478E+005  0.1043930E+01  0.7957747E-01            NaN
         13   -1    0    0    0    0  0.00000000000E+00  0.00000000000E+00  0.74505805969E-08  0.10566000000E+00  0.10566000000E+00 0.  1.
     999900   -1    0    0    0    0 -0.00000000000E+00 -0.00000000000E+00 -0.74505805969E-08  0.93827000000E+00  0.93827000000E+00 0. -1.
     999902    2    1    2    0    0 -0.13262978072E-01  0.18947023287E-01  0.51502214604E-02  0.10202356745E+01  0.10199604946E+01 0.  0.
     999903    2    3    3    0    0  0.11822460120E+00  0.28927442991E-02 -0.46759689976E-01  0.12880908625E+00  0.20491163831E-01 0.  0.
         14    1    1    2    0    0  0.13262978072E-01 -0.18947023287E-01 -0.51502214604E-02  0.23694325478E-01  0.00000000000E+00 0.  1.
     999901    1    3    3    0    0 -0.13148757927E+00  0.16054278988E-01  0.51909911436E-01  0.89142658827E+00  0.88000000000E+00 0.  1.
        -11    1    4    4    0    0  0.55256176490E-01 -0.46470836910E-02 -0.12974956654E-01  0.56951304184E-01  0.51100000000E-03 0. -1.
         11    1    4    4    0    0  0.62968424710E-01  0.75398279901E-02 -0.33784733322E-01  0.71857782064E-01  0.51100000000E-03 0.  1.
</event>
<event>
 8    1  0.1099478E+005  0.1043930E+01  0.7957747E-01            NaN
         13   -1    0    0    0    0  0.00000000000E+00  0.00000000000E+00  0.74505805969E-08  0.10566000000E+00  0.10566000000E+00 0.  1.
     999900   -1    0    0    0    0 -0.00000000000E+00 -0.00000000000E+00 -0.74505805969E-08  0.93827000000E+00  0.93827000000E+00 0. -1.
     999902    2    1    2    0    0 -0.14787920548E-01  0.22884404501E-02  0.17285919367E-01  0.10210668733E+01  0.10208108724E+01 0.  0.
     999903    2    3    3    0    0  0.10605319897E+00 -0.57868390109E-01  0.44558586796E-01  0.13035635983E+00  0.20280071605E-01 0.  0.
         14    1    1    2    0    0  0.14787920548E-01 -0.22884404501E-02 -0.17285919367E-01  0.22863126693E-01  0.00000000000E+00 0. -1.
     999901    1    3    3    0    0 -0.12084111952E+00  0.60156830559E-01 -0.27272667430E-01  0.89071051348E+00  0.88000000000E+00 0. -1.
        -11    1    4    4    0    0  0.62689034084E-01 -0.39706193185E-01  0.36335804499E-01  0.82625955856E-01  0.51100000000E-03 0. -1.
         11    1    4    4    0    0  0.43364164890E-01 -0.18162196924E-01  0.82227822977E-02  0.47730403973E-01  0.51100000000E-03 0.  1.
</event>
<event>
 8    1  0.1099478E+005  0.1043930E+01  0.7957747E-01            NaN
         13   -1    0    0    0    0  0.00000000000E+00  0.00000000000E+00  0.74505805969E-08  0.10566000000E+00  0.10566000000E+00 0.  1.
     999900   -1    0    0    0    0 -0.00000000000E+00 -0.00000000000E+00 -0.74505805969E-08  0.93827000000E+00  0.93827000000E+00 0. -1.
     999902    2    1    2    0    0  0.14890458188E-01  0.11250557771E-01 -0.14825094059E-01  0.10200954828E+01  0.10198169982E+01 0.  0.
     999903    2    3    3    0    0 -0.13358581366E-01 -0.84739643970E-01  0.92994413674E-01  0.12788632948E+00  0.18646536848E-01 0.  0.
         14    1    1    2    0    0 -0.14890458188E-01 -0.11250557771E-01  0.14825094059E-01  0.23834517177E-01  0.00000000000E+00 0.  1.
     999901    1    3    3    0    0  0.28249039554E-01  0.95990201741E-01 -0.10781950773E+00  0.89220915335E+00  0.88000000000E+00 0. -1.
        -11    1    4    4    0    0 -0.15801884699E-01 -0.40849966626E-01  0.44860460809E-01  0.62698814968E-01  0.51100000000E-03 0. -1.
         11    1    4    4    0    0  0.24433033332E-02 -0.43889677345E-01  0.48133952865E-01  0.65187514510E-01  0.51100000000E-03 0.  1.
</event>
<event>
 8    1  0.1099478E+005  0.1043930E+01  0.7957747E-01            NaN
         13   -1    0    0    0    0  0.00000000000E+00  0.00000000000E+00  0.74505805969E-08  0.10566000000E+00  0.10566000000E+00 0. -1.
     999900   -1    0    0    0    0 -0.00000000000E+00 -0.00000000000E+00 -0.74505805969E-08  0.93827000000E+00  0.93827000000E+00 0.  1.
     999902    2    1    2    0    0  0.14742146098E-01  0.72747412413E-02  0.14048419365E-01  0.10223056892E+01  0.10220769596E+01 0.  0.
     999903    2    3    3    0    0  0.25283014811E-02 -0.11975442839E+00 -0.47282625408E-01  0.13098807745E+00  0.23973200449E-01 0.  0.
         14    1    1    2    0    0 -0.14742146098E-01 -0.72747412413E-02 -0.14048419365E-01  0.21624310818E-01  0.00000000000E+00 0.  1.
     999901    1    3    3    0    0  0.12213844617E-01  0.12702916963E+00  0.61331044773E-01  0.89131761174E+00  0.88000000000E+00 0. -1.
        -11    1    4    4    0    0 -0.38800790776E-02 -0.15330908820E-01  0.80840333403E-03  0.15843181999E-01  0.51100000000E-03 0.  1.
         11    1    4    4    0    0  0.64083805587E-02 -0.10442351957E+00 -0.48091028742E-01  0.11514489545E+00  0.51100000000E-03 0. -1.
</event>
<event>
 8    1  0.1099478E+005  0.1043930E+01  0.7957747E-01            NaN
         13   -1    0    0    0    0  0.00000000000E+00  0.00000000000E+00  0.74505805969E-08  0.10566000000E+00  0.10566000000E+00 0. -1.
     999900   -1    0    0    0    0 -0.00000000000E+00 -0.00000000000E+00 -0.74505805969E-08  0.93827000000E+00  0.93827000000E+00 0. -1.
     999902    2    1    2    0    0  0.19634236833E-01 -0.26249547295E-03  0.91655497019E-02  0.10222602178E+01  0.10220305149E+01 0.  0.
     999903    2    3    3    0    0 -0.21831047252E-01  0.12700591261E+00  0.20989632252E-01  0.13206000075E+00  0.19803602576E-01 0.  0.
         14    1    1    2    0    0 -0.19634236833E-01  0.26249547295E-03 -0.91655497019E-02  0.21669782215E-01  0.00000000000E+00 0.  1.
     999901    1    3    3    0    0  0.41465284085E-01 -0.12726840808E+00 -0.11824082550E-01  0.89020021703E+00  0.88000000000E+00 0.  1.
        -11    1    4    4    0    0 -0.10977402082E-01  0.23301927795E-01  0.80324100181E-02  0.26986365578E-01  0.51100000000E-03 0.  1.
         11    1    4    4    0    0 -0.10853645170E-01  0.10370398481E+00  0.12957222234E-01  0.10507363517E+00  0.51100000000E-03 0. -1.
</event>
<event>
 8    1  0.1099478E+005  0.1043930E+01  0.7957747E-01            NaN
         13   -1    0    0    0    0  0.00000000000E+00  0.00000000000E+00  0.74505805969E-08  0.10566000000E+00  0.10566000000E+00 0. -1.
     999900   -1    0    0    0    0 -0.00000000000E+00 -0.00000000000E+00 -0.74505805969E-08  0.93827000000E+00  0.93827000000E+00 0. -1.
     999902    2    1    2    0    0 -0.19136583225E-01 -0.85114399318E-02  0.73610063979E-02  0.10217300486E+01  0.10214888420E+01 0.  0.
     999903    2    3    3    0    0 -0.22309824195E-01 -0.33946144967E-01  0.12563419006E+00  0.13344769503E+00  0.19346022439E-01 0.  0.
         14    1    1    2    0    0  0.19136583225E-01  0.85114399318E-02 -0.73610063979E-02  0.22199951406E-01  0.00000000000E+00 0. -1.
     999901    1    3    3    0    0  0.31732409705E-02  0.25434705035E-01 -0.11827318366E+00  0.88828235356E+00  0.88000000000E+00 0. -1.
        -11    1    4    4    0    0 -0.91790719630E-02 -0.91635192660E-02  0.69423395999E-01  0.70626443210E-01  0.51100000000E-03 0.  1.
         11    1    4    4    0    0 -0.13130752232E-01 -0.24782625701E-01  0.56210794058E-01  0.62821251822E-01  0.51100000000E-03 0. -1.
</event>
<event>
 8    1  0.1099478E+005  0.1043930E+01  0.7957747E-01            NaN
         13   -1    0    0    0    0  0.00000000000E+00  0.00000000000E+00  0.74505805969E-08  0.10566000000E+00  0.10566000000E+00 0.  1.
     999900   -1    0    0    0    0 -0.00000000000E+00 -0.00000000000E+00 -0.74505805969E-08  0.93827000000E+00  0.93827000000E+00 0.  1.
     999902    2    1    2    0    0  0.12849850828E-01  0.55813374267E-02  0.19231219217E-01  0.10201369383E+01  0.10198594330E+01 0.  0.
     999903    2    3    3    0    0  0.79755307909E-01  0.99032316249E-01  0.31031357956E-01  0.13258487281E+00  0.21154066293E-01 0.  0.
         14    1    1    2    0    0 -0.12849850828E-01 -0.55813374267E-02 -0.19231219217E-01  0.23793061727E-01  0.00000000000E+00 0. -1.
     999901    1    3    3    0    0 -0.66905457081E-01 -0.93450978822E-01 -0.11800138739E-01  0.88755206546E+00  0.88000000000E+00 0.  1.
        -11    1    4    4    0    0  0.33223174775E-01  0.57345421635E-01  0.12779922076E-01  0.67497142561E-01  0.51100000000E-03 0.  1.
         11    1    4    4    0    0  0.46532133134E-01  0.41686894613E-01  0.18251435880E-01  0.65087730251E-01  0.51100000000E-03 0. -1.
</event>
<event>
 8    1  0.1099478E+005  0.1043930E+01  0.7957747E-01            NaN
         13   -1    0    0    0    0  0.00000000000E+00  0.00000000000E+00  0.74505805969E-08  0.10566000000E+00  0.10566000000E+00 0. -1.
     999900   -1    0    0    0    0 -0.00000000000E+00 -0.00000000000E+00 -0.74505805969E-08  0.93827000000E+00  0.93827000000E+00 0.  1.
     999902    2    1    2    0    0  0.10793955451E-02  0.79721371143E-02 -0.21929170497E-01  0.10205717341E+01  0.10203043938E+01 0.  0.
     999903    2    3    3    0    0  0.11767696839E+00 -0.37127115259E-01 -0.40799642641E-01  0.13153572179E+00  0.20266812533E-01 0.  0.
         14    1    1    2    0    0 -0.10793955451E-02 -0.79721371143E-02  0.21929170497E-01  0.23358265852E-01  0.00000000000E+00 0. -1.
     999901    1    3    3    0    0 -0.11659757284E+00  0.45099252374E-01  0.18870472145E-01  0.88903601236E+00  0.88000000000E+00 0. -1.
        -11    1    4    4    0    0  0.41437500547E-01 -0.17414252010E-01 -0.56706135896E-02  0.45307169456E-01  0.51100000000E-03 0. -1.
         11    1    4    4    0    0  0.76239467840E-01 -0.19712863249E-01 -0.35129029052E-01  0.86228552331E-01  0.51100000000E-03 0.  1.
</event>
<event>
 8    1  0.1099478E+005  0.1043930E+01  0.7957747E-01            NaN
         13   -1    0    0    0    0  0.00000000000E+00  0.00000000000E+00  0.74505805969E-08  0.10566000000E+00  0.10566000000E+00 0.  1.
     999900   -1    0    0    0    0 -0.00000000000E+00 -0.00000000000E+00 -0.74505805969E-08  0.93827000000E+00  0.93827000000E+00 0.  1.
     999902    2    1    2    0    0  0.13231097372E-01 -0.15855292425E-01  0.11585553502E-01  0.10202513749E+01  0.10199765638E+01 0.  0.
     999903    2    3    3    0    0  0.15367497948E-01 -0.84328665803E-01 -0.96982274235E-01  0.13093695342E+00  0.19784852456E-01 0.  0.
         14    1    1    2    0    0 -0.13231097372E-01  0.15855292425E-01 -0.11585553502E-01  0.23678625076E-01  0.00000000000E+00 0.  1.
     999901    1    3    3    0    0 -0.21364005761E-02  0.68473373378E-01  0.10856782774E+00  0.88931442150E+00  0.88000000000E+00 0. -1.
        -11    1    4    4    0    0  0.15366975347E-01 -0.54965262884E-01 -0.51967662785E-01  0.77189527473E-01  0.51100000000E-03 0.  1.
         11    1    4    4    0    0  0.52260134801E-06 -0.29363402919E-01 -0.45014611450E-01  0.53747425950E-01  0.51100000000E-03 0. -1.
</event>
<event>
 8    1  0.1099478E+005  0.1043930E+01  0.7957747E-01            NaN
         13   -1    0    0    0    0  0.00000000000E+00  0.00000000000E+00  0.74505805969E-08  0.10566000000E+00  0.10566000000E+00 0. -1.
     999900   -1    0    0    0    0 -0.00000000000E+00 -0.00000000000E+00 -0.74505805969E-08  0.93827000000E+00  0.93827000000E+00 0. -1.
     999902    2    1    2    0    0  0.11355343766E-01 -0.20101647263E-01  0.37060940287E-02  0.10205472032E+01  0.10202792945E+01 0.  0.
     999903    2    3    3    0    0 -0.10997994640E+00 -0.67330151667E-01 -0.93602611022E-02  0.13087113071E+00  0.20265745283E-01 0.  0.
         14    1    1    2    0    0 -0.11355343766E-01  0.20101647263E-01 -0.37060940287E-02  0.23382796832E-01  0.00000000000E+00 0. -1.
     999901    1    3    3    0    0  0.12133529017E+00  0.47228504404E-01  0.13066355131E-01  0.88967607246E+00  0.88000000000E+00 0. -1.
        -11    1    4    4    0    0 -0.78731031881E-01 -0.46127162756E-01 -0.15656054446E-01  0.92583279737E-01  0.51100000000E-03 0. -1.
         11    1    4    4    0    0 -0.31248914519E-01 -0.21202988911E-01  0.62957933435E-02  0.38287850973E-01  0.51100000000E-03 0.  1.
</event>
<event>
 8    1  0.1099478E+005  0.1043930E+01  0.7957747E-01            NaN
         13   -1    0    0    0    0  0.00000000000E+00  0.00000000000E+00  0.74505805969E-08  0.10566000000E+00  0.10566000000E+00 0. -1.
     999900   -1    0    0    0    0 -0.00000000000E+00 -0.00000000000E+00 -0.74505805969E-08  0.93827000000E+00  0.93827000000E+00 0. -1.
     999902    2    1    2    0    0  0.11184469180E-01  0.20604138973E-01  0.41639898561E-02  0.10201190423E+01  0.10198411145E+01 0.  0.
     999903    2    3    3    0    0 -0.46593143131E-01  0.89007222209E-01  0.83342561898E-01  0.13203882042E+00  0.19876138498E-01 0.  0.
         14    1    1    2    0    0 -0.11184469180E-01 -0.20604138973E-01 -0.41639898561E-02  0.23810957670E-01  0.00000000000E+00 0.  1.
     999901    1    3    3    0    0  0.57777612311E-01 -0.68403083236E-01 -0.79178572041E-01  0.88808022191E+00  0.88000000000E+00 0. -1.
        -11    1    4    4    0    0 -0.31181883130E-01  0.75083083822E-01  0.61921856607E-01  0.10219763578E+00  0.51100000000E-03 0. -1.
         11    1    4    4    0    0 -0.15411260001E-01  0.13924138387E-01  0.21420705291E-01  0.29841184641E-01  0.51100000000E-03 0.  1.
</event>
<event>
 8    1  0.1099478E+005  0.1043930E+01  0.7957747E-01            NaN
         13   -1    0    0    0    0  0.00000000000E+00  0.00000000000E+00  0.74505805969E-08  0.10566000000E+00  0.10566000000E+00 0.  1.
     999900   -1    0    0    0    0 -0.00000000000E+00 -0.00000000000E+00 -0.74505805969E-08  0.93827000000E+00  0.93827000000E+00 0.  1.
     999902    2    1    2    0    0 -0.10958767889E-01  0.20165399159E-01  0.58849173166E-02  0.10202367485E+01  0.10199615938E+01 0.  0.
     999903    2    3    3    0    0 -0.12500921942E-02 -0.85841676472E-01 -0.93254314690E-01  0.12829485248E+00  0.19820338432E-01 0.  0.
         14    1    1    2    0    0  0.10958767889E-01 -0.20165399159E-01 -0.58849173166E-02  0.23693251544E-01  0.00000000000E+00 0. -1.
     999901    1    3    3    0    0 -0.97086756953E-02  0.10600707563E+00  0.99139232006E-01  0.89194189597E+00  0.88000000000E+00 0. -1.
        -11    1    4    4    0    0 -0.85273074689E-02 -0.56655732918E-01 -0.53076396024E-01  0.78102189348E-01  0.51100000000E-03 0. -1.
         11    1    4    4    0    0  0.72772152747E-02 -0.29185943555E-01 -0.40177918666E-01  0.50192663136E-01  0.51100000000E-03 0.  1.
</event>
<event>
 7    1  0.1099478E+005  0.1043930E+01  0.7957747E-01            NaN
         13   -1    0    0    0    0  0.00000000000E+00  0.00000000000E+00  0.74505805969E-08  0.10566000000E+00  0.10566000000E+00 0. -1.
     999900   -1    0    0    0    0 -0.00000000000E+00 -0.00000000000E+00 -0.74505805969E-08  0.93827000000E+00  0.93827000000E+00 0. -1.
     999903    2    1    2    0    0 -0.40474748401E-01 -0.28678377961E-01 -0.77441175863E-01  0.94028151538E-01  0.19583231143E-01 0.  0.
         14    1    1    2    0    0  0.44753144844E-01 -0.35082402341E-01  0.34559717301E-01  0.66543166346E-01  0.00000000000E+00 0. -1.
     999901    1    1    2    0    0 -0.42783964436E-02  0.63760780302E-01  0.42881458562E-01  0.88335868212E+00  0.88000000000E+00 0.  1.
        -11    1    3    3    0    0 -0.12173707109E-01 -0.16066242923E-01 -0.44205433220E-01  0.48587084226E-01  0.51100000000E-03 0. -1.
         11    1    3    3    0    0 -0.28301041291E-01 -0.12612135038E-01 -0.33235742643E-01  0.45441067312E-01  0.51100000000E-03 0.  1.
</event>
<event>
 8    1  0.1099478E+005  0.1043930E+01  0.7957747E-01            NaN
         13   -1    0    0    0    0  0.00000000000E+00  0.00000000000E+00  0.74505805969E-08  0.10566000000E+00  0.10566000000E+00 0. -1.
     999900   -1    0    0    0    0 -0.00000000000E+00 -0.00000000000E+00 -0.74505805969E-08  0.93827000000E+00  0.93827000000E+00 0. -1.
     999902    2    1    2    0    0 -0.11864559908E-01 -0.14989951308E-01 -0.14234826643E-01  0.10200952205E+01  0.10198167297E+01 0.  0.
     999903    2    3    3    0    0 -0.10641741222E+00 -0.75515448514E-01 -0.14782652304E-01  0.13296283031E+00  0.20816792457E-01 0.  0.
         14    1    1    2    0    0  0.11864559908E-01  0.14989951308E-01  0.14234826643E-01  0.23834779453E-01  0.00000000000E+00 0. -1.
     999901    1    3    3    0    0  0.94552852309E-01  0.60525497206E-01  0.54782566083E-03  0.88713239024E+00  0.88000000000E+00 0. -1.
        -11    1    4    4    0    0 -0.34855140698E-01 -0.37130225255E-01 -0.58833858469E-02  0.51268019375E-01  0.51100000000E-03 0.  1.
         11    1    4    4    0    0 -0.71562271519E-01 -0.38385223258E-01 -0.88992664569E-02  0.81694810937E-01  0.51100000000E-03 0. -1.
</event>
<event>
 8    1  0.1099478E+005  0.1043930E+01  0.7957747E-01            NaN
         13   -1    0    0    0    0  0.00000000000E+00  0.00000000000E+00  0.74505805969E-08  0.10566000000E+00  0.10566000000E+00 0. -1.
     999900   -1    0    0    0    0 -0.00000000000E+00 -0.00000000000E+00 -0.74505805969E-08  0.93827000000E+00  0.93827000000E+00 0. -1.
     999902    2    1    2    0    0 -0.22151009010E-01  0.77076171046E-02 -0.16519442299E-02  0.10204182268E+01  0.10201473198E+01 0.  0.
     999903    2    3    3    0    0 -0.13095670086E+00  0.15137786629E-01 -0.95046659733E-02  0.13365131756E+00  0.19837487909E-01 0.  0.
         14    1    1    2    0    0  0.22151009010E-01 -0.77076171046E-02  0.16519442299E-02  0.23511773249E-01  0.00000000000E+00 0. -1.
     999901    1    3    3    0    0  0.10880569185E+00 -0.74301695247E-02  0.78527217435E-02  0.88676690919E+00  0.88000000000E+00 0. -1.
        -11    1    4    4    0    0 -0.35320143490E-01  0.12942817485E-01 -0.39486702378E-02  0.37827003295E-01  0.51100000000E-03 0. -1.
         11    1    4    4    0    0 -0.95636557368E-01  0.21949691439E-02 -0.55559957356E-02  0.95824314265E-01  0.51100000000E-03 0.  1.
</event>
<event>
 8    1  0.1099478E+005  0.1043930E+01  0.7957747E-01            NaN
         13   -1    0    0    0    0  0.00000000000E+00  0.00000000000E+00  0.74505805969E-08  0.10566000000E+00  0.10566000000E+00 0.  1.
     999900   -1    0    0    0    0 -0.00000000000E+00 -0.00000000000E+00 -0.74505805969E-08  0.93827000000E+00  0.93827000000E+00 0.  1.
     999902    2    1    2    0    0  0.99110028513E-02  0.16709436511E-01  0.14528808010E-01  0.10196705790E+01  0.10193819550E+01 0.  0.
     999903    2    3    3    0    0 -0.12104184514E-01  0.12321210211E-01 -0.12628466791E+00  0.12819295166E+00  0.13685466921E-01 0.  0.
         14    1    1    2    0    0 -0.99110028513E-02 -0.16709436511E-01 -0.14528808010E-01  0.24259421020E-01  0.00000000000E+00 0. -1.
     999901    1    3    3    0    0  0.22015187366E-01  0.43882262995E-02  0.14081347591E+00  0.89147762732E+00  0.88000000000E+00 0. -1.
        -11    1    4    4    0    0 -0.19743468433E-02  0.56323480845E-03 -0.62841325025E-01  0.62876931627E-01  0.51100000000E-03 0.  1.
         11    1    4    4    0    0 -0.10129837671E-01  0.11757975403E-01 -0.63443342880E-01  0.65316020038E-01  0.51100000000E-03 0. -1.
</event>
<event>
 8    1  0.1099478E+005  0.1043930E+01  0.7957747E-01            NaN
         13   -1    0    0    0    0  0.00000000000E+00  0.00000000000E+00  0.74505805969E-08  0.10566000000E+00  0.10566000000E+00 0.  1.
     999900   -1    0    0    0    0 -0.00000000000E+00 -0.00000000000E+00 -0.74505805969E-08  0.93827000000E+00  0.93827000000E+00 0. -1.
     999902    2    1    2    0    0  0.77105339705E-02 -0.21989107637E-01  0.11463045164E-01  0.10179612766E+01  0.10176299849E+01 0.  0.
     999903    2    3    3    0    0  0.12271385161E+00 -0.10996981549E-01  0.36547958209E-01  0.13005596481E+00  0.19979433250E-01 0.  0.
         14    1    1    2    0    0 -0.77105339705E-02  0.21989107637E-01 -0.11463045164E-01  0.25968723365E-01  0.00000000000E+00 0. -1.
     999901    1    3    3    0    0 -0.11500331764E+00 -0.10992126088E-01 -0.25084913045E-01  0.88790531182E+00  0.88000000000E+00 0. -1.
        -11    1    4    4    0    0  0.60930038880E-01 -0.38255304657E-02  0.28363654323E-01  0.67319108200E-01  0.51100000000E-03 0. -1.
         11    1    4    4    0    0  0.61783812731E-01 -0.71714510834E-02  0.81843038864E-02  0.62736856610E-01  0.51100000000E-03 0.  1.
</event>
<event>
 8    1  0.1099478E+005  0.1043930E+01  0.7957747E-01            NaN
         13   -1    0    0    0    0  0.00000000000E+00  0.00000000000E+00  0.74505805969E-08  0.10566000000E+00  0.10566000000E+00 0.  1.
     999900   -1    0    0    0    0 -0.00000000000E+00 -0.00000000000E+00 -0.74505805969E-08  0.93827000000E+00  0.93827000000E+00 0. -1.
     999902    2    1    2    0    0 -0.16450355194E-01 -0.17290520578E-01 -0.10930052096E-01  0.10176803843E+01  0.10173417922E+01 0.  0.
     999903    2    3    3    0    0 -0.47027055213E-01  0.10920020917E+00  0.39120688065E-01  0.12670343961E+00  0.19674952890E-01 0.  0.
         14    1    1    2    0    0  0.16450355194E-01  0.17290520578E-01  0.10930052096E-01  0.26249615744E-01  0.00000000000E+00 0. -1.
     999901    1    3    3    0    0  0.30576700018E-01 -0.12649072974E+00 -0.50050740161E-01  0.89097694464E+00  0.88000000000E+00 0. -1.
        -11    1    4    4    0    0 -0.21920746564E-01  0.29569807466E-01  0.85962819912E-02  0.37802775408E-01  0.51100000000E-03 0. -1.
         11    1    4    4    0    0 -0.25106308649E-01  0.79630401700E-01  0.30524406074E-01  0.88900664205E-01  0.51100000000E-03 0.  1.
</event>
<event>
 8    1  0.1099478E+005  0.1043930E+01  0.7957747E-01            NaN
         13   -1    0    0    0    0  0.00000000000E+00  0.00000000000E+00  0.74505805969E-08  0.10566000000E+00  0.10566000000E+00 0. -1.
     999900   -1    0    0    0    0 -0.00000000000E+00 -0.00000000000E+00 -0.74505805969E-08  0.93827000000E+00  0.93827000000E+00 0.  1.
     999902    2    1    2    0    0  0.12332083171E-02 -0.24384464290E-01  0.21676089644E-02  0.10194183409E+01  0.10191236100E+01 0.  0.
     999903    2    3    3    0    0  0.57957533469E-01 -0.36516913970E-01 -0.10925884532E+00  0.13049725326E+00  0.19986924102E-01 0.  0.
         14    1    1    2    0    0 -0.12332083171E-02  0.24384464290E-01 -0.21676089644E-02  0.24511659064E-01  0.00000000000E+00 0. -1.
     999901    1    3    3    0    0 -0.56724325152E-01  0.12132449680E-01  0.11142645429E+00  0.88892108768E+00  0.88000000000E+00 0. -1.
        -11    1    4    4    0    0 -0.25181758209E-03 -0.38241024812E-02 -0.11360921845E-01  0.12000784893E-01  0.51100000000E-03 0. -1.
         11    1    4    4    0    0  0.58209351051E-01 -0.32692811489E-01 -0.97897923479E-01  0.11849646837E+00  0.51100000000E-03 0.  1.
</event>
<event>
 8    1  0.1099478E+005  0.1043930E+01  0.7957747E-01            NaN
         13   -1    0    0    0    0  0.00000000000E+00  0.00000000000E+00  0.74505805969E-08  0.10566000000E+00  0.10566000000E+00 0. -1.
     999900   -1    0    0    0    0 -0.00000000000E+00 -0.00000000000E+00 -0.74505805969E-08  0.93827000000E+00  0.93827000000E+00 0.  1.
     999902    2    1    2    0    0 -0.75788921269E-02  0.14023592644E-01  0.18825170052E-01  0.10192624548E+01  0.10189639170E+01 0.  0.
     999903    2    3    3    0    0 -0.11827111893E-01 -0.10383547820E+00  0.74012627663E-01  0.12968139421E+00  0.20437902102E-01 0.  0.
         14    1    1    2    0    0  0.75788921269E-02 -0.14023592644E-01 -0.18825170052E-01  0.24667545156E-01  0.00000000000E+00 0.  1.
     999901    1    3    3    0    0  0.42482197658E-02  0.11785907085E+00 -0.55187457611E-01  0.88958106063E+00  0.88000000000E+00 0.  1.
        -11    1    4    4    0    0 -0.17131021765E-01 -0.70723589179E-01  0.47132643990E-01  0.86700895172E-01  0.51100000000E-03 0. -1.
         11    1    4    4    0    0  0.53039098723E-02 -0.33111889025E-01  0.26879983673E-01  0.42980499043E-01  0.51100000000E-03 0.  1.
</event>
<event>
 8    1  0.1099478E+005  0.1043930E+01  0.7957747E-01            NaN
         13   -1    0    0    0    0  0.00000000000E+00  0.00000000000E+00  0.74505805969E-08  0.10566000000E+00  0.10566000000E+00 0.  1.
     999900   -1    0    0    0    0 -0.00000000000E+00 -0.00000000000E+00 -0.74505805969E-08  0.93827000000E+00  0.93827000000E+00 0.  1.
     999902    2    1    2    0    0  0.14462497141E-01  0.36427823449E-02  0.17789355129E-01  0.10207158913E+01  0.10204518783E+01 0.  0.
     999903    2    3    3    0    0  0.75637863689E-01 -0.10581050848E+00 -0.61965866745E-02  0.13150400781E+00  0.18383586580E-01 0.  0.
         14    1    1    2    0    0 -0.14462497141E-01 -0.36427823449E-02 -0.17789355129E-01  0.23214108698E-01  0.00000000000E+00 0. -1.
     999901    1    3    3    0    0 -0.61175366548E-01  0.10945329082E+00  0.23985941803E-01  0.88921188349E+00  0.88000000000E+00 0. -1.
        -11    1    4    4    0    0  0.60135990334E-01 -0.91936566173E-01 -0.24234809409E-03  0.10985895224E+00  0.51100000000E-03 0.  1.
         11    1    4    4    0    0  0.15501873355E-01 -0.13873942303E-01 -0.59542385804E-02  0.21645055570E-01  0.51100000000E-03 0. -1.
</event>
<event>
 8    1  0.1099478E+005  0.1043930E+01  0.7957747E-01            NaN
         13   -1    0    0    0    0  0.00000000000E+00  0.00000000000E+00  0.74505805969E-08  0.10566000000E+00  0.10566000000E+00 0.  1.
     999900   -1    0    0    0    0 -0.00000000000E+00 -0.00000000000E+00 -0.74505805969E-08  0.93827000000E+00  0.93827000000E+00 0.  1.
     999902    2    1    2    0    0 -0.19225659873E-02  0.21214570566E-01 -0.94977136977E-02  0.10206070321E+01  0.10203405085E+01 0.  0.
     999903    2    3    3    0    0  0.29273093946E-01  0.93977030043E-01  0.85564015156E-01  0.13195396316E+00  0.20051221916E-01 0.  0.
         14    1    1    2    0    0  0.19225659873E-02 -0.21214570566E-01  0.94977136977E-02  0.23322967859E-01  0.00000000000E+00 0.  1.
     999901    1    3    3    0    0 -0.31195659933E-01 -0.72762459477E-01 -0.95061728854E-01  0.88865306898E+00  0.88000000000E+00 0.  1.
        -11    1    4    4    0    0  0.14728499210E-02  0.32510338649E-01  0.22183868882E-01  0.39388787308E-01  0.51100000000E-03 0. -1.
         11    1    4    4    0    0  0.27800244025E-01  0.61466691394E-01  0.63380146274E-01  0.92565175857E-01  0.51100000000E-03 0.  1.
</event>
<event>
 8    1  0.1099478E+005  0.1043930E+01  0.7957747E-01            NaN
         13   -1    0    0    0    0  0.00000000000E+00  0.00000000000E+00  0.74505805969E-08  0.10566000000E+00  0.10566000000E+00 0.  1.
     999900   -1    0    0    0    0 -0.00000000000E+00 -0.00000000000E+00 -0.74505805969E-08  0.93827000000E+00  0.93827000000E+00 0. -1.
     999902    2    1    2    0    0 -0.21932843184E-01 -0.13603823900E-01 -0.79656370906E-02  0.10169195389E+01  0.10165607624E+01 0.  0.
     999903    2    3    3    0    0  0.11316116251E+00  0.46325168856E-01  0.10856557248E-01  0.12439718649E+00  0.20132689829E-01 0.  0.
         14    1    1    2    0    0  0.21932843184E-01  0.13603823900E-01  0.79656370906E-02  0.27010461104E-01  0.00000000000E+00 0. -1.
     999901    1    3    3    0    0 -0.13509400570E+00 -0.59928992756E-01 -0.18822194339E-01  0.89252235241E+00  0.88000000000E+00 0.  1.
        -11    1    4    4    0    0  0.89040974039E-01  0.44612827455E-01  0.11096167255E-01  0.10020970751E+00  0.51100000000E-03 0. -1.
         11    1    4    4    0    0  0.24120188475E-01  0.17123414009E-02 -0.23961000691E-03  0.24187478973E-01  0.51100000000E-03 0.  1.
</event>
<event>
 8    1  0.1099478E+005  0.1043930E+01  0.7957747E-01            NaN
         13   -1    0    0    0    0  0.00000000000E+00  0.00000000000E+00  0.74505805969E-08  0.10566000000E+00  0.10566000000E+00 0. -1.
     999900   -1    0    0    0    0 -0.00000000000E+00 -0.00000000000E+00 -0.74505805969E-08  0.93827000000E+00  0.93827000000E+00 0. -1.
     999902    2    1    2    0    0 -0.69222144130E-02 -0.15757771458E-01  0.16355014569E-01  0.10201874029E+01  0.10199110874E+01 0.  0.
     999903    2    3    3    0    0 -0.68867665158E-02  0.85125725089E-01  0.97121773916E-01  0.13074895619E+00  0.19205050170E-01 0.  0.
         14    1    1    2    0    0  0.69222144130E-02  0.15757771458E-01 -0.16355014569E-01  0.23742597062E-01  0.00000000000E+00 0.  1.
     999901    1    3    3    0    0 -0.35447897189E-04 -0.10088349655E+00 -0.80766759347E-01  0.88943844674E+00  0.88000000000E+00 0. -1.
        -11    1    4    4    0    0  0.13070884832E-02  0.64901344298E-01  0.64606464298E-01  0.91586840332E-01  0.51100000000E-03 0.  1.
         11    1    4    4    0    0 -0.81938549991E-02  0.20224380791E-01  0.32515309619E-01  0.39162115861E-01  0.51100000000E-03 0. -1.
</event>
<event>
 8    1  0.1099478E+005  0.1043930E+01  0.7957747E-01            NaN
         13   -1    0    0    0    0  0.00000000000E+00  0.00000000000E+00  0.74505805969E-08  0.10566000000E+00  0.10566000000E+00 0. -1.
     999900   -1    0    0    0    0 -0.00000000000E+00 -0.00000000000E+00 -0.74505805969E-08  0.93827000000E+00  0.93827000000E+00 0.  1.
     999902    2    1    2    0    0 -0.19829917988E-01 -0.13690870685E-01 -0.27575734769E-02  0.10196757262E+01  0.10193872261E+01 0.  0.
     999903    2    3    3    0    0  0.22716477071E-01  0.42074264442E-01 -0.11852754084E+00  0.12932600198E+00  0.19752336335E-01 0.  0.
         14    1    1    2    0    0  0.19829917988E-01  0.13690870685E-01  0.27575734769E-02  0.24254273830E-01  0.00000000000E+00 0.  1.
     999901    1    3    3    0    0 -0.42546395059E-01 -0.55765135127E-01  0.11576996736E+00  0.89034972419E+00  0.88000000000E+00 0. -1.
        -11    1    4    4    0    0  0.56029549949E-02  0.48667898209E-03 -0.23850677137E-01  0.24510117951E-01  0.51100000000E-03 0.  1.
         11    1    4    4    0    0  0.17113522076E-01  0.41587585460E-01 -0.94676863704E-01  0.10481588403E+00  0.51100000000E-03 0. -1.
</event>
<event>
 8    1  0.1099478E+005  0.1043930E+01  0.7957747E-01            NaN
         13   -1    0    0    0    0  0.00000000000E+00  0.00000000000E+00  0.74505805969E-08  0.10566000000E+00  0.10566000000E+00 0.  1.
     999900   -1    0    0    0    0 -0.00000000000E+00 -0.00000000000E+00 -0.74505805969E-08  0.93827000000E+00  0.93827000000E+00 0. -1.
     999902    2    1    2    0    0 -0.36998199102E-02  0.60233815461E-02  0.22894286376E-01  0.10199692375E+01  0.10196877597E+01 0.  0.
     999903    2    3    3    0    0  0.72742871532E-01  0.17461926493E-01 -0.10160093253E+00  0.12785187696E+00  0.20661769394E-01 0.  0.
         14    1    1    2    0    0  0.36998199102E-02 -0.60233815461E-02 -0.22894286376E-01  0.23960762535E-01  0.00000000000E+00 0. -1.
     999901    1    3    3    0    0 -0.76442691442E-01 -0.11438544947E-01  0.12449521891E+00  0.89211736051E+00  0.88000000000E+00 0. -1.
        -11    1    4    4    0    0  0.49402061070E-01  0.23694101574E-02 -0.59102197894E-01  0.77068207838E-01  0.51100000000E-03 0.  1.
         11    1    4    4    0    0  0.23340810463E-01  0.15092516335E-01 -0.42498734640E-01  0.50783669121E-01  0.51100000000E-03 0. -1.
</event>
<event>
 8    1  0.1099478E+005  0.1043930E+01  0.7957747E-01            NaN
         13   -1    0    0    0    0  0.00000000000E+00  0.00000000000E+00  0.74505805969E-08  0.10566000000E+00  0.10566000000E+00 0. -1.
     999900   -1    0    0    0    0 -0.00000000000E+00 -0.00000000000E+00 -0.74505805969E-08  0.93827000000E+00  0.93827000000E+00 0.  1.
     999902    2    1    2    0    0 -0.20949258329E-01  0.59725284460E-02  0.72915556266E-02  0.10209580757E+01  0.10206996047E+01 0.  0.
     999903    2    3    3    0    0  0.37645588940E-01 -0.11381695431E+00  0.46351527019E-01  0.13005484998E+00  0.19857252884E-01 0.  0.
         14    1    1    2    0    0  0.20949258329E-01 -0.59725284460E-02 -0.72915556266E-02  0.22971924256E-01  0.00000000000E+00 0. -1.
     999901    1    3    3    0    0 -0.58594847268E-01  0.11978948276E+00 -0.39059971392E-01  0.89090322576E+00  0.88000000000E+00 0.  1.
        -11    1    4    4    0    0  0.31448679927E-01 -0.70632621782E-01  0.35593399839E-01  0.85118376171E-01  0.51100000000E-03 0.  1.
         11    1    4    4    0    0  0.61969090128E-02 -0.43184332529E-01  0.10758127180E-01  0.44936473812E-01  0.51100000000E-03 0. -1.
</event>
<event>
 8    1  0.1099478E+005  0.1043930E+01  0.7957747E-01            NaN
         13   -1    0    0    0    0  0.00000000000E+00  0.00000000000E+00  0.74505805969E-08  0.10566000000E+00  0.10566000000E+00 0.  1.
     999900   -1    0    0    0    0 -0.00000000000E+00 -0.00000000000E+00 -0.74505805969E-08  0.93827000000E+00  0.93827000000E+00 0.  1.
     999902    2    1    2    0    0  0.19454444477E-02  0.13887793296E-01  0.18614581052E-01  0.10206242457E+01  0.10203581198E+01 0.  0.
     999903    2    3    3    0    0 -0.10832309903E-01 -0.12678359512E+00  0.11412561173E-01  0.12933103937E+00  0.20120940896E-01 0.  0.
         14    1    1    2    0    0 -0.19454444477E-02 -0.13887793296E-01 -0.18614581052E-01  0.23305754321E-01  0.00000000000E+00 0. -1.
     999901    1    3    3    0    0  0.12777754351E-01  0.14067138841E+00  0.72020198787E-02  0.89129320631E+00  0.88000000000E+00 0.  1.
        -11    1    4    4    0    0 -0.11358485089E-01 -0.94418151844E-01  0.16618499884E-01  0.96541380975E-01  0.51100000000E-03 0. -1.
         11    1    4    4    0    0  0.52617518628E-03 -0.32365443275E-01 -0.52059387114E-02  0.32789658394E-01  0.51100000000E-03 0.  1.
</event>
<event>
 8    1  0.1099478E+005  0.1043930E+01  0.7957747E-01            NaN
         13   -1    0    0    0    0  0.00000000000E+00  0.00000000000E+00  0.74505805969E-08  0.10566000000E+00  0.10566000000E+00 0.  1.
     999900   -1    0    0    0    0 -0.00000000000E+00 -0.00000000000E+00 -0.74505805969E-08  0.93827000000E+00  0.93827000000E+00 0.  1.
     999902    2    1    2    0    0  0.18240238110E-01  0.11433276299E-01 -0.11114876913E-01  0.10197026068E+01  0.10194147535E+01 0.  0.
     999903    2    3    3    0    0  0.86371960859E-02 -0.21172232936E-01  0.12523816830E+00  0.12855307355E+00  0.17844587873E-01 0.  0.
         14    1    1    2    0    0 -0.18240238110E-01 -0.11433276299E-01  0.11114876913E-01  0.24227393216E-01  0.00000000000E+00 0.  1.
     999901    1    3    3    0    0  0.96030420243E-02  0.32605509235E-01 -0.13635304521E+00  0.89114953324E+00  0.88000000000E+00 0.  1.
        -11    1    4    4    0    0 -0.48903870572E-02 -0.11065230287E-01  0.53123837100E-01  0.54486313842E-01  0.51100000000E-03 0. -1.
         11    1    4    4    0    0  0.13527583143E-01 -0.10107002649E-01  0.72114331197E-01  0.74066759706E-01  0.51100000000E-03 0.  1.
</event>
<event>
 8    1  0.1099478E+005  0.1043930E+01  0.7957747E-01            NaN
         13   -1    0    0    0    0  0.00000000000E+00  0.00000000000E+00  0.74505805969E-08  0.10566000000E+00  0.10566000000E+00 0. -1.
     999900   -1    0    0    0    0 -0.00000000000E+00 -0.00000000000E+00 -0.74505805969E-08  0.93827000000E+00  0.93827000000E+00 0.  1.
     999902    2    1    2    0    0 -0.10573854236E-01 -0.14746293989E-02 -0.21412511721E-01  0.10200035171E+01  0.10197228537E+01 0.  0.
     999903    2    3    3    0    0  0.66348980802E-01 -0.10790107063E+00 -0.23751653128E-01  0.13025682196E+00  0.18917461361E-01 0.  0.
         14    1    1    2    0    0  0.10573854236E-01  0.14746293989E-02  0.21412511721E-01  0.23926482890E-01  0.00000000000E+00 0. -1.
     999901    1    3    3    0    0 -0.76922835038E-01  0.10642644123E+00  0.23391414073E-02  0.88974669515E+00  0.88000000000E+00 0.  1.
        -11    1    4    4    0    0  0.30561089952E-01 -0.32548849518E-01 -0.79400120177E-02  0.45350994872E-01  0.51100000000E-03 0. -1.
         11    1    4    4    0    0  0.35787890850E-01 -0.75352221114E-01 -0.15811641111E-01  0.84905827090E-01  0.51100000000E-03 0.  1.
</event>
<event>
 8    1  0.1099478E+005  0.1043930E+01  0.7957747E-01            NaN
         13   -1    0    0    0    0  0.00000000000E+00  0.00000000000E+00  0.74505805969E-08  0.10566000000E+00  0.10566000000E+00 0. -1.
     999900   -1    0    0    0    0 -0.00000000000E+00 -0.00000000000E+00 -0.74505805969E-08  0.93827000000E+00  0.93827000000E+00 0. -1.
     999902    2    1    2    0    0  0.53204375751E-02  0.22798784478E-01  0.56208621862E-02  0.10198533366E+01  0.10195690964E+01 0.  0.
     999903    2    3    3    0    0 -0.61688443085E-01  0.56371172901E-01 -0.98435134262E-01  0.13055870276E+00  0.19311293690E-01 0.  0.
         14    1    1    2    0    0 -0.53204375751E-02 -0.22798784478E-01 -0.56208621862E-02  0.24076663418E-01  0.00000000000E+00 0.  1.
     999901    1    3    3    0    0  0.67008880661E-01 -0.33572388423E-01  0.10405599645E+00  0.88929463382E+00  0.88000000000E+00 0.  1.
        -11    1    4    4    0    0 -0.36071299024E-01  0.32782258439E-01 -0.42518760163E-01  0.64683237152E-01  0.51100000000E-03 0.  1.
         11    1    4    4    0    0 -0.25617144061E-01  0.23588914462E-01 -0.55916374099E-01  0.65875465606E-01  0.51100000000E-03 0. -1.
</event>
<event>
 8    1  0.1099478E+005  0.1043930E+01  0.7957747E-01            NaN
         13   -1    0    0    0    0  0.00000000000E+00  0.00000000000E+00  0.74505805969E-08  0.10566000000E+00  0.10566000000E+00 0. -1.
     999900   -1    0    0    0    0 -0.00000000000E+00 -0.00000000000E+00 -0.74505805969E-08  0.93827000000E+00  0.93827000000E+00 0. -1.
     999902    2    1    2    0    0  0.98668731202E-02  0.18240253709E-01  0.10856407726E-01  0.10205222314E+01  0.10202537435E+01 0.  0.
     999903    2    3    3    0    0 -0.16701439565E-01  0.46957070360E-01 -0.11865971770E+00  0.13018243251E+00  0.19581434796E-01 0.  0.
         14    1    1    2    0    0 -0.98668731202E-02 -0.18240253709E-01 -0.10856407726E-01  0.23407768566E-01  0.00000000000E+00 0.  1.
     999901    1    3    3    0    0  0.26568312685E-01 -0.28716816651E-01  0.12951612543E+00  0.89033979892E+00  0.88000000000E+00 0.  1.
        -11    1    4    4    0    0 -0.55085443596E-02  0.24396403978E-01 -0.36514093966E-01  0.44261368790E-01  0.51100000000E-03 0.  1.
         11    1    4    4    0    0 -0.11192895205E-01  0.22560666382E-01 -0.82145623739E-01  0.85921063722E-01  0.51100000000E-03 0. -1.
</event>
<event>
 8    1  0.1099478E+005  0.1043930E+01  0.7957747E-01            NaN
         13   -1    0    0    0    0  0.00000000000E+00  0.00000000000E+00  0.74505805969E-08  0.10566000000E+00  0.10566000000E+00 0. -1.
     999900   -1    0    0    0    0 -0.00000000000E+00 -0.00000000000E+00 -0.74505805969E-08  0.93827000000E+00  0.93827000000E+00 0. -1.
     999902    2    1    2    0    0 -0.24297807676E-02  0.28958469281E-01  0.77817496709E-02  0.10138459111E+01  0.10133994667E+01 0.  0.
     999903    2    3    3    0    0 -0.78556863227E-01 -0.84849930090E-01  0.35278846679E-01  0.12283313071E+00  0.21741425463E-01 0.  0.
         14    1    1    2    0    0  0.24297807676E-02 -0.28958469281E-01 -0.77817496709E-02  0.30084088911E-01  0.00000000000E+00 0. -1.
     999901    1    3    3    0    0  0.76127082459E-01  0.11380839937E+00 -0.27497097008E-01  0.89101278038E+00  0.88000000000E+00 0. -1.
        -11    1    4    4    0    0 -0.46636403873E-01 -0.63164137076E-01  0.29163740501E-01  0.83758266815E-01  0.51100000000E-03 0. -1.
         11    1    4    4    0    0 -0.31920459354E-01 -0.21685793014E-01  0.61151061778E-02  0.39074863897E-01  0.51100000000E-03 0.  1.
</event>
<event>
 8    1  0.1099478E+005  0.1043930E+01  0.7957747E-01            NaN
         13   -1    0    0    0    0  0.00000000000E+00  0.00000000000E+00  0.74505805969E-08  0.10566000000E+00  0.10566000000E+00 0.  1.
     999900   -1    0    0    0    0 -0.00000000000E+00 -0.00000000000E+00 -0.74505805969E-08  0.93827000000E+00  0.93827000000E+00 0. -1.
     999902    2    1    2    0    0  0.15956574452E-01 -0.20970234048E-02  0.18370194790E-01  0.10195071862E+01  0.10192146138E+01 0.  0.
     999903    2    3    3    0    0  0.77787784506E-01  0.17833341770E-01  0.10456444481E+00  0.13291270919E+00  0.19055121360E-01 0.  0.
         14    1    1    2    0    0 -0.15956574452E-01  0.20970234048E-02 -0.18370194790E-01  0.24422813762E-01  0.00000000000E+00 0. -1.
     999901    1    3    3    0    0 -0.61831210054E-01 -0.19930365175E-01 -0.86194250016E-01  0.88659447705E+00  0.88000000000E+00 0.  1.
        -11    1    4    4    0    0  0.60008818259E-01  0.82614971148E-02  0.87766787238E-01  0.10664230242E+00  0.51100000000E-03 0. -1.
         11    1    4    4    0    0  0.17778966247E-01  0.95718446555E-02  0.16797657569E-01  0.26270406768E-01  0.51100000000E-03 0.  1.
</event>
<event>
 8    1  0.1099478E+005  0.1043930E+01  0.7957747E-01            NaN
         13   -1    0    0    0    0  0.00000000000E+00  0.00000000000E+00  0.74505805969E-08  0.10566000000E+00  0.10566000000E+00 0. -1.
     999900   -1    0    0    0    0 -0.00000000000E+00 -0.00000000000E+00 -0.74505805969E-08  0.93827000000E+00  0.93827000000E+00 0.  1.
     999902    2    1    2    0    0 -0.69225969713E-02  0.80972048972E-02 -0.20486068266E-01  0.10208396109E+01  0.10205784365E+01 0.  0.
     999903    2    3    3    0    0 -0.84770505376E-01 -0.97243182180E-01 -0.82092001913E-02  0.13106007894E+00  0.21611993489E-01 0.  0.
         14    1    1    2    0    0  0.69225969713E-02 -0.80972048972E-02  0.20486068266E-01  0.23090389104E-01  0.00000000000E+00 0. -1.
     999901    1    3    3    0    0  0.77847908405E-01  0.10534038708E+00 -0.12276868074E-01  0.88977953195E+00  0.88000000000E+00 0. -1.
        -11    1    4    4    0    0 -0.44100627860E-01 -0.48542901982E-01  0.65587292324E-02  0.65913251783E-01  0.51100000000E-03 0.  1.
         11    1    4    4    0    0 -0.40669877516E-01 -0.48700280198E-01 -0.14767929424E-01  0.65146827160E-01  0.51100000000E-03 0. -1.
</event>
<event>
 8    1  0.1099478E+005  0.1043930E+01  0.7957747E-01            NaN
         13   -1    0    0    0    0  0.00000000000E+00  0.00000000000E+00  0.74505805969E-08  0.10566000000E+00  0.10566000000E+00 0. -1.
     999900   -1    0    0    0    0 -0.00000000000E+00 -0.00000000000E+00 -0.74505805969E-08  0.93827000000E+00  0.93827000000E+00 0.  1.
     999902    2    1    2    0    0  0.13041358897E-01 -0.14378471397E-01 -0.12675358580E-01  0.10207463377E+01  0.10204830247E+01 0.  0.
     999903    2    3    3    0    0  0.14827840308E-01  0.50964065377E-01 -0.11904517134E+00  0.13193399774E+00  0.20435903017E-01 0.  0.
         14    1    1    2    0    0 -0.13041358897E-01  0.14378471397E-01  0.12675358580E-01  0.23183662280E-01  0.00000000000E+00 0. -1.
     999901    1    3    3    0    0 -0.17864814105E-02 -0.65342536774E-01  0.10636981276E+00  0.88881233998E+00  0.88000000000E+00 0. -1.
        -11    1    4    4    0    0 -0.28867647713E-02  0.25416340219E-01 -0.48304648115E-01  0.54661905487E-01  0.51100000000E-03 0.  1.
         11    1    4    4    0    0  0.17714605079E-01  0.25547725158E-01 -0.70740523229E-01  0.77272092256E-01  0.51100000000E-03 0. -1.
</event>
<event>
 8    1  0.1099478E+005  0.1043930E+01  0.7957747E-01            NaN
         13   -1    0    0    0    0  0.00000000000E+00  0.00000000000E+00  0.74505805969E-08  0.10566000000E+00  0.10566000000E+00 0.  1.
     999900   -1    0    0    0    0 -0.00000000000E+00 -0.00000000000E+00 -0.74505805969E-08  0.93827000000E+00  0.93827000000E+00 0. -1.
     999902    2    1    2    0    0  0.17174986783E-01 -0.15802200437E-01  0.60410846947E-02  0.10198222333E+01  0.10195372495E+01 0.  0.
     999903    2    3    3    0    0 -0.12708440600E+00 -0.73753273231E-02  0.70350547549E-02  0.12803595143E+00  0.11784360938E-01 0.  0.
         14    1    1    2    0    0 -0.17174986783E-01  0.15802200437E-01 -0.60410846947E-02  0.24107766673E-01  0.00000000000E+00 0. -1.
     999901    1    3    3    0    0  0.14425939278E+00 -0.84268731143E-02 -0.99397006018E-03  0.89178628189E+00  0.88000000000E+00 0. -1.
        -11    1    4    4    0    0 -0.67110332139E-01 -0.61079824373E-02 -0.17153547451E-02  0.67411480418E-01  0.51100000000E-03 0. -1.
         11    1    4    4    0    0 -0.59974073861E-01 -0.12673448858E-02  0.87504095000E-02  0.60624471016E-01  0.51100000000E-03 0.  1.
</event>
<event>
 8    1  0.1099478E+005  0.1043930E+01  0.7957747E-01            NaN
         13   -1    0    0    0    0  0.00000000000E+00  0.00000000000E+00  0.74505805969E-08  0.10566000000E+00  0.10566000000E+00 0.  1.
     999900   -1    0    0    0    0 -0.00000000000E+00 -0.00000000000E+00 -0.74505805969E-08  0.93827000000E+00  0.93827000000E+00 0. -1.
     999902    2    1    2    0    0 -0.15638414614E-02 -0.15502651264E-01 -0.26874296547E-01  0.10128654606E+01  0.10123889744E+01 0.  0.
     999903    2    3    3    0    0  0.97723865381E-01  0.67073759147E-01  0.21431673961E-01  0.12212959674E+00  0.20186102163E-01 0.  0.
         14    1    1    2    0    0  0.15638414614E-02  0.15502651264E-01  0.26874296547E-01  0.31064539450E-01  0.00000000000E+00 0.  1.
     999901    1    3    3    0    0 -0.99287706843E-01 -0.82576410412E-01 -0.48305970507E-01  0.89073586381E+00  0.88000000000E+00 0. -1.
        -11    1    4    4    0    0  0.31476075839E-01  0.15030693683E-01 -0.11688813163E-02  0.34904047148E-01  0.51100000000E-03 0.  1.
         11    1    4    4    0    0  0.66247789543E-01  0.52043065464E-01  0.22600555277E-01  0.87225549594E-01  0.51100000000E-03 0. -1.
</event>
<event>
 8    1  0.1099478E+005  0.1043930E+01  0.7957747E-01            NaN
         13   -1    0    0    0    0  0.00000000000E+00  0.00000000000E+00  0.74505805969E-08  0.10566000000E+00  0.10566000000E+00 0. -1.
     999900   -1    0    0    0    0 -0.00000000000E+00 -0.00000000000E+00 -0.74505805969E-08  0.93827000000E+00  0.93827000000E+00 0.  1.
     999902    2    1    2    0    0 -0.10528505499E-01  0.39028974917E-02  0.20931759183E-01  0.10201766722E+01  0.10199001039E+01 0.  0.
     999903    2    3    3    0    0 -0.32766118793E-02 -0.30893212419E-01 -0.12226843367E+00  0.12789327867E+00  0.21023655637E-01 0.  0.
         14    1    1    2    0    0  0.10528505499E-01 -0.39028974917E-02 -0.20931759183E-01  0.23753327753E-01  0.00000000000E+00 0.  1.
     999901    1    3    3    0    0 -0.72518936196E-02  0.34796109910E-01  0.14320019285E+00  0.89228339358E+00  0.88000000000E+00 0. -1.
        -11    1    4    4    0    0  0.77669634929E-02 -0.15490143196E-01 -0.74707395540E-01  0.76692413755E-01  0.51100000000E-03 0. -1.
         11    1    4    4    0    0 -0.11043575372E-01 -0.15403069222E-01 -0.47561038132E-01  0.51200864912E-01  0.51100000000E-03 0.  1.
</event>
<event>
 8    1  0.1099478E+005  0.1043930E+01  0.7957747E-01            NaN
         13   -1    0    0    0    0  0.00000000000E+00  0.00000000000E+00  0.74505805969E-08  0.10566000000E+00  0.10566000000E+00 0.  1.
     999900   -1    0    0    0    0 -0.00000000000E+00 -0.00000000000E+00 -0.74505805969E-08  0.93827000000E+00  0.93827000000E+00 0. -1.
     999902    2    1    2    0    0  0.18686040423E-01 -0.15194394006E-01  0.54071689185E-02  0.10192464996E+01  0.10189475707E+01 0.  0.
     999903    2    3    3    0    0  0.12533069091E+00 -0.60893591803E-02 -0.30621822779E-01  0.13202946225E+00  0.27371892372E-01 0.  0.
         14    1    1    2    0    0 -0.18686040423E-01  0.15194394006E-01 -0.54071689185E-02  0.24683500392E-01  0.00000000000E+00 0. -1.
     999901    1    3    3    0    0 -0.10664465049E+00 -0.91050348255E-02  0.36028991698E-01  0.88721703736E+00  0.88000000000E+00 0.  1.
        -11    1    4    4    0    0  0.89818700421E-01  0.78693041711E-02 -0.23943510361E-01  0.93289215362E-01  0.51100000000E-03 0. -1.
         11    1    4    4    0    0  0.35511990489E-01 -0.13958663351E-01 -0.66783124186E-02  0.38740246887E-01  0.51100000000E-03 0.  1.
</event>
<event>
 8    1  0.1099478E+005  0.1043930E+01  0.7957747E-01            NaN
         13   -1    0    0    0    0  0.00000000000E+00  0.00000000000E+00  0.74505805969E-08  0.10566000000E+00  0.10566000000E+00 0. -1.
     999900   -1    0    0    0    0 -0.00000000000E+00 -0.00000000000E+00 -0.74505805969E-08  0.93827000000E+00  0.93827000000E+00 0.  1.
     999902    2    1    2    0    0 -0.20456637019E-01 -0.59778311927E-02 -0.10179252540E-01  0.10203116672E+01  0.10200382701E+01 0.  0.
     999903    2    3    3    0    0 -0.15299489341E-01  0.52608338567E-01 -0.11809839545E+00  0.13177045997E+00  0.20359554370E-01 0.  0.
         14    1    1    2    0    0  0.20456637019E-01  0.59778311927E-02  0.10179252540E-01  0.23618332840E-01  0.00000000000E+00 0. -1.
     999901    1    3    3    0    0 -0.51571476784E-02 -0.58586169759E-01  0.10791914291E+00  0.88854120718E+00  0.88000000000E+00 0. -1.
        -11    1    4    4    0    0 -0.31914160358E-02  0.99223797701E-02 -0.45532368273E-01  0.46712915111E-01  0.51100000000E-03 0. -1.
         11    1    4    4    0    0 -0.12108073305E-01  0.42685958796E-01 -0.72566027173E-01  0.85057544864E-01  0.51100000000E-03 0.  1.
</event>
<event>
 8    1  0.1099478E+005  0.1043930E+01  0.7957747E-01            NaN
         13   -1    0    0    0    0  0.00000000000E+00  0.00000000000E+00  0.74505805969E-08  0.10566000000E+00  0.10566000000E+00 0. -1.
     999900   -1    0    0    0    0 -0.00000000000E+00 -0.00000000000E+00 -0.74505805969E-08  0.93827000000E+00  0.93827000000E+00 0.  1.
     999902    2    1    2    0    0  0.23306362467E-01 -0.75757235908E-03  0.34828937262E-02  0.10203526593E+01  0.10200802215E+01 0.  0.
     999903    2    3    3    0    0 -0.82211523633E-02 -0.71320493810E-01  0.10752462287E+00  0.13085966240E+00  0.20211544642E-01 0.  0.
         14    1    1    2    0    0 -0.23306362467E-01  0.75757235908E-03 -0.34828937262E-02  0.23577340733E-01  0.00000000000E+00 0. -1.
     999901    1    3    3    0    0  0.31527514830E-01  0.70562921451E-01 -0.10404172914E+00  0.88949299687E+00  0.88000000000E+00 0.  1.
        -11    1    4    4    0    0  0.37315265525E-02 -0.49952835350E-01  0.72303164470E-01  0.87961461807E-01  0.51100000000E-03 0. -1.
         11    1    4    4    0    0 -0.11952678916E-01 -0.21367658460E-01  0.35221458398E-01  0.42898200592E-01  0.51100000000E-03 0.  1.
</event>
<event>
 8    1  0.1099478E+005  0.1043930E+01  0.7957747E-01            NaN
         13   -1    0    0    0    0  0.00000000000E+00  0.00000000000E+00  0.74505805969E-08  0.10566000000E+00  0.10566000000E+00 0.  1.
     999900   -1    0    0    0    0 -0.00000000000E+00 -0.00000000000E+00 -0.74505805969E-08  0.93827000000E+00  0.93827000000E+00 0. -1.
     999902    2    1    2    0    0  0.12367107821E-02 -0.20798974095E-01  0.83243147151E-02  0.10214929549E+01  0.10212465109E+01 0.  0.
     999903    2    3    3    0    0 -0.54623431052E-01  0.76173885150E-01  0.88874333687E-01  0.13075595869E+00  0.20305012826E-01 0.  0.
         14    1    1    2    0    0 -0.12367107821E-02  0.20798974095E-01 -0.83243147151E-02  0.22437045091E-01  0.00000000000E+00 0.  1.
     999901    1    3    3    0    0  0.55860141835E-01 -0.96972859245E-01 -0.80550018972E-01  0.89073699622E+00  0.88000000000E+00 0.  1.
        -11    1    4    4    0    0 -0.44849771635E-02  0.16740547582E-01  0.23269644786E-01  0.29018932492E-01  0.51100000000E-03 0.  1.
         11    1    4    4    0    0 -0.50138453889E-01  0.59433337568E-01  0.65604688901E-01  0.10173702620E+00  0.51100000000E-03 0. -1.
</event>
<event>
 8    1  0.1099478E+005  0.1043930E+01  0.7957747E-01            NaN
         13   -1    0    0    0    0  0.00000000000E+00  0.00000000000E+00  0.74505805969E-08  0.10566000000E+00  0.10566000000E+00 0. -1.
     999900   -1    0    0    0    0 -0.00000000000E+00 -0.00000000000E+00 -0.74505805969E-08  0.93827000000E+00  0.93827000000E+00 0. -1.
     999902    2    1    2    0    0 -0.13734609770E-02 -0.11498187928E-01 -0.21048845478E-01  0.10199060824E+01  0.10196231011E+01 0.  0.
     999903    2    3    3    0    0  0.22825863088E-01  0.20895773328E-01 -0.12744073515E+00  0.13257626199E+00  0.19433756712E-01 0.  0.
         14    1    1    2    0    0  0.13734609770E-02  0.11498187928E-01  0.21048845478E-01  0.24023917595E-01  0.00000000000E+00 0. -1.
     999901    1    3    3    0    0 -0.24199324065E-01 -0.32393961256E-01  0.10639188967E+00  0.88732982042E+00  0.88000000000E+00 0.  1.
        -11    1    4    4    0    0  0.45851849892E-02  0.14831117107E-01 -0.37251872129E-01  0.40360241007E-01  0.51100000000E-03 0. -1.
         11    1    4    4    0    0  0.18240678099E-01  0.60646562205E-02 -0.90188863017E-01  0.92216020983E-01  0.51100000000E-03 0.  1.
</event>
<event>
 8    1  0.1099478E+005  0.1043930E+01  0.7957747E-01            NaN
         13   -1    0    0    0    0  0.00000000000E+00  0.00000000000E+00  0.74505805969E-08  0.10566000000E+00  0.10566000000E+00 0. -1.
     999900   -1    0    0    0    0 -0.00000000000E+00 -0.00000000000E+00 -0.74505805969E-08  0.93827000000E+00  0.93827000000E+00 0. -1.
     999902    2    1    2    0    0 -0.23286334224E-01 -0.17669622227E-01  0.36763693948E-02  0.10144684216E+01  0.10140405287E+01 0.  0.
     999903    2    3    3    0    0  0.10280969986E+00 -0.14251853628E-01 -0.62945985192E-01  0.12298065998E+00  0.19725515428E-01 0.  0.
         14    1    1    2    0    0  0.23286334224E-01  0.17669622227E-01 -0.36763693948E-02  0.29461578423E-01  0.00000000000E+00 0. -1.
     999901    1    3    3    0    0 -0.12609603409E+00 -0.34177685994E-02  0.66622354586E-01  0.89148776160E+00  0.88000000000E+00 0.  1.
        -11    1    4    4    0    0  0.72384403237E-02  0.40711086628E-02 -0.43733275155E-02  0.93997903498E-02  0.51100000000E-03 0. -1.
         11    1    4    4    0    0  0.95571259538E-01 -0.18322962290E-01 -0.58572657676E-01  0.11358086963E+00  0.51100000000E-03 0.  1.
</event>
<event>
 8    1  0.1099478E+005  0.1043930E+01  0.7957747E-01            NaN
         13   -1    0    0    0    0  0.00000000000E+00  0.00000000000E+00  0.74505805969E-08  0.10566000000E+00  0.10566000000E+00 0. -1.
     999900   -1    0    0    0    0 -0.00000000000E+00 -0.00000000000E+00 -0.74505805969E-08  0.93827000000E+00  0.93827000000E+00 0.  1.
     999902    2    1    2    0    0 -0.61923593502E-02 -0.13539827544E-01  0.17249381836E-01  0.10211437450E+01  0.10208894820E+01 0.  0.
     999903    2    3    3    0    0  0.10737885027E+00  0.31019038444E-01  0.66184117973E-01  0.13138056267E+00  0.19700673688E-01 0.  0.
         14    1    1    2    0    0  0.61923593502E-02  0.13539827544E-01 -0.17249381836E-01  0.22786255023E-01  0.00000000000E+00 0.  1.
     999901    1    3    3    0    0 -0.11357120962E+00 -0.44558865988E-01 -0.48934736136E-01  0.88976318231E+00  0.88000000000E+00 0.  1.
        -11    1    4    4    0    0  0.57686894105E-01  0.23805069608E-01  0.44687321270E-01  0.76757259551E-01  0.51100000000E-03 0. -1.
         11    1    4    4    0    0  0.49691956165E-01  0.72139688360E-02  0.21496796703E-01  0.54623303116E-01  0.51100000000E-03 0.  1.
</event>
<event>
 8    1  0.1099478E+005  0.1043930E+01  0.7957747E-01            NaN
         13   -1    0    0    0    0  0.00000000000E+00  0.00000000000E+00  0.74505805969E-08  0.10566000000E+00  0.10566000000E+00 0.  1.
     999900   -1    0    0    0    0 -0.00000000000E+00 -0.00000000000E+00 -0.74505805969E-08  0.93827000000E+00  0.93827000000E+00 0.  1.
     999902    2    1    2    0    0  0.22056660916E-01 -0.65063895442E-02 -0.12225809285E-02  0.10209012332E+01  0.10206414669E+01 0.  0.
     999903    2    3    3    0    0  0.11826758068E+00  0.27565138554E-01 -0.50890872300E-01  0.13361077948E+00  0.22691452288E-01 0.  0.
         14    1    1    2    0    0 -0.22056660916E-01  0.65063895442E-02  0.12225809285E-02  0.23028766788E-01  0.00000000000E+00 0. -1.
     999901    1    3    3    0    0 -0.96210919767E-01 -0.34071528098E-01  0.49668291371E-01  0.88729045373E+00  0.88000000000E+00 0. -1.
        -11    1    4    4    0    0  0.32986362789E-01  0.15817752945E-01 -0.22551013141E-01  0.42978026397E-01  0.51100000000E-03 0.  1.
         11    1    4    4    0    0  0.85281217893E-01  0.11747385609E-01 -0.28339859159E-01  0.90632753087E-01  0.51100000000E-03 0. -1.
</event>
<event>
 8    1  0.1099478E+005  0.1043930E+01  0.7957747E-01            NaN
         13   -1    0    0    0    0  0.00000000000E+00  0.00000000000E+00  0.74505805969E-08  0.10566000000E+00  0.10566000000E+00 0. -1.
     999900   -1    0    0    0    0 -0.00000000000E+00 -0.00000000000E+00 -0.74505805969E-08  0.93827000000E+00  0.93827000000E+00 0. -1.
     999902    2    1    2    0    0 -0.20990186392E-01  0.20141108819E-02 -0.99662523063E-02  0.10206068194E+01  0.10203402908E+01 0.  0.
     999903    2    3    3    0    0 -0.16047762648E-01  0.72901227798E-01 -0.10746565909E+00  0.13237512373E+00  0.20054570514E-01 0.  0.
         14    1    1    2    0    0  0.20990186392E-01 -0.20141108819E-02  0.99662523063E-02  0.23323180582E-01  0.00000000000E+00 0. -1.
     999901    1    3    3    0    0 -0.49424237447E-02 -0.70887116916E-01  0.97499406786E-01  0.88823169569E+00  0.88000000000E+00 0.  1.
        -11    1    4    4    0    0 -0.22261221097E-02  0.46177617693E-01 -0.75031131314E-01  0.88132058768E-01  0.51100000000E-03 0.  1.
         11    1    4    4    0    0 -0.13821640538E-01  0.26723610105E-01 -0.32434527779E-01  0.44243064964E-01  0.51100000000E-03 0. -1.
</event>
<event>
 8    1  0.1099478E+005  0.1043930E+01  0.7957747E-01            NaN
         13   -1    0    0    0    0  0.00000000000E+00  0.00000000000E+00  0.74505805969E-08  0.10566000000E+00  0.10566000000E+00 0.  1.
     999900   -1    0    0    0    0 -0.00000000000E+00 -0.00000000000E+00 -0.74505805969E-08  0.93827000000E+00  0.93827000000E+00 0. -1.
     999902    2    1    2    0    0 -0.16502156126E-01 -0.15874891078E-01 -0.33370323908E-02  0.10207897945E+01  0.10205274791E+01 0.  0.
     999903    2    3    3    0    0  0.30048846882E-01  0.14273856681E-01  0.12395099640E+00  0.12990361486E+00  0.20110282459E-01 0.  0.
         14    1    1    2    0    0  0.16502156126E-01  0.15874891078E-01  0.33370323908E-02  0.23140205459E-01  0.00000000000E+00 0.  1.
     999901    1    3    3    0    0 -0.46551003008E-01 -0.30148747758E-01 -0.12728802879E+00  0.89088617968E+00  0.88000000000E+00 0. -1.
        -11    1    4    4    0    0  0.89205446364E-02  0.38867791561E-02  0.11781552251E-01  0.15288860757E-01  0.51100000000E-03 0.  1.
         11    1    4    4    0    0  0.21128302245E-01  0.10387077525E-01  0.11216944415E+00  0.11461475410E+00  0.51100000000E-03 0. -1.
</event>
<event>
 8    1  0.1099478E+005  0.1043930E+01  0.7957747E-01            NaN
         13   -1    0    0    0    0  0.00000000000E+00  0.00000000000E+00  0.74505805969E-08  0.10566000000E+00  0.10566000000E+00 0. -1.
     999900   -1    0    0    0    0 -0.00000000000E+00 -0.00000000000E+00 -0.74505805969E-08  0.93827000000E+00  0.93827000000E+00 0. -1.
     999902    2    1    2    0    0 -0.49320320715E-02  0.22066201676E-01  0.69772947244E-02  0.10202672690E+01  0.10199928310E+01 0.  0.
     999903    2    3    3    0    0  0.10177649834E+00 -0.16158885259E-01 -0.75308108436E-01  0.12918996859E+00  0.19979279298E-01 0.  0.
         14    1    1    2    0    0  0.49320320715E-02 -0.22066201676E-01 -0.69772947244E-02  0.23662731001E-01  0.00000000000E+00 0. -1.
     999901    1    3    3    0    0 -0.10670853041E+00  0.38225086935E-01  0.82285403160E-01  0.89107730041E+00  0.88000000000E+00 0.  1.
        -11    1    4    4    0    0  0.74719607873E-01 -0.11518621137E-01 -0.43712323379E-01  0.87331132878E-01  0.51100000000E-03 0. -1.
         11    1    4    4    0    0  0.27056890464E-01 -0.46402641221E-02 -0.31595785057E-01  0.41858835711E-01  0.51100000000E-03 0.  1.
</event>
<event>
 8    1  0.1099478E+005  0.1043930E+01  0.7957747E-01            NaN
         13   -1    0    0    0    0  0.00000000000E+00  0.00000000000E+00  0.74505805969E-08  0.10566000000E+00  0.10566000000E+00 0. -1.
     999900   -1    0    0    0    0 -0.00000000000E+00 -0.00000000000E+00 -0.74505805969E-08  0.93827000000E+00  0.93827000000E+00 0. -1.
     999902    2    1    2    0    0 -0.24221420406E-01  0.28547304887E-02  0.74899292530E-02  0.10184167538E+01  0.10180971263E+01 0.  0.
     999903    2    3    3    0    0 -0.27860907780E-01 -0.10797200667E+00  0.63061761459E-01  0.12971880730E+00  0.20396048702E-01 0.  0.
         14    1    1    2    0    0  0.24221420406E-01 -0.28547304887E-02 -0.74899292530E-02  0.25513246224E-01  0.00000000000E+00 0. -1.
     999901    1    3    3    0    0  0.36394873735E-02  0.11082673716E+00 -0.55571832206E-01  0.88869794648E+00  0.88000000000E+00 0. -1.
        -11    1    4    4    0    0  0.19053948257E-02 -0.18486645237E-01  0.14897203483E-01  0.23823819471E-01  0.51100000000E-03 0. -1.
         11    1    4    4    0    0 -0.29766302606E-01 -0.89485361431E-01  0.48164557976E-01  0.10589498783E+00  0.51100000000E-03 0.  1.
</event>
<event>
 8    1  0.1099478E+005  0.1043930E+01  0.7957747E-01            NaN
         13   -1    0    0    0    0  0.00000000000E+00  0.00000000000E+00  0.74505805969E-08  0.10566000000E+00  0.10566000000E+00 0. -1.
     999900   -1    0    0    0    0 -0.00000000000E+00 -0.00000000000E+00 -0.74505805969E-08  0.93827000000E+00  0.93827000000E+00 0. -1.
     999902    2    1    2    0    0  0.13090952188E-01  0.21074530441E-02 -0.19259792149E-01  0.10205472290E+01  0.10202793209E+01 0.  0.
     999903    2    3    3    0    0 -0.11662181267E+00 -0.47928559553E-01 -0.18866370905E-01  0.12963244140E+00  0.23469893479E-01 0.  0.
         14    1    1    2    0    0 -0.13090952188E-01 -0.21074530441E-02  0.19259792149E-01  0.23382771033E-01  0.00000000000E+00 0. -1.
     999901    1    3    3    0    0  0.12971276486E+00  0.50036012597E-01 -0.39342124441E-03  0.89091478757E+00  0.88000000000E+00 0.  1.
        -11    1    4    4    0    0 -0.18260990662E-01 -0.10480017765E-01 -0.11810903731E-01  0.24146492918E-01  0.51100000000E-03 0.  1.
         11    1    4    4    0    0 -0.98360822013E-01 -0.37448541789E-01 -0.70554671736E-02  0.10548594848E+00  0.51100000000E-03 0. -1.
</event>
<event>
 8    1  0.1099478E+005  0.1043930E+01  0.7957747E-01            NaN
         13   -1    0    0    0    0  0.00000000000E+00  0.00000000000E+00  0.74505805969E-08  0.10566000000E+00  0.10566000000E+00 0. -1.
     999900   -1    0    0    0    0 -0.00000000000E+00 -0.00000000000E+00 -0.74505805969E-08  0.93827000000E+00  0.93827000000E+00 0.  1.
     999902    2    1    2    0    0 -0.16011405010E-01  0.58870095832E-02 -0.13035452706E-01  0.10224603703E+01  0.10222349357E+01 0.  0.
     999903    2    3    3    0    0 -0.79604563915E-01 -0.75137329847E-01  0.72263901677E-01  0.13235643631E+00  0.17710161352E-01 0.  0.
         14    1    1    2    0    0  0.16011405010E-01 -0.58870095832E-02  0.13035452706E-01  0.21469629701E-01  0.00000000000E+00 0.  1.
     999901    1    3    3    0    0  0.63593158905E-01  0.81024339430E-01 -0.85299354383E-01  0.89010393399E+00  0.88000000000E+00 0.  1.
        -11    1    4    4    0    0 -0.42148979050E-01 -0.48823795506E-01  0.49021442562E-01  0.81016432866E-01  0.51100000000E-03 0. -1.
         11    1    4    4    0    0 -0.37455584866E-01 -0.26313534341E-01  0.23242459115E-01  0.51340003447E-01  0.51100000000E-03 0.  1.
</event>
<event>
 8    1  0.1099478E+005  0.1043930E+01  0.7957747E-01            NaN
         13   -1    0    0    0    0  0.00000000000E+00  0.00000000000E+00  0.74505805969E-08  0.10566000000E+00  0.10566000000E+00 0.  1.
     999900   -1    0    0    0    0 -0.00000000000E+00 -0.00000000000E+00 -0.74505805969E-08  0.93827000000E+00  0.93827000000E+00 0. -1.
     999902    2    1    2    0    0  0.22052633382E-01 -0.10052286287E-01 -0.16767297432E-02  0.10196364099E+01  0.10193469624E+01 0.  0.
     999903    2    3    3    0    0  0.10393686270E+00  0.76994846528E-01  0.12769540623E-01  0.13144109066E+00  0.19560708730E-01 0.  0.
         14    1    1    2    0    0 -0.22052633382E-01  0.10052286287E-01  0.16767297432E-02  0.24293590128E-01  0.00000000000E+00 0. -1.
     999901    1    3    3    0    0 -0.81884229320E-01 -0.87047132815E-01 -0.14446270366E-01  0.88819531921E+00  0.88000000000E+00 0. -1.
        -11    1    4    4    0    0  0.33001275885E-01  0.24879420081E-01  0.13289953326E-01  0.43416053874E-01  0.51100000000E-03 0. -1.
         11    1    4    4    0    0  0.70935586817E-01  0.52115426447E-01 -0.52041270273E-03  0.88025036786E-01  0.51100000000E-03 0.  1.
</event>
<event>
 8    1  0.1099478E+005  0.1043930E+01  0.7957747E-01            NaN
         13   -1    0    0    0    0  0.00000000000E+00  0.00000000000E+00  0.74505805969E-08  0.10566000000E+00  0.10566000000E+00 0.  1.
     999900   -1    0    0    0    0 -0.00000000000E+00 -0.00000000000E+00 -0.74505805969E-08  0.93827000000E+00  0.93827000000E+00 0. -1.
     999902    2    1    2    0    0  0.16616504986E-01 -0.19239813934E-01  0.12183211359E-02  0.10184788117E+01  0.10181607569E+01 0.  0.
     999903    2    3    3    0    0 -0.10085699449E+00  0.69155765390E-01  0.22785020834E-01  0.12602213263E+00  0.20193254205E-01 0.  0.
         14    1    1    2    0    0 -0.16616504986E-01  0.19239813934E-01 -0.12183211359E-02  0.25451188274E-01  0.00000000000E+00 0. -1.
     999901    1    3    3    0    0  0.11747349947E+00 -0.88395579324E-01 -0.21566699698E-01  0.89245667909E+00  0.88000000000E+00 0. -1.
        -11    1    4    4    0    0 -0.96327734222E-01  0.63043485805E-01  0.25523869706E-01  0.11792049240E+00  0.51100000000E-03 0.  1.
         11    1    4    4    0    0 -0.45292602647E-02  0.61122795847E-02 -0.27388488724E-02  0.81016402298E-02  0.51100000000E-03 0. -1.
</event>
<event>
 8    1  0.1099478E+005  0.1043930E+01  0.7957747E-01            NaN
         13   -1    0    0    0    0  0.00000000000E+00  0.00000000000E+00  0.74505805969E-08  0.10566000000E+00  0.10566000000E+00 0. -1.
     999900   -1    0    0    0    0 -0.00000000000E+00 -0.00000000000E+00 -0.74505805969E-08  0.93827000000E+00  0.93827000000E+00 0.  1.
     999902    2    1    2    0    0 -0.68506843015E-02 -0.44465605084E-02 -0.22403575860E-01  0.10200841621E+01  0.10198054097E+01 0.  0.
     999903    2    3    3    0    0 -0.57070925845E-01 -0.88275614032E-01 -0.79186665950E-01  0.13285606163E+00  0.18180496079E-01 0.  0.
         14    1    1    2    0    0  0.68506843015E-02  0.44465605084E-02  0.22403575860E-01  0.23845837940E-01  0.00000000000E+00 0. -1.
     999901    1    3    3    0    0  0.50220241543E-01  0.83829053524E-01  0.56783090090E-01  0.88722810043E+00  0.88000000000E+00 0. -1.
        -11    1    4    4    0    0 -0.32253080713E-01 -0.58948125026E-01 -0.59156678719E-01  0.89526065577E-01  0.51100000000E-03 0.  1.
         11    1    4    4    0    0 -0.24817845132E-01 -0.29327489006E-01 -0.20029987230E-01  0.43329996052E-01  0.51100000000E-03 0. -1.
</event>
<event>
 8    1  0.1099478E+005  0.1043930E+01  0.7957747E-01            NaN
         13   -1    0    0    0    0  0.00000000000E+00  0.00000000000E+00  0.74505805969E-08  0.10566000000E+00  0.10566000000E+00 0.  1.
     999900   -1    0    0    0    0 -0.00000000000E+00 -0.00000000000E+00 -0.74505805969E-08  0.93827000000E+00  0.93827000000E+00 0.  1.
     999902    2    1    2    0    0 -0.21920318399E-01 -0.93451288739E-02  0.29490789342E-02  0.10199189846E+01  0.10196363108E+01 0.  0.
     999903    2    3    3    0    0  0.77861651618E-01 -0.20999382264E-01  0.98910942455E-01  0.12902003278E+00  0.18957412087E-01 0.  0.
         14    1    1    2    0    0  0.21920318399E-01  0.93451288739E-02 -0.29490789342E-02  0.24011015366E-01  0.00000000000E+00 0. -1.
     999901    1    3    3    0    0 -0.99781970017E-01  0.11654253390E-01 -0.95961863521E-01  0.89089895185E+00  0.88000000000E+00 0.  1.
        -11    1    4    4    0    0  0.57662922819E-01 -0.71778960849E-02  0.64880546913E-01  0.87099261472E-01  0.51100000000E-03 0. -1.
         11    1    4    4    0    0  0.20198728799E-01 -0.13821486179E-01  0.34030395542E-01  0.41920771308E-01  0.51100000000E-03 0.  1.
</event>
<event>
 8    1  0.1099478E+005  0.1043930E+01  0.7957747E-01            NaN
         13   -1    0    0    0    0  0.00000000000E+00  0.00000000000E+00  0.74505805969E-08  0.10566000000E+00  0.10566000000E+00 0. -1.
     999900   -1    0    0    0    0 -0.00000000000E+00 -0.00000000000E+00 -0.74505805969E-08  0.93827000000E+00  0.93827000000E+00 0. -1.
     999902    2    1    2    0    0 -0.17687019340E-01  0.57957895531E-02  0.14285945720E-01  0.10204670489E+01  0.10201972789E+01 0.  0.
     999903    2    3    3    0    0 -0.75480472481E-02  0.19551682363E-01  0.12964419227E+00  0.13277366242E+00  0.19544501569E-01 0.  0.
         14    1    1    2    0    0  0.17687019340E-01 -0.57957895531E-02 -0.14285945720E-01  0.23462951110E-01  0.00000000000E+00 0.  1.
     999901    1    3    3    0    0 -0.10138972091E-01 -0.13755892810E-01 -0.11535824655E+00  0.88769338647E+00  0.88000000000E+00 0. -1.
        -11    1    4    4    0    0 -0.12733318425E-01  0.14913136977E-01  0.69148447702E-01  0.71877033837E-01  0.51100000000E-03 0.  1.
         11    1    4    4    0    0  0.51852711767E-02  0.46385453855E-02  0.60495744568E-01  0.60896628579E-01  0.51100000000E-03 0. -1.
</event>
<event>
 8    1  0.1099478E+005  0.1043930E+01  0.7957747E-01            NaN
         13   -1    0    0    0    0  0.00000000000E+00  0.00000000000E+00  0.74505805969E-08  0.10566000000E+00  0.10566000000E+00 0.  1.
     999900   -1    0    0    0    0 -0.00000000000E+00 -0.00000000000E+00 -0.74505805969E-08  0.93827000000E+00  0.93827000000E+00 0.  1.
     999902    2    1    2    0    0  0.13486383888E-01 -0.15704398043E-02  0.16954163001E-01  0.10222092156E+01  0.10219784186E+01 0.  0.
     999903    2    3    3    0    0  0.11480061786E+00  0.65387577587E-01 -0.34765589346E-02  0.13363430909E+00  0.19781934699E-01 0.  0.
         14    1    1    2    0    0 -0.13486383888E-01  0.15704398043E-02 -0.16954163001E-01  0.21720784393E-01  0.00000000000E+00 0. -1.
     999901    1    3    3    0    0 -0.10131423397E+00 -0.66958017391E-01  0.20430721936E-01  0.88857490652E+00  0.88000000000E+00 0. -1.
        -11    1    4    4    0    0  0.40581593911E-01  0.33978893704E-01  0.66162893687E-03  0.52935147639E-01  0.51100000000E-03 0.  1.
         11    1    4    4    0    0  0.74219023945E-01  0.31408683883E-01 -0.41381878715E-02  0.80699161449E-01  0.51100000000E-03 0. -1.
</event>
<event>
 8    1  0.1099478E+005  0.1043930E+01  0.7957747E-01            NaN
         13   -1    0    0    0    0  0.00000000000E+00  0.00000000000E+00  0.74505805969E-08  0.10566000000E+00  0.10566000000E+00 0. -1.
     999900   -1    0    0    0    0 -0.00000000000E+00 -0.00000000000E+00 -0.74505805969E-08  0.93827000000E+00  0.93827000000E+00 0. -1.
     999902    2    1    2    0    0  0.18981364809E-01  0.13960998846E-01 -0.72582151423E-03  0.10203561052E+01  0.10200837480E+01 0.  0.
     999903    2    3    3    0    0  0.15281887314E-01  0.66181162738E-01 -0.11126737022E+00  0.13189672761E+00  0.20070792150E-01 0.  0.
         14    1    1    2    0    0 -0.18981364809E-01 -0.13960998846E-01  0.72582151423E-03  0.23573894792E-01  0.00000000000E+00 0.  1.
     999901    1    3    3    0    0  0.36994774946E-02 -0.52220163892E-01  0.11054154871E+00  0.88845937760E+00  0.88000000000E+00 0. -1.
        -11    1    4    4    0    0 -0.92764396163E-03  0.31752743322E-01 -0.61757524582E-01  0.69450343378E-01  0.51100000000E-03 0. -1.
         11    1    4    4    0    0  0.16209531276E-01  0.34428419416E-01 -0.49509845638E-01  0.62446384233E-01  0.51100000000E-03 0.  1.
</event>
<event>
 8    1  0.1099478E+005  0.1043930E+01  0.7957747E-01            NaN
         13   -1    0    0    0    0  0.00000000000E+00  0.00000000000E+00  0.74505805969E-08  0.10566000000E+00  0.10566000000E+00 0.  1.
     999900   -1    0    0    0    0 -0.00000000000E+00 -0.00000000000E+00 -0.74505805969E-08  0.93827000000E+00  0.93827000000E+00 0. -1.
     999902    2    1    2    0    0 -0.83236162154E-02  0.24119902538E-02  0.21273238561E-01  0.10209593456E+01  0.10207009035E+01 0.  0.
     999903    2    3    3    0    0  0.23462385342E-02 -0.61340420045E-01 -0.11111924256E+00  0.12871163076E+00  0.21237840266E-01 0.  0.
         14    1    1    2    0    0  0.83236162154E-02 -0.24119902538E-02 -0.21273238561E-01  0.22970654383E-01  0.00000000000E+00 0. -1.
     999901    1    3    3    0    0 -0.10669854750E-01  0.63752410299E-01  0.13239248112E+00  0.89224771486E+00  0.88000000000E+00 0.  1.
        -11    1    4    4    0    0  0.89397012006E-02 -0.36904053143E-01 -0.80310779780E-01  0.88836421955E-01  0.51100000000E-03 0. -1.
         11    1    4    4    0    0 -0.65934626665E-02 -0.24436366902E-01 -0.30808462776E-01  0.39875208801E-01  0.51100000000E-03 0.  1.
</event>
<event>
 8    1  0.1099478E+005  0.1043930E+01  0.7957747E-01            NaN
         13   -1    0    0    0    0  0.00000000000E+00  0.00000000000E+00  0.74505805969E-08  0.10566000000E+00  0.10566000000E+00 0. -1.
     999900   -1    0    0    0    0 -0.00000000000E+00 -0.00000000000E+00 -0.74505805969E-08  0.93827000000E+00  0.93827000000E+00 0. -1.
     999902    2    1    2    0    0  0.16448520137E-01  0.14323545410E-01 -0.91591794031E-02  0.10202739577E+01  0.10199996767E+01 0.  0.
     999903    2    3    3    0    0 -0.11959172232E+00 -0.15708826680E-01  0.37828836537E-01  0.12807624166E+00  0.20580464544E-01 0.  0.
         14    1    1    2    0    0 -0.16448520137E-01 -0.14323545410E-01  0.91591794031E-02  0.23656042255E-01  0.00000000000E+00 0. -1.
     999901    1    3    3    0    0  0.13604024246E+00  0.30032372090E-01 -0.46988015940E-01  0.89219771608E+00  0.88000000000E+00 0. -1.
        -11    1    4    4    0    0 -0.59979902759E-01 -0.43288769567E-02  0.87231575971E-02  0.60767446138E-01  0.51100000000E-03 0. -1.
         11    1    4    4    0    0 -0.59611819564E-01 -0.11379949723E-01  0.29105678939E-01  0.67308795525E-01  0.51100000000E-03 0.  1.
</event>
<event>
 8    1  0.1099478E+005  0.1043930E+01  0.7957747E-01            NaN
         13   -1    0    0    0    0  0.00000000000E+00  0.00000000000E+00  0.74505805969E-08  0.10566000000E+00  0.10566000000E+00 0. -1.
     999900   -1    0    0    0    0 -0.00000000000E+00 -0.00000000000E+00 -0.74505805969E-08  0.93827000000E+00  0.93827000000E+00 0. -1.
     999902    2    1    2    0    0  0.12972424759E-01  0.19656753104E-01  0.35452146324E-02  0.10201131930E+01  0.10198351270E+01 0.  0.
     999903    2    3    3    0    0  0.38690859396E-01  0.75156498231E-01  0.10036973628E+00  0.13269184578E+00  0.19686547416E-01 0.  0.
         14    1    1    2    0    0 -0.12972424759E-01 -0.19656753104E-01 -0.35452146324E-02  0.23816806955E-01  0.00000000000E+00 0. -1.
     999901    1    3    3    0    0 -0.25718434637E-01 -0.55499745127E-01 -0.96824521645E-01  0.88742134726E+00  0.88000000000E+00 0. -1.
        -11    1    4    4    0    0  0.15921069229E-01  0.34310246289E-01  0.59906454779E-01  0.70849967474E-01  0.51100000000E-03 0. -1.
         11    1    4    4    0    0  0.22769790167E-01  0.40846251942E-01  0.40463281498E-01  0.61841878307E-01  0.51100000000E-03 0.  1.
</event>
<event>
 8    1  0.1099478E+005  0.1043930E+01  0.7957747E-01            NaN
         13   -1    0    0    0    0  0.00000000000E+00  0.00000000000E+00  0.74505805969E-08  0.10566000000E+00  0.10566000000E+00 0.  1.
     999900   -1    0    0    0    0 -0.00000000000E+00 -0.00000000000E+00 -0.74505805969E-08  0.93827000000E+00  0.93827000000E+00 0. -1.
     999902    2    1    2    0    0 -0.18752223109E-01 -0.97159482503E-02  0.11331009319E-01  0.10199625785E+01  0.10196809424E+01 0.  0.
     999903    2    3    3    0    0  0.34344896969E-01  0.11214717288E+00 -0.47356899345E-01  0.12804655381E+00  0.19916919789E-01 0.  0.
         14    1    1    2    0    0  0.18752223109E-01  0.97159482503E-02 -0.11331009319E-01  0.23967421516E-01  0.00000000000E+00 0. -1.
     999901    1    3    3    0    0 -0.53097120078E-01 -0.12186312113E+00  0.58687908664E-01  0.89191602468E+00  0.88000000000E+00 0. -1.
        -11    1    4    4    0    0  0.33977068603E-01  0.82058010599E-01 -0.33651747363E-01  0.94977152599E-01  0.51100000000E-03 0.  1.
         11    1    4    4    0    0  0.36782836570E-03  0.30089162280E-01 -0.13705151982E-01  0.33069401208E-01  0.51100000000E-03 0. -1.
</event>
<event>
 8    1  0.1099478E+005  0.1043930E+01  0.7957747E-01            NaN
         13   -1    0    0    0    0  0.00000000000E+00  0.00000000000E+00  0.74505805969E-08  0.10566000000E+00  0.10566000000E+00 0.  1.
     999900   -1    0    0    0    0 -0.00000000000E+00 -0.00000000000E+00 -0.74505805969E-08  0.93827000000E+00  0.93827000000E+00 0.  1.
     999902    2    1    2    0    0 -0.21357196389E-01  0.95164236197E-03 -0.10746008996E-01  0.10200027735E+01  0.10197220924E+01 0.  0.
     999903    2    3    3    0    0 -0.42180811746E-01  0.92710950426E-01  0.77390609484E-01  0.13060890284E+00  0.26359777241E-01 0.  0.
         14    1    1    2    0    0  0.21357196389E-01 -0.95164236197E-03  0.10746008996E-01  0.23927226545E-01  0.00000000000E+00 0.  1.
     999901    1    3    3    0    0  0.20823615357E-01 -0.91759308064E-01 -0.88136618480E-01  0.88939387062E+00  0.88000000000E+00 0.  1.
        -11    1    4    4    0    0 -0.20206603678E-01  0.50437445930E-01  0.25061211926E-01  0.59837849630E-01  0.51100000000E-03 0. -1.
         11    1    4    4    0    0 -0.21974208067E-01  0.42273504496E-01  0.52329397558E-01  0.70771053209E-01  0.51100000000E-03 0.  1.
</event>
<event>
 8    1  0.1099478E+005  0.1043930E+01  0.7957747E-01            NaN
         13   -1    0    0    0    0  0.00000000000E+00  0.00000000000E+00  0.74505805969E-08  0.10566000000E+00  0.10566000000E+00 0.  1.
     999900   -1    0    0    0    0 -0.00000000000E+00 -0.00000000000E+00 -0.74505805969E-08  0.93827000000E+00  0.93827000000E+00 0.  1.
     999902    2    1    2    0    0  0.20396149058E-01  0.97979506459E-02  0.66766469106E-02  0.10203380449E+01  0.10200652653E+01 0.  0.
     999903    2    3    3    0    0  0.36286334153E-01 -0.27892661972E-01  0.12202515218E+00  0.13186837294E+00  0.20110479347E-01 0.  0.
         14    1    1    2    0    0 -0.20396149058E-01 -0.97979506459E-02 -0.66766469106E-02  0.23591955138E-01  0.00000000000E+00 0.  1.
     999901    1    3    3    0    0 -0.15890185095E-01  0.37690612618E-01 -0.11534850527E+00  0.88846967192E+00  0.88000000000E+00 0.  1.
        -11    1    4    4    0    0  0.13719024130E-01 -0.49592968276E-02  0.62713311082E-01  0.64389647895E-01  0.51100000000E-03 0. -1.
         11    1    4    4    0    0  0.22567310023E-01 -0.22933365145E-01  0.59311841094E-01  0.67478725044E-01  0.51100000000E-03 0.  1.
</event>
<event>
 8    1  0.1099478E+005  0.1043930E+01  0.7957747E-01            NaN
         13   -1    0    0    0    0  0.00000000000E+00  0.00000000000E+00  0.74505805969E-08  0.10566000000E+00  0.10566000000E+00 0. -1.
     999900   -1    0    0    0    0 -0.00000000000E+00 -0.00000000000E+00 -0.74505805969E-08  0.93827000000E+00  0.93827000000E+00 0. -1.
     999902    2    1    2    0    0  0.10004874071E-01 -0.36583285251E-02 -0.22987289298E-01  0.10185943267E+01  0.10182791886E+01 0.  0.
     999903    2    3    3    0    0 -0.89979818756E-02  0.49978814895E-01  0.11371147237E+00  0.12622411028E+00  0.20576235147E-01 0.  0.
         14    1    1    2    0    0 -0.10004874071E-01  0.36583285251E-02  0.22987289298E-01  0.25335673309E-01  0.00000000000E+00 0. -1.
     999901    1    3    3    0    0  0.19002855947E-01 -0.53637143421E-01 -0.13669876167E+00  0.89237021641E+00  0.88000000000E+00 0. -1.
        -11    1    4    4    0    0  0.46934477923E-02  0.24391954833E-01  0.64098193341E-01  0.68744711966E-01  0.51100000000E-03 0. -1.
         11    1    4    4    0    0 -0.13691429668E-01  0.25586860062E-01  0.49613279027E-01  0.57479398318E-01  0.51100000000E-03 0.  1.
</event>
<event>
 8    1  0.1099478E+005  0.1043930E+01  0.7957747E-01            NaN
         13   -1    0    0    0    0  0.00000000000E+00  0.00000000000E+00  0.74505805969E-08  0.10566000000E+00  0.10566000000E+00 0.  1.
     999900   -1    0    0    0    0 -0.00000000000E+00 -0.00000000000E+00 -0.74505805969E-08  0.93827000000E+00  0.93827000000E+00 0. -1.
     999902    2    1    2    0    0 -0.65687461130E-02  0.16444970636E-01 -0.15902785425E-01  0.10201290742E+01  0.10198513833E+01 0.  0.
     999903    2    3    3    0    0 -0.35225911079E-03 -0.11756526330E+00 -0.50191915895E-01  0.12930185640E+00  0.19442901695E-01 0.  0.
         14    1    1    2    0    0  0.65687461130E-02 -0.16444970636E-01  0.15902785425E-01  0.23800925801E-01  0.00000000000E+00 0. -1.
     999901    1    3    3    0    0 -0.62164870022E-02  0.13401023393E+00  0.34289130470E-01  0.89082721780E+00  0.88000000000E+00 0.  1.
        -11    1    4    4    0    0 -0.91124717684E-02 -0.58309790943E-01 -0.29022107844E-01  0.65769390496E-01  0.51100000000E-03 0. -1.
         11    1    4    4    0    0  0.87602126577E-02 -0.59255472352E-01 -0.21169808051E-01  0.63532465900E-01  0.51100000000E-03 0.  1.
</event>
<event>
 8    1  0.1099478E+005  0.1043930E+01  0.7957747E-01            NaN
         13   -1    0    0    0    0  0.00000000000E+00  0.00000000000E+00  0.74505805969E-08  0.10566000000E+00  0.10566000000E+00 0. -1.
     999900   -1    0    0    0    0 -0.00000000000E+00 -0.00000000000E+00 -0.74505805969E-08  0.93827000000E+00  0.93827000000E+00 0.  1.
     999902    2    1    2    0    0 -0.81645503675E-02  0.19353723965E-01  0.12982681162E-01  0.10192363465E+01  0.10189371686E+01 0.  0.
     999903    2    3    3    0    0  0.50683114569E-01  0.98403261175E-01 -0.65693924390E-01  0.13024709724E+00  0.19915690439E-01 0.  0.
         14    1    1    2    0    0  0.81645503675E-02 -0.19353723965E-01 -0.12982681162E-01  0.24693653520E-01  0.00000000000E+00 0. -1.
     999901    1    3    3    0    0 -0.58847664936E-01 -0.79049537211E-01  0.78676605552E-01  0.88898924924E+00  0.88000000000E+00 0. -1.
        -11    1    4    4    0    0  0.42187679014E-01  0.62146672347E-01 -0.46595497905E-01  0.88393499141E-01  0.51100000000E-03 0.  1.
         11    1    4    4    0    0  0.84954355550E-02  0.36256588828E-01 -0.19098426485E-01  0.41853598100E-01  0.51100000000E-03 0. -1.
</event>
<event>
 8    1  0.1099478E+005  0.1043930E+01  0.7957747E-01            NaN
         13   -1    0    0    0    0  0.00000000000E+00  0.00000000000E+00  0.74505805969E-08  0.10566000000E+00  0.10566000000E+00 0. -1.
     999900   -1    0    0    0    0 -0.00000000000E+00 -0.00000000000E+00 -0.74505805969E-08  0.93827000000E+00  0.93827000000E+00 0.  1.
     999902    2    1    2    0    0  0.18628278143E-01 -0.24781834299E-02 -0.12190058454E-01  0.10215301861E+01  0.10212845683E+01 0.  0.
     999903    2    3    3    0    0 -0.77553820240E-01 -0.95718673456E-01 -0.35763554149E-01  0.13108058348E+00  0.26952329724E-01 0.  0.
         14    1    1    2    0    0 -0.18628278143E-01  0.24781834299E-02  0.12190058454E-01  0.22399813945E-01  0.00000000000E+00 0. -1.
     999901    1    3    3    0    0  0.96182098382E-01  0.93240490026E-01  0.23573495696E-01  0.89044960258E+00  0.88000000000E+00 0. -1.
        -11    1    4    4    0    0 -0.59964309813E-01 -0.53508695516E-01 -0.22108667373E-01  0.83354383455E-01  0.51100000000E-03 0. -1.
         11    1    4    4    0    0 -0.17589510427E-01 -0.42209977940E-01 -0.13654886776E-01  0.47726200023E-01  0.51100000000E-03 0.  1.
</event>
<event>
 8    1  0.1099478E+005  0.1043930E+01  0.7957747E-01            NaN
         13   -1    0    0    0    0  0.00000000000E+00  0.00000000000E+00  0.74505805969E-08  0.10566000000E+00  0.10566000000E+00 0. -1.
     999900   -1    0    0    0    0 -0.00000000000E+00 -0.00000000000E+00 -0.74505805969E-08  0.93827000000E+00  0.93827000000E+00 0.  1.
     999902    2    1    2    0    0 -0.91065243666E-02 -0.18752768866E-01 -0.13633165723E-01  0.10190209989E+01  0.10187165150E+01 0.  0.
     999903    2    3    3    0    0 -0.11137042591E+00 -0.14314956822E-02  0.62859868216E-01  0.12963406610E+00  0.21170902533E-01 0.  0.
         14    1    1    2    0    0  0.91065243666E-02  0.18752768866E-01  0.13633165723E-01  0.24909001060E-01  0.00000000000E+00 0. -1.
     999901    1    3    3    0    0  0.10226390154E+00 -0.17321273184E-01 -0.76493033939E-01  0.88938693284E+00  0.88000000000E+00 0.  1.
        -11    1    4    4    0    0 -0.58410239770E-01  0.83086749186E-02  0.39060603438E-01  0.70758618209E-01  0.51100000000E-03 0. -1.
         11    1    4    4    0    0 -0.52960186141E-01 -0.97401706007E-02  0.23799264778E-01  0.58875447891E-01  0.51100000000E-03 0.  1.
</event>
<event>
 8    1  0.1099478E+005  0.1043930E+01  0.7957747E-01            NaN
         13   -1    0    0    0    0  0.00000000000E+00  0.00000000000E+00  0.74505805969E-08  0.10566000000E+00  0.10566000000E+00 0.  1.
     999900   -1    0    0    0    0 -0.00000000000E+00 -0.00000000000E+00 -0.74505805969E-08  0.93827000000E+00  0.93827000000E+00 0.  1.
     999902    2    1    2    0    0  0.18091054605E-01  0.14825490966E-01  0.39803391888E-03  0.10205368414E+01  0.10202686924E+01 0.  0.
     999903    2    3    3    0    0  0.66027838068E-01  0.86255384706E-01 -0.74418901651E-01  0.13318249346E+00  0.19993420183E-01 0.  0.
         14    1    1    2    0    0 -0.18091054605E-01 -0.14825490966E-01 -0.39803391888E-03  0.23393158618E-01  0.00000000000E+00 0.  1.
     999901    1    3    3    0    0 -0.47936783462E-01 -0.71429893740E-01  0.74816935570E-01  0.88735434792E+00  0.88000000000E+00 0. -1.
        -11    1    4    4    0    0  0.46397594744E-01  0.59431106811E-01 -0.62269206629E-01  0.97788079386E-01  0.51100000000E-03 0. -1.
         11    1    4    4    0    0  0.19630243323E-01  0.26824277894E-01 -0.12149695023E-01  0.35394414074E-01  0.51100000000E-03 0.  1.
</event>
<event>
 8    1  0.1099478E+005  0.1043930E+01  0.7957747E-01            NaN
         13   -1    0    0    0    0  0.00000000000E+00  0.00000000000E+00  0.74505805969E-08  0.10566000000E+00  0.10566000000E+00 0. -1.
     999900   -1    0    0    0    0 -0.00000000000E+00 -0.00000000000E+00 -0.74505805969E-08  0.93827000000E+00  0.93827000000E+00 0.  1.
     999902    2    1    2    0    0 -0.20922622711E-01 -0.21613310748E-02  0.10729247574E-01  0.10203176251E+01  0.10200443676E+01 0.  0.
     999903    2    3    3    0    0  0.29767971533E-01  0.70036566069E-02 -0.12326499417E+00  0.12868541948E+00  0.20748375013E-01 0.  0.
         14    1    1    2    0    0  0.20922622711E-01  0.21613310748E-02 -0.10729247574E-01  0.23612374862E-01  0.00000000000E+00 0.  1.
     999901    1    3    3    0    0 -0.50690594244E-01 -0.91649876817E-02  0.13399424174E+00  0.89163220566E+00  0.88000000000E+00 0. -1.
        -11    1    4    4    0    0  0.17738863585E-01  0.13890992303E-01 -0.86602538454E-01  0.89486802022E-01  0.51100000000E-03 0.  1.
         11    1    4    4    0    0  0.12029107947E-01 -0.68873356960E-02 -0.36662455711E-01  0.39198617460E-01  0.51100000000E-03 0. -1.
</event>
<event>
 8    1  0.1099478E+005  0.1043930E+01  0.7957747E-01            NaN
         13   -1    0    0    0    0  0.00000000000E+00  0.00000000000E+00  0.74505805969E-08  0.10566000000E+00  0.10566000000E+00 0.  1.
     999900   -1    0    0    0    0 -0.00000000000E+00 -0.00000000000E+00 -0.74505805969E-08  0.93827000000E+00  0.93827000000E+00 0.  1.
     999902    2    1    2    0    0  0.14295093141E-01  0.15333349738E-01 -0.13174556573E-01  0.10191705524E+01  0.10188697585E+01 0.  0.
     999903    2    3    3    0    0 -0.24803087819E-01 -0.43332902265E-01 -0.11850335689E+00  0.13008981761E+00  0.19682008743E-01 0.  0.
         14    1    1    2    0    0 -0.14295093141E-01 -0.15333349738E-01  0.13174556573E-01  0.24759447550E-01  0.00000000000E+00 0. -1.
     999901    1    3    3    0    0  0.39098180960E-01  0.58666252003E-01  0.10532880032E+00  0.88908073484E+00  0.88000000000E+00 0. -1.
        -11    1    4    4    0    0 -0.16225206731E-01 -0.11611067704E-01 -0.56386787693E-01  0.59814757159E-01  0.51100000000E-03 0.  1.
         11    1    4    4    0    0 -0.85778810878E-02 -0.31721834562E-01 -0.62116569199E-01  0.70275060455E-01  0.51100000000E-03 0. -1.
</event>
<event>
 8    1  0.1099478E+005  0.1043930E+01  0.7957747E-01            NaN
         13   -1    0    0    0    0  0.00000000000E+00  0.00000000000E+00  0.74505805969E-08  0.10566000000E+00  0.10566000000E+00 0. -1.
     999900   -1    0    0    0    0 -0.00000000000E+00 -0.00000000000E+00 -0.74505805969E-08  0.93827000000E+00  0.93827000000E+00 0.  1.
     999902    2    1    2    0    0  0.11545831999E-01 -0.79558468615E-02 -0.19100661878E-01  0.10202353377E+01  0.10199601499E+01 0.  0.
     999903    2    3    3    0    0 -0.12123271870E+00  0.33373011632E-01 -0.22364561279E-01  0.12930948722E+00  0.20239562652E-01 0.  0.
         14    1    1    2    0    0 -0.11545831999E-01  0.79558468615E-02  0.19100661878E-01  0.23694662268E-01  0.00000000000E+00 0. -1.
     999901    1    3    3    0    0  0.13277855070E+00 -0.41328858493E-01  0.32638994019E-02  0.89092585051E+00  0.88000000000E+00 0. -1.
        -11    1    4    4    0    0 -0.40190117743E-01  0.74643853303E-02  0.16075027020E-02  0.40912196207E-01  0.51100000000E-03 0. -1.
         11    1    4    4    0    0 -0.81042600954E-01  0.25908626302E-01 -0.23972063981E-01  0.88397291014E-01  0.51100000000E-03 0.  1.
</event>
<event>
 8    1  0.1099478E+005  0.1043930E+01  0.7957747E-01            NaN
         13   -1    0    0    0    0  0.00000000000E+00  0.00000000000E+00  0.74505805969E-08  0.10566000000E+00  0.10566000000E+00 0. -1.
     999900   -1    0    0    0    0 -0.00000000000E+00 -0.00000000000E+00 -0.74505805969E-08  0.93827000000E+00  0.93827000000E+00 0.  1.
     999902    2    1    2    0    0 -0.21410239246E-01 -0.44050447240E-02  0.11330954823E-01  0.10193090069E+01  0.10190116085E+01 0.  0.
     999903    2    3    3    0    0  0.50769482385E-01  0.93599595372E-01 -0.67448141917E-01  0.12744524614E+00  0.18831205997E-01 0.  0.
         14    1    1    2    0    0  0.21410239246E-01  0.44050447240E-02 -0.11330954823E-01  0.24620993091E-01  0.00000000000E+00 0.  1.
     999901    1    3    3    0    0 -0.72179721631E-01 -0.98004640096E-01  0.78779096740E-01  0.89186376077E+00  0.88000000000E+00 0.  1.
        -11    1    4    4    0    0  0.26475142569E-01  0.42440767074E-01 -0.21225243129E-01  0.54340812937E-01  0.51100000000E-03 0. -1.
         11    1    4    4    0    0  0.24294339816E-01  0.51158828299E-01 -0.46222898789E-01  0.73104433200E-01  0.51100000000E-03 0.  1.
</event>
<event>
 8    1  0.1099478E+005  0.1043930E+01  0.7957747E-01            NaN
         13   -1    0    0    0    0  0.00000000000E+00  0.00000000000E+00  0.74505805969E-08  0.10566000000E+00  0.10566000000E+00 0.  1.
     999900   -1    0    0    0    0 -0.00000000000E+00 -0.00000000000E+00 -0.74505805969E-08  0.93827000000E+00  0.93827000000E+00 0.  1.
     999902    2    1    2    0    0 -0.76641593276E-02 -0.20122636235E-01  0.10257568416E-01  0.10200788462E+01  0.10197999681E+01 0.  0.
     999903    2    3    3    0    0 -0.58754165637E-01 -0.48496797827E-01 -0.10453700986E+00  0.13070093048E+00  0.18728465466E-01 0.  0.
         14    1    1    2    0    0  0.76641593276E-02  0.20122636235E-01 -0.10257568416E-01  0.23851153788E-01  0.00000000000E+00 0. -1.
     999901    1    3    3    0    0  0.51090006309E-01  0.28374161592E-01  0.11479457828E+00  0.88937791573E+00  0.88000000000E+00 0. -1.
        -11    1    4    4    0    0 -0.25840399306E-01 -0.32743858140E-01 -0.50596001330E-01  0.65575170253E-01  0.51100000000E-03 0.  1.
         11    1    4    4    0    0 -0.32913766330E-01 -0.15752939687E-01 -0.53941008530E-01  0.65125760226E-01  0.51100000000E-03 0. -1.
</event>
<event>
 8    1  0.1099478E+005  0.1043930E+01  0.7957747E-01            NaN
         13   -1    0    0    0    0  0.00000000000E+00  0.00000000000E+00  0.74505805969E-08  0.10566000000E+00  0.10566000000E+00 0. -1.
     999900   -1    0    0    0    0 -0.00000000000E+00 -0.00000000000E+00 -0.74505805969E-08  0.93827000000E+00  0.93827000000E+00 0. -1.
     999902    2    1    2    0    0 -0.83181175677E-02  0.21330532601E-01 -0.53994257278E-02  0.10204068944E+01  0.10201357231E+01 0.  0.
     999903    2    3    3    0    0 -0.20367604807E-01 -0.40598760112E-01  0.11945818137E+00  0.12935703633E+00  0.19997177380E-01 0.  0.
         14    1    1    2    0    0  0.83181175677E-02 -0.21330532601E-01  0.53994257278E-02  0.23523105644E-01  0.00000000000E+00 0. -1.
     999901    1    3    3    0    0  0.12049487239E-01  0.61929292714E-01 -0.12485760710E+00  0.89104985803E+00  0.88000000000E+00 0. -1.
        -11    1    4    4    0    0 -0.13132066159E-01 -0.24044444310E-01  0.44576520989E-01  0.52325078197E-01  0.51100000000E-03 0.  1.
         11    1    4    4    0    0 -0.72355386475E-02 -0.16554315803E-01  0.74881660382E-01  0.77031958133E-01  0.51100000000E-03 0. -1.
</event>
<event>
 8    1  0.1099478E+005  0.1043930E+01  0.7957747E-01            NaN
         13   -1    0    0    0    0  0.00000000000E+00  0.00000000000E+00  0.74505805969E-08  0.10566000000E+00  0.10566000000E+00 0.  1.
     999900   -1    0    0    0    0 -0.00000000000E+00 -0.00000000000E+00 -0.74505805969E-08  0.93827000000E+00  0.93827000000E+00 0. -1.
     999902    2    1    2    0    0  0.13997694841E-01 -0.69783907248E-02  0.19307252185E-01  0.10190823968E+01  0.10187794305E+01 0.  0.
     999903    2    3    3    0    0 -0.12365188461E+00  0.23119766398E-01 -0.59323467011E-02  0.12751616643E+00  0.20021683181E-01 0.  0.
         14    1    1    2    0    0 -0.13997694841E-01  0.69783907248E-02 -0.19307252185E-01  0.24847603203E-01  0.00000000000E+00 0. -1.
     999901    1    3    3    0    0  0.13764957945E+00 -0.30098157123E-01  0.25239598886E-01  0.89156623037E+00  0.88000000000E+00 0.  1.
        -11    1    4    4    0    0 -0.28852065373E-01  0.14121686146E-01 -0.41901356980E-03  0.32129431823E-01  0.51100000000E-03 0.  1.
         11    1    4    4    0    0 -0.94799819234E-01  0.89980802527E-02 -0.55133331313E-02  0.95386734603E-01  0.51100000000E-03 0. -1.
</event>
<event>
 8    1  0.1099478E+005  0.1043930E+01  0.7957747E-01            NaN
         13   -1    0    0    0    0  0.00000000000E+00  0.00000000000E+00  0.74505805969E-08  0.10566000000E+00  0.10566000000E+00 0. -1.
     999900   -1    0    0    0    0 -0.00000000000E+00 -0.00000000000E+00 -0.74505805969E-08  0.93827000000E+00  0.93827000000E+00 0. -1.
     999902    2    1    2    0    0 -0.98722567706E-02 -0.15037866385E-01  0.18336899085E-01  0.10182426345E+01  0.10179185733E+01 0.  0.
     999903    2    3    3    0    0  0.99244823298E-01 -0.32592176403E-01 -0.69377148900E-01  0.12700279854E+00  0.20118079747E-01 0.  0.
         14    1    1    2    0    0  0.98722567706E-02  0.15037866385E-01 -0.18336899085E-01  0.25687365517E-01  0.00000000000E+00 0.  1.
     999901    1    3    3    0    0 -0.10911708007E+00  0.17554310017E-01  0.87714047984E-01  0.89123983595E+00  0.88000000000E+00 0.  1.
        -11    1    4    4    0    0  0.64210953311E-01 -0.30669062135E-01 -0.43509939325E-01  0.83408715602E-01  0.51100000000E-03 0.  1.
         11    1    4    4    0    0  0.35033869987E-01 -0.19231142676E-02 -0.25867209575E-01  0.43594082935E-01  0.51100000000E-03 0. -1.
</event>
<event>
 8    1  0.1099478E+005  0.1043930E+01  0.7957747E-01            NaN
         13   -1    0    0    0    0  0.00000000000E+00  0.00000000000E+00  0.74505805969E-08  0.10566000000E+00  0.10566000000E+00 0. -1.
     999900   -1    0    0    0    0 -0.00000000000E+00 -0.00000000000E+00 -0.74505805969E-08  0.93827000000E+00  0.93827000000E+00 0.  1.
     999902    2    1    2    0    0 -0.48469191875E-02 -0.18162661395E-01 -0.15302300165E-01  0.10196908729E+01  0.10194027373E+01 0.  0.
     999903    2    3    3    0    0 -0.25815739279E-01  0.68745336122E-01 -0.10600863169E+00  0.13052253669E+00  0.20147678731E-01 0.  0.
         14    1    1    2    0    0  0.48469191875E-02  0.18162661395E-01  0.15302300165E-01  0.24239127148E-01  0.00000000000E+00 0. -1.
     999901    1    3    3    0    0  0.20968820092E-01 -0.86907997516E-01  0.90706331529E-01  0.88916833616E+00  0.88000000000E+00 0. -1.
        -11    1    4    4    0    0 -0.15041288798E-01  0.57729342757E-01 -0.92240868897E-01  0.10985243010E+00  0.51100000000E-03 0. -1.
         11    1    4    4    0    0 -0.10774450482E-01  0.11015993365E-01 -0.13767762797E-01  0.20670106590E-01  0.51100000000E-03 0.  1.
</event>
<event>
 8    1  0.1099478E+005  0.1043930E+01  0.7957747E-01            NaN
         13   -1    0    0    0    0  0.00000000000E+00  0.00000000000E+00  0.74505805969E-08  0.10566000000E+00  0.10566000000E+00 0. -1.
     999900   -1    0    0    0    0 -0.00000000000E+00 -0.00000000000E+00 -0.74505805969E-08  0.93827000000E+00  0.93827000000E+00 0.  1.
     999902    2    1    2    0    0  0.21331124104E-01 -0.62779424946E-02  0.76940399809E-02  0.10204007062E+01  0.10201293905E+01 0.  0.
     999903    2    3    3    0    0  0.71689679027E-01 -0.10328109322E+00 -0.37136263569E-01  0.13250693356E+00  0.19302618285E-01 0.  0.
         14    1    1    2    0    0 -0.21331124104E-01  0.62779424946E-02 -0.76940399809E-02  0.23529293843E-01  0.00000000000E+00 0. -1.
     999901    1    3    3    0    0 -0.50358554923E-01  0.97003150728E-01  0.44830303550E-01  0.88789377260E+00  0.88000000000E+00 0. -1.
        -11    1    4    4    0    0  0.11421657088E-01 -0.29562168336E-01 -0.55090098505E-02  0.32171203861E-01  0.51100000000E-03 0.  1.
         11    1    4    4    0    0  0.60268021939E-01 -0.73718924887E-01 -0.31627253718E-01  0.10033572970E+00  0.51100000000E-03 0. -1.
</event>
<event>
 8    1  0.1099478E+005  0.1043930E+01  0.7957747E-01            NaN
         13   -1    0    0    0    0  0.00000000000E+00  0.00000000000E+00  0.74505805969E-08  0.10566000000E+00  0.10566000000E+00 0. -1.
     999900   -1    0    0    0    0 -0.00000000000E+00 -0.00000000000E+00 -0.74505805969E-08  0.93827000000E+00  0.93827000000E+00 0.  1.
     999902    2    1    2    0    0  0.10198593249E-01 -0.17386492871E-01 -0.12471021466E-01  0.10202270927E+01  0.10199517110E+01 0.  0.
     999903    2    3    3    0    0  0.42333363741E-01 -0.10965124501E+00  0.57207352678E-01  0.13208267662E+00  0.18911452776E-01 0.  0.
         14    1    1    2    0    0 -0.10198593249E-01  0.17386492871E-01  0.12471021466E-01  0.23702907312E-01  0.00000000000E+00 0.  1.
     999901    1    3    3    0    0 -0.32134770491E-01  0.92264752138E-01 -0.69678374144E-01  0.88814441606E+00  0.88000000000E+00 0. -1.
        -11    1    4    4    0    0  0.16239868481E-01 -0.67605992068E-01  0.31878619909E-01  0.76490594324E-01  0.51100000000E-03 0.  1.
         11    1    4    4    0    0  0.26093495260E-01 -0.42045252942E-01  0.25328732769E-01  0.55592082300E-01  0.51100000000E-03 0. -1.
</event>
<event>
 8    1  0.1099478E+005  0.1043930E+01  0.7957747E-01            NaN
         13   -1    0    0    0    0  0.00000000000E+00  0.00000000000E+00  0.74505805969E-08  0.10566000000E+00  0.10566000000E+00 0. -1.
     999900   -1    0    0    0    0 -0.00000000000E+00 -0.00000000000E+00 -0.74505805969E-08  0.93827000000E+00  0.93827000000E+00 0. -1.
     999902    2    1    2    0    0  0.11462462435E-01 -0.19319087873E-01  0.64571767473E-02  0.10205567175E+01  0.10202890293E+01 0.  0.
     999903    2    3    3    0    0  0.30908917538E-01 -0.73826291725E-01 -0.10321584308E+00  0.13186252314E+00  0.18125457566E-01 0.  0.
         14    1    1    2    0    0 -0.11462462435E-01  0.19319087873E-01 -0.64571767473E-02  0.23373282459E-01  0.00000000000E+00 0.  1.
     999901    1    3    3    0    0 -0.19446455103E-01  0.54507203851E-01  0.10967301983E+00  0.88869419440E+00  0.88000000000E+00 0.  1.
        -11    1    4    4    0    0  0.11475023325E-01 -0.45358725406E-01 -0.50202631863E-01  0.68626929830E-01  0.51100000000E-03 0. -1.
         11    1    4    4    0    0  0.19433894213E-01 -0.28467566318E-01 -0.53013211219E-01  0.63235593308E-01  0.51100000000E-03 0.  1.
</event>
<event>
 8    1  0.1099478E+005  0.1043930E+01  0.7957747E-01            NaN
         13   -1    0    0    0    0  0.00000000000E+00  0.00000000000E+00  0.74505805969E-08  0.10566000000E+00  0.10566000000E+00 0.  1.
     999900   -1    0    0    0    0 -0.00000000000E+00 -0.00000000000E+00 -0.74505805969E-08  0.93827000000E+00  0.93827000000E+00 0.  1.
     999902    2    1    2    0    0 -0.11209631860E-01 -0.87456436317E-02 -0.19688662800E-01  0.10196444987E+01  0.10193552463E+01 0.  0.
     999903    2    3    3    0    0 -0.11633735963E+00 -0.56204247092E-01 -0.19395172656E-01  0.13211746009E+00  0.19635475580E-01 0.  0.
         14    1    1    2    0    0  0.11209631860E-01  0.87456436317E-02  0.19688662800E-01  0.24285501267E-01  0.00000000000E+00 0.  1.
     999901    1    3    3    0    0  0.10512772777E+00  0.47458603460E-01 -0.29349014371E-03  0.88752703864E+00  0.88000000000E+00 0. -1.
        -11    1    4    4    0    0 -0.88838943888E-01 -0.41269712174E-01 -0.22976747158E-01  0.10061679345E+00  0.51100000000E-03 0. -1.
         11    1    4    4    0    0 -0.27498415741E-01 -0.14934534918E-01  0.35815745021E-02  0.31500666634E-01  0.51100000000E-03 0.  1.
</event>
<event>
 8    1  0.1099478E+005  0.1043930E+01  0.7957747E-01            NaN
         13   -1    0    0    0    0  0.00000000000E+00  0.00000000000E+00  0.74505805969E-08  0.10566000000E+00  0.10566000000E+00 0. -1.
     999900   -1    0    0    0    0 -0.00000000000E+00 -0.00000000000E+00 -0.74505805969E-08  0.93827000000E+00  0.93827000000E+00 0.  1.
     999902    2    1    2    0    0 -0.60857745058E-02  0.23394351275E-01 -0.64620333170E-03  0.10197483975E+01  0.10194616443E+01 0.  0.
     999903    2    3    3    0    0  0.31756301177E-01 -0.10754378356E+00 -0.57210815550E-01  0.12746123897E+00  0.19979038438E-01 0.  0.
         14    1    1    2    0    0  0.60857745058E-02 -0.23394351275E-01  0.64620333170E-03  0.24181602545E-01  0.00000000000E+00 0. -1.
     999901    1    3    3    0    0 -0.37842075683E-01  0.13093813483E+00  0.56564612218E-01  0.89228715849E+00  0.88000000000E+00 0. -1.
        -11    1    4    4    0    0  0.24833863891E-01 -0.56194287075E-01 -0.37754820607E-01  0.72112455899E-01  0.51100000000E-03 0.  1.
         11    1    4    4    0    0  0.69224372855E-02 -0.51349496483E-01 -0.19455994943E-01  0.55348783069E-01  0.51100000000E-03 0. -1.
</event>
<event>
 8    1  0.1099478E+005  0.1043930E+01  0.7957747E-01            NaN
         13   -1    0    0    0    0  0.00000000000E+00  0.00000000000E+00  0.74505805969E-08  0.10566000000E+00  0.10566000000E+00 0.  1.
     999900   -1    0    0    0    0 -0.00000000000E+00 -0.00000000000E+00 -0.74505805969E-08  0.93827000000E+00  0.93827000000E+00 0.  1.
     999902    2    1    2    0    0 -0.20449315024E-01 -0.76664101103E-02  0.92370463288E-02  0.10202177383E+01  0.10199421367E+01 0.  0.
     999903    2    3    3    0    0 -0.58351936182E-01 -0.62277461258E-01  0.10007080718E+00  0.13304822368E+00  0.20105540001E-01 0.  0.
         14    1    1    2    0    0  0.20449315024E-01  0.76664101103E-02 -0.92370463288E-02  0.23712261677E-01  0.00000000000E+00 0. -1.
     999901    1    3    3    0    0  0.37902621157E-01  0.54611051147E-01 -0.90833760850E-01  0.88716951464E+00  0.88000000000E+00 0.  1.
        -11    1    4    4    0    0 -0.15568665178E-01 -0.26635348992E-01  0.25809614168E-01  0.40227135815E-01  0.51100000000E-03 0.  1.
         11    1    4    4    0    0 -0.42783271003E-01 -0.35642112265E-01  0.74261193011E-01  0.92821087867E-01  0.51100000000E-03 0. -1.
</event>
<event>
 8    1  0.1099478E+005  0.1043930E+01  0.7957747E-01            NaN
         13   -1    0    0    0    0  0.00000000000E+00  0.00000000000E+00  0.74505805969E-08  0.10566000000E+00  0.10566000000E+00 0. -1.
     999900   -1    0    0    0    0 -0.00000000000E+00 -0.00000000000E+00 -0.74505805969E-08  0.93827000000E+00  0.93827000000E+00 0. -1.
     999902    2    1    2    0    0 -0.17965173744E-01  0.14610653872E-01 -0.24803095502E-02  0.10206411484E+01  0.10203754129E+01 0.  0.
     999903    2    3    3    0    0  0.69849563658E-01 -0.12120440433E-01 -0.10680045464E+00  0.12973785836E+00  0.19992702692E-01 0.  0.
         14    1    1    2    0    0  0.17965173744E-01 -0.14610653872E-01  0.24803095502E-02  0.23288851618E-01  0.00000000000E+00 0.  1.
     999901    1    3    3    0    0 -0.87814737402E-01  0.26731094304E-01  0.10432014509E+00  0.89090329003E+00  0.88000000000E+00 0.  1.
        -11    1    4    4    0    0  0.22331253658E-01 -0.12156249530E-01 -0.28987211087E-01  0.38561364346E-01  0.51100000000E-03 0.  1.
         11    1    4    4    0    0  0.47518309999E-01  0.35809096621E-04 -0.77813243549E-01  0.91176494011E-01  0.51100000000E-03 0. -1.
</event>
<event>
 8    1  0.1099478E+005  0.1043930E+01  0.7957747E-01            NaN
         13   -1    0    0    0    0  0.00000000000E+00  0.00000000000E+00  0.74505805969E-08  0.10566000000E+00  0.10566000000E+00 0.  1.
     999900   -1    0    0    0    0 -0.00000000000E+00 -0.00000000000E+00 -0.74505805969E-08  0.93827000000E+00  0.93827000000E+00 0.  1.
     999902    2    1    2    0    0  0.23360487404E-01  0.50600001650E-02 -0.39018642126E-02  0.10197114014E+01  0.10194237596E+01 0.  0.
     999903    2    3    3    0    0  0.98613822346E-02 -0.12213561950E+00 -0.37731799115E-01  0.12982072498E+00  0.20380764447E-01 0.  0.
         14    1    1    2    0    0 -0.23360487404E-01 -0.50600001650E-02  0.39018642126E-02  0.24218598592E-01  0.00000000000E+00 0.  1.
     999901    1    3    3    0    0  0.13499105169E-01  0.12719561966E+00  0.33829934903E-01  0.88989067643E+00  0.88000000000E+00 0. -1.
        -11    1    4    4    0    0 -0.25644231052E-02 -0.64097113578E-01 -0.12664445242E-01  0.65388573384E-01  0.51100000000E-03 0.  1.
         11    1    4    4    0    0  0.12425805340E-01 -0.58038505921E-01 -0.25067353873E-01  0.64432151594E-01  0.51100000000E-03 0. -1.
</event>
<event>
 8    1  0.1099478E+005  0.1043930E+01  0.7957747E-01            NaN
         13   -1    0    0    0    0  0.00000000000E+00  0.00000000000E+00  0.74505805969E-08  0.10566000000E+00  0.10566000000E+00 0. -1.
     999900   -1    0    0    0    0 -0.00000000000E+00 -0.00000000000E+00 -0.74505805969E-08  0.93827000000E+00  0.93827000000E+00 0.  1.
     999902    2    1    2    0    0 -0.11793968948E-01 -0.14122177640E-01 -0.14592689336E-01  0.10204463847E+01  0.10201761338E+01 0.  0.
     999903    2    3    3    0    0 -0.44764780472E-01  0.11851873834E+00  0.16804635623E-01  0.12934230605E+00  0.19911289443E-01 0.  0.
         14    1    1    2    0    0  0.11793968948E-01  0.14122177640E-01  0.14592689336E-01  0.23483615286E-01  0.00000000000E+00 0. -1.
     999901    1    3    3    0    0  0.32970811524E-01 -0.13264091598E+00 -0.31397324958E-01  0.89110407867E+00  0.88000000000E+00 0. -1.
        -11    1    4    4    0    0 -0.62469796104E-02  0.68939886749E-02 -0.26015658885E-02  0.96737324842E-02  0.51100000000E-03 0. -1.
         11    1    4    4    0    0 -0.38517800862E-01  0.11162474966E+00  0.19406201511E-01  0.11966857356E+00  0.51100000000E-03 0.  1.
</event>
<event>
 8    1  0.1099478E+005  0.1043930E+01  0.7957747E-01            NaN
         13   -1    0    0    0    0  0.00000000000E+00  0.00000000000E+00  0.74505805969E-08  0.10566000000E+00  0.10566000000E+00 0.  1.
     999900   -1    0    0    0    0 -0.00000000000E+00 -0.00000000000E+00 -0.74505805969E-08  0.93827000000E+00  0.93827000000E+00 0. -1.
     999902    2    1    2    0    0  0.31144531520E-02 -0.20722720967E-01  0.12592983515E-01  0.10194818055E+01  0.10191886172E+01 0.  0.
     999903    2    3    3    0    0 -0.54780734197E-01 -0.94932115239E-01  0.71490726801E-01  0.13250501259E+00  0.20823520361E-01 0.  0.
         14    1    1    2    0    0 -0.31144531520E-02  0.20722720967E-01 -0.12592983515E-01  0.24448194545E-01  0.00000000000E+00 0. -1.
     999901    1    3    3    0    0  0.57895187349E-01  0.74209394272E-01 -0.58897743286E-01  0.88697679286E+00  0.88000000000E+00 0. -1.
        -11    1    4    4    0    0 -0.11997498801E-01 -0.78130032123E-02  0.67604638971E-02  0.15841338005E-01  0.51100000000E-03 0.  1.
         11    1    4    4    0    0 -0.42783235395E-01 -0.87119112027E-01  0.64730262904E-01  0.11666367459E+00  0.51100000000E-03 0. -1.
</event>
<event>
 8    1  0.1099478E+005  0.1043930E+01  0.7957747E-01            NaN
         13   -1    0    0    0    0  0.00000000000E+00  0.00000000000E+00  0.74505805969E-08  0.10566000000E+00  0.10566000000E+00 0.  1.
     999900   -1    0    0    0    0 -0.00000000000E+00 -0.00000000000E+00 -0.74505805969E-08  0.93827000000E+00  0.93827000000E+00 0. -1.
     999902    2    1    2    0    0 -0.52528273250E-02 -0.21713549762E-01  0.10361185473E-01  0.10193043101E+01  0.10190067968E+01 0.  0.
     999903    2    3    3    0    0 -0.89354465560E-01  0.88705231167E-01 -0.15066268281E-01  0.12806250895E+00  0.17893440300E-01 0.  0.
         14    1    1    2    0    0  0.52528273250E-02  0.21713549762E-01 -0.10361185473E-01  0.24625689891E-01  0.00000000000E+00 0. -1.
     999901    1    3    3    0    0  0.84101638235E-01 -0.11041878093E+00  0.25427453753E-01  0.89124180116E+00  0.88000000000E+00 0. -1.
        -11    1    4    4    0    0 -0.17149527727E-01  0.13677352178E-01 -0.91248805681E-02  0.23763434732E-01  0.51100000000E-03 0.  1.
         11    1    4    4    0    0 -0.72204937833E-01  0.75027878989E-01 -0.59413877125E-02  0.10429907421E+00  0.51100000000E-03 0. -1.
</event>
<event>
 8    1  0.1099478E+005  0.1043930E+01  0.7957747E-01            NaN
         13   -1    0    0    0    0  0.00000000000E+00  0.00000000000E+00  0.74505805969E-08  0.10566000000E+00  0.10566000000E+00 0. -1.
     999900   -1    0    0    0    0 -0.00000000000E+00 -0.00000000000E+00 -0.74505805969E-08  0.93827000000E+00  0.93827000000E+00 0.  1.
     999902    2    1    2    0    0 -0.12975496803E-01 -0.10495933149E-01 -0.16195054558E-01  0.10206747227E+01  0.10204097616E+01 0.  0.
     999903    2    3    3    0    0 -0.89406207751E-01 -0.90074773427E-01 -0.38379037182E-01  0.13350699647E+00  0.15627949888E-01 0.  0.
         14    1    1    2    0    0  0.12975496803E-01  0.10495933149E-01  0.16195054558E-01  0.23255277295E-01  0.00000000000E+00 0. -1.
     999901    1    3    3    0    0  0.76430710948E-01  0.79578840278E-01  0.22183982624E-01  0.88716772624E+00  0.88000000000E+00 0. -1.
        -11    1    4    4    0    0 -0.54845585457E-01 -0.51343601889E-01 -0.15181565323E-01  0.76648188144E-01  0.51100000000E-03 0. -1.
         11    1    4    4    0    0 -0.34560622294E-01 -0.38731171538E-01 -0.23197471859E-01  0.56858808321E-01  0.51100000000E-03 0.  1.
</event>
<event>
 8    1  0.1099478E+005  0.1043930E+01  0.7957747E-01            NaN
         13   -1    0    0    0    0  0.00000000000E+00  0.00000000000E+00  0.74505805969E-08  0.10566000000E+00  0.10566000000E+00 0. -1.
     999900   -1    0    0    0    0 -0.00000000000E+00 -0.00000000000E+00 -0.74505805969E-08  0.93827000000E+00  0.93827000000E+00 0.  1.
     999902    2    1    2    0    0  0.17304586927E-02  0.23579232691E-01  0.23715076379E-02  0.10201687132E+01  0.10198919573E+01 0.  0.
     999903    2    3    3    0    0 -0.76008775762E-01  0.89624457877E-01  0.58023244736E-01  0.13253000507E+00  0.19688267353E-01 0.  0.
         14    1    1    2    0    0 -0.17304586927E-02 -0.23579232691E-01 -0.23715076379E-02  0.23761286793E-01  0.00000000000E+00 0. -1.
     999901    1    3    3    0    0  0.77739234455E-01 -0.66045225186E-01 -0.55651737098E-01  0.88763870814E+00  0.88000000000E+00 0.  1.
        -11    1    4    4    0    0 -0.52712043834E-01  0.59238711231E-01  0.48911806805E-01  0.93168720284E-01  0.51100000000E-03 0. -1.
         11    1    4    4    0    0 -0.23296731929E-01  0.30385746645E-01  0.91114379309E-02  0.39361284785E-01  0.51100000000E-03 0.  1.
</event>
<event>
 8    1  0.1099478E+005  0.1043930E+01  0.7957747E-01            NaN
         13   -1    0    0    0    0  0.00000000000E+00  0.00000000000E+00  0.74505805969E-08  0.10566000000E+00  0.10566000000E+00 0. -1.
     999900   -1    0    0    0    0 -0.00000000000E+00 -0.00000000000E+00 -0.74505805969E-08  0.93827000000E+00  0.93827000000E+00 0.  1.
     999902    2    1    2    0    0  0.17744380826E-01  0.16877817487E-01  0.19843152130E-02  0.10193604807E+01  0.10190643396E+01 0.  0.
     999903    2    3    3    0    0 -0.32502129044E-01  0.23676154499E-01 -0.12127758083E+00  0.12932428804E+00  0.19989276703E-01 0.  0.
         14    1    1    2    0    0 -0.17744380826E-01 -0.16877817487E-01 -0.19843152130E-02  0.24569519346E-01  0.00000000000E+00 0. -1.
     999901    1    3    3    0    0  0.50246509870E-01 -0.67983370122E-02  0.12326189604E+00  0.89003619261E+00  0.88000000000E+00 0. -1.
        -11    1    4    4    0    0 -0.14412670281E-01  0.13142085471E-01 -0.86966747800E-01  0.89128647578E-01  0.51100000000E-03 0.  1.
         11    1    4    4    0    0 -0.18089458763E-01  0.10534069027E-01 -0.34310833025E-01  0.40195640467E-01  0.51100000000E-03 0. -1.
</event>
<event>
 8    1  0.1099478E+005  0.1043930E+01  0.7957747E-01            NaN
         13   -1    0    0    0    0  0.00000000000E+00  0.00000000000E+00  0.74505805969E-08  0.10566000000E+00  0.10566000000E+00 0. -1.
     999900   -1    0    0    0    0 -0.00000000000E+00 -0.00000000000E+00 -0.74505805969E-08  0.93827000000E+00  0.93827000000E+00 0.  1.
     999902    2    1    2    0    0  0.76162231770E-02 -0.17505772018E-01  0.16651970411E-01  0.10185972736E+01  0.10182822098E+01 0.  0.
     999903    2    3    3    0    0  0.11689087490E+00  0.37620799701E-01 -0.32701344172E-01  0.12875704181E+00  0.20741183640E-01 0.  0.
         14    1    1    2    0    0 -0.76162231770E-02  0.17505772018E-01 -0.16651970411E-01  0.25332726422E-01  0.00000000000E+00 0.  1.
     999901    1    3    3    0    0 -0.10927465172E+00 -0.55126571719E-01  0.49353314582E-01  0.88984023177E+00  0.88000000000E+00 0. -1.
        -11    1    4    4    0    0  0.69555229871E-01  0.32605551031E-01 -0.17532105260E-01  0.78795226989E-01  0.51100000000E-03 0. -1.
         11    1    4    4    0    0  0.47335645030E-01  0.50152486695E-02 -0.15169238911E-01  0.49961814817E-01  0.51100000000E-03 0.  1.
</event>
<event>
 8    1  0.1099478E+005  0.1043930E+01  0.7957747E-01            NaN
         13   -1    0    0    0    0  0.00000000000E+00  0.00000000000E+00  0.74505805969E-08  0.10566000000E+00  0.10566000000E+00 0. -1.
     999900   -1    0    0    0    0 -0.00000000000E+00 -0.00000000000E+00 -0.74505805969E-08  0.93827000000E+00  0.93827000000E+00 0.  1.
     999902    2    1    2    0    0 -0.22225440204E-02  0.20593004780E-01 -0.11123512855E-01  0.10204194899E+01  0.10201486123E+01 0.  0.
     999903    2    3    3    0    0 -0.41361790986E-01  0.63216335652E-01 -0.10807651100E+00  0.13320558510E+00  0.18870421942E-01 0.  0.
         14    1    1    2    0    0  0.22225440204E-02 -0.20593004780E-01  0.11123512855E-01  0.23510510118E-01  0.00000000000E+00 0. -1.
     999901    1    3    3    0    0  0.39139246965E-01 -0.42623330872E-01  0.96952998149E-01  0.88721390478E+00  0.88000000000E+00 0. -1.
        -11    1    4    4    0    0 -0.14733640075E-01  0.33155297363E-01 -0.64039808891E-01  0.73605109448E-01  0.51100000000E-03 0. -1.
         11    1    4    4    0    0 -0.26628150911E-01  0.30061038289E-01 -0.44036702113E-01  0.59600475652E-01  0.51100000000E-03 0.  1.
</event>
<event>
 8    1  0.1099478E+005  0.1043930E+01  0.7957747E-01            NaN
         13   -1    0    0    0    0  0.00000000000E+00  0.00000000000E+00  0.74505805969E-08  0.10566000000E+00  0.10566000000E+00 0. -1.
     999900   -1    0    0    0    0 -0.00000000000E+00 -0.00000000000E+00 -0.74505805969E-08  0.93827000000E+00  0.93827000000E+00 0.  1.
     999902    2    1    2    0    0  0.15991004086E-01  0.14689926745E-02 -0.17363094544E-01  0.10202794777E+01  0.10200053262E+01 0.  0.
     999903    2    3    3    0    0  0.79309414665E-01 -0.27218594713E-01  0.96501084677E-01  0.13022484453E+00  0.24803540793E-01 0.  0.
         14    1    1    2    0    0 -0.15991004086E-01 -0.14689926745E-02  0.17363094544E-01  0.23650522263E-01  0.00000000000E+00 0. -1.
     999901    1    3    3    0    0 -0.63318410579E-01  0.28687587387E-01 -0.11386417922E+00  0.89005463321E+00  0.88000000000E+00 0.  1.
        -11    1    4    4    0    0  0.28072457590E-01 -0.11880210379E-01  0.53580878868E-01  0.61647173294E-01  0.51100000000E-03 0. -1.
         11    1    4    4    0    0  0.51236957074E-01 -0.15338384334E-01  0.42920205808E-01  0.68577671234E-01  0.51100000000E-03 0.  1.
</event>
<event>
 8    1  0.1099478E+005  0.1043930E+01  0.7957747E-01            NaN
         13   -1    0    0    0    0  0.00000000000E+00  0.00000000000E+00  0.74505805969E-08  0.10566000000E+00  0.10566000000E+00 0. -1.
     999900   -1    0    0    0    0 -0.00000000000E+00 -0.00000000000E+00 -0.74505805969E-08  0.93827000000E+00  0.93827000000E+00 0. -1.
     999902    2    1    2    0    0 -0.12632351153E-02  0.21607253149E-01  0.91834223576E-02  0.10204182073E+01  0.10201472998E+01 0.  0.
     999903    2    3    3    0    0 -0.56220853926E-01  0.11136116026E+00 -0.40457800228E-01  0.13275816271E+00  0.20635012428E-01 0.  0.
         14    1    1    2    0    0  0.12632351153E-02 -0.21607253149E-01 -0.91834223576E-02  0.23511792739E-01  0.00000000000E+00 0. -1.
     999901    1    3    3    0    0  0.54957618811E-01 -0.89753907108E-01  0.49641222586E-01  0.88766004455E+00  0.88000000000E+00 0.  1.
        -11    1    4    4    0    0 -0.26413234062E-01  0.42918580842E-01 -0.26031471570E-01  0.56723559022E-01  0.51100000000E-03 0.  1.
         11    1    4    4    0    0 -0.29807619865E-01  0.68442579415E-01 -0.14426328659E-01  0.76034603692E-01  0.51100000000E-03 0. -1.
</event>
<event>
 8    1  0.1099478E+005  0.1043930E+01  0.7957747E-01            NaN
         13   -1    0    0    0    0  0.00000000000E+00  0.00000000000E+00  0.74505805969E-08  0.10566000000E+00  0.10566000000E+00 0. -1.
     999900   -1    0    0    0    0 -0.00000000000E+00 -0.00000000000E+00 -0.74505805969E-08  0.93827000000E+00  0.93827000000E+00 0.  1.
     999902    2    1    2    0    0  0.38867802224E-02  0.14468822302E-01 -0.17079955236E-01  0.10212104324E+01  0.10209576723E+01 0.  0.
     999903    2    3    3    0    0  0.72495633954E-01  0.86744588579E-01 -0.69234343185E-01  0.13405146056E+00  0.19903748698E-01 0.  0.
         14    1    1    2    0    0 -0.38867802224E-02 -0.14468822302E-01  0.17079955236E-01  0.22719567561E-01  0.00000000000E+00 0. -1.
     999901    1    3    3    0    0 -0.68608853732E-01 -0.72275766278E-01  0.52154387949E-01  0.88715897188E+00  0.88000000000E+00 0. -1.
        -11    1    4    4    0    0  0.32619830017E-01  0.46042086104E-01 -0.44803093891E-01  0.72052101610E-01  0.51100000000E-03 0. -1.
         11    1    4    4    0    0  0.39875803937E-01  0.40702502475E-01 -0.24431249294E-01  0.61999358952E-01  0.51100000000E-03 0.  1.
</event>
<event>
 8    1  0.1099478E+005  0.1043930E+01  0.7957747E-01            NaN
         13   -1    0    0    0    0  0.00000000000E+00  0.00000000000E+00  0.74505805969E-08  0.10566000000E+00  0.10566000000E+00 0. -1.
     999900   -1    0    0    0    0 -0.00000000000E+00 -0.00000000000E+00 -0.74505805969E-08  0.93827000000E+00  0.93827000000E+00 0.  1.
     999902    2    1    2    0    0 -0.19132618570E-01  0.85439093714E-03  0.10278118761E-01  0.10221946186E+01  0.10219635080E+01 0.  0.
     999903    2    3    3    0    0 -0.31569446052E-01  0.19526299266E-01  0.12776646419E+00  0.13410294199E+00  0.16775678617E-01 0.  0.
         14    1    1    2    0    0  0.19132618570E-01 -0.85439093714E-03 -0.10278118761E-01  0.21735381351E-01  0.00000000000E+00 0. -1.
     999901    1    3    3    0    0  0.12436827481E-01 -0.18671908329E-01 -0.11748834542E+00  0.88809167666E+00  0.88000000000E+00 0.  1.
        -11    1    4    4    0    0  0.76237683851E-03  0.22238908140E-02  0.22553387405E-01  0.22681342845E-01  0.51100000000E-03 0. -1.
         11    1    4    4    0    0 -0.32331822890E-01  0.17302408452E-01  0.10521307678E+00  0.11142159915E+00  0.51100000000E-03 0.  1.
</event>
<event>
 8    1  0.1099478E+005  0.1043930E+01  0.7957747E-01            NaN
         13   -1    0    0    0    0  0.00000000000E+00  0.00000000000E+00  0.74505805969E-08  0.10566000000E+00  0.10566000000E+00 0. -1.
     999900   -1    0    0    0    0 -0.00000000000E+00 -0.00000000000E+00 -0.74505805969E-08  0.93827000000E+00  0.93827000000E+00 0. -1.
     999902    2    1    2    0    0 -0.33037904409E-02  0.21407905135E-01 -0.12768784233E-01  0.10187853130E+01  0.10184749671E+01 0.  0.
     999903    2    3    3    0    0  0.39910085097E-01  0.20811658890E-01 -0.12154706917E+00  0.13103506106E+00  0.19249861398E-01 0.  0.
         14    1    1    2    0    0  0.33037904409E-02 -0.21407905135E-01  0.12768784233E-01  0.25144687000E-01  0.00000000000E+00 0.  1.
     999901    1    3    3    0    0 -0.43213875538E-01  0.59624624427E-03  0.10877828494E+00  0.88775025194E+00  0.88000000000E+00 0.  1.
        -11    1    4    4    0    0  0.32977700119E-01  0.77810057265E-02 -0.77716376120E-01  0.84783070206E-01  0.51100000000E-03 0.  1.
         11    1    4    4    0    0  0.69323849782E-02  0.13030653164E-01 -0.43830693052E-01  0.46251990852E-01  0.51100000000E-03 0. -1.
</event>
<event>
 8    1  0.1099478E+005  0.1043930E+01  0.7957747E-01            NaN
         13   -1    0    0    0    0  0.00000000000E+00  0.00000000000E+00  0.74505805969E-08  0.10566000000E+00  0.10566000000E+00 0.  1.
     999900   -1    0    0    0    0 -0.00000000000E+00 -0.00000000000E+00 -0.74505805969E-08  0.93827000000E+00  0.93827000000E+00 0.  1.
     999902    2    1    2    0    0 -0.42089839154E-03 -0.20485611513E-01 -0.28946206364E-02  0.10232366131E+01  0.10230273457E+01 0.  0.
     999903    2    3    3    0    0  0.59784501640E-02  0.12096713886E+00  0.44857369042E-01  0.13063923195E+00  0.19637586842E-01 0.  0.
         14    1    1    2    0    0  0.42089839154E-03  0.20485611513E-01  0.28946206364E-02  0.20693386942E-01  0.00000000000E+00 0.  1.
     999901    1    3    3    0    0 -0.63993485555E-02 -0.14145275037E+00 -0.47751989678E-01  0.89259738111E+00  0.88000000000E+00 0. -1.
        -11    1    4    4    0    0 -0.68204700688E-02  0.45407195068E-01  0.19829999894E-01  0.50018218608E-01  0.51100000000E-03 0.  1.
         11    1    4    4    0    0  0.12798920233E-01  0.75559943788E-01  0.25027369148E-01  0.80621013339E-01  0.51100000000E-03 0. -1.
</event>
<event>
 8    1  0.1099478E+005  0.1043930E+01  0.7957747E-01            NaN
         13   -1    0    0    0    0  0.00000000000E+00  0.00000000000E+00  0.74505805969E-08  0.10566000000E+00  0.10566000000E+00 0. -1.
     999900   -1    0    0    0    0 -0.00000000000E+00 -0.00000000000E+00 -0.74505805969E-08  0.93827000000E+00  0.93827000000E+00 0. -1.
     999902    2    1    2    0    0 -0.22675154664E-01  0.84962248690E-02  0.45511066526E-02  0.10192913911E+01  0.10189935618E+01 0.  0.
     999903    2    3    3    0    0 -0.51379108010E-01 -0.11549756837E+00  0.23200992119E-01  0.12993983187E+00  0.19146091800E-01 0.  0.
         14    1    1    2    0    0  0.22675154664E-01 -0.84962248690E-02 -0.45511066526E-02  0.24638608886E-01  0.00000000000E+00 0.  1.
     999901    1    3    3    0    0  0.28703953346E-01  0.12399379324E+00 -0.18649885466E-01  0.88935155924E+00  0.88000000000E+00 0. -1.
        -11    1    4    4    0    0 -0.14271403748E-01 -0.15916258678E-01  0.12185014318E-02  0.21418359461E-01  0.51100000000E-03 0.  1.
         11    1    4    4    0    0 -0.37107704262E-01 -0.99581309696E-01  0.21982490687E-01  0.10852147241E+00  0.51100000000E-03 0. -1.
</event>
<event>
 8    1  0.1099478E+005  0.1043930E+01  0.7957747E-01            NaN
         13   -1    0    0    0    0  0.00000000000E+00  0.00000000000E+00  0.74505805969E-08  0.10566000000E+00  0.10566000000E+00 0. -1.
     999900   -1    0    0    0    0 -0.00000000000E+00 -0.00000000000E+00 -0.74505805969E-08  0.93827000000E+00  0.93827000000E+00 0. -1.
     999902    2    1    2    0    0  0.15751776565E-01 -0.17590189001E-01  0.10657799838E-02  0.10202938180E+01  0.10200200027E+01 0.  0.
     999903    2    3    3    0    0 -0.12672526077E+00  0.73864671570E-02  0.43296235430E-02  0.12847870698E+00  0.19343755923E-01 0.  0.
         14    1    1    2    0    0 -0.15751776565E-01  0.17590189001E-01 -0.10657799838E-02  0.23636182031E-01  0.00000000000E+00 0.  1.
     999901    1    3    3    0    0  0.14247703733E+00 -0.24976656158E-01 -0.32638435592E-02  0.89181511099E+00  0.88000000000E+00 0.  1.
        -11    1    4    4    0    0 -0.28841867745E-01 -0.56402594769E-02 -0.24759435092E-02  0.29496733366E-01  0.51100000000E-03 0.  1.
         11    1    4    4    0    0 -0.97883393020E-01  0.13026726634E-01  0.68055670522E-02  0.98981973610E-01  0.51100000000E-03 0. -1.
</event>
<event>
 8    1  0.1099478E+005  0.1043930E+01  0.7957747E-01            NaN
         13   -1    0    0    0    0  0.00000000000E+00  0.00000000000E+00  0.74505805969E-08  0.10566000000E+00  0.10566000000E+00 0.  1.
     999900   -1    0    0    0    0 -0.00000000000E+00 -0.00000000000E+00 -0.74505805969E-08  0.93827000000E+00  0.93827000000E+00 0.  1.
     999902    2    1    2    0    0 -0.15653504552E-01 -0.14941387879E-01  0.10318785799E-01  0.10199559595E+01  0.10196741660E+01 0.  0.
     999903    2    3    3    0    0  0.29917244876E-01  0.79559016993E-01  0.95755510903E-01  0.12961532037E+00  0.20157744938E-01 0.  0.
         14    1    1    2    0    0  0.15653504552E-01  0.14941387879E-01 -0.10318785799E-01  0.23974040479E-01  0.00000000000E+00 0. -1.
     999901    1    3    3    0    0 -0.45570749429E-01 -0.94500404872E-01 -0.85436725103E-01  0.89034063915E+00  0.88000000000E+00 0.  1.
        -11    1    4    4    0    0  0.24014782221E-01  0.51925000898E-01  0.76026519399E-01  0.95148348678E-01  0.51100000000E-03 0.  1.
         11    1    4    4    0    0  0.59024626551E-02  0.27634016095E-01  0.19728991504E-01  0.34466971693E-01  0.51100000000E-03 0. -1.
</event>
<event>
 8    1  0.1099478E+005  0.1043930E+01  0.7957747E-01            NaN
         13   -1    0    0    0    0  0.00000000000E+00  0.00000000000E+00  0.74505805969E-08  0.10566000000E+00  0.10566000000E+00 0. -1.
     999900   -1    0    0    0    0 -0.00000000000E+00 -0.00000000000E+00 -0.74505805969E-08  0.93827000000E+00  0.93827000000E+00 0. -1.
     999902    2    1    2    0    0 -0.74780776103E-02 -0.69980931950E-02  0.21165430918E-01  0.10204168033E+01  0.10201458631E+01 0.  0.
     999903    2    3    3    0    0  0.37265039586E-01  0.11900055857E+00 -0.28214799731E-01  0.12894834398E+00  0.16786434291E-01 0.  0.
         14    1    1    2    0    0  0.74780776103E-02  0.69980931950E-02 -0.21165430918E-01  0.23513196700E-01  0.00000000000E+00 0.  1.
     999901    1    3    3    0    0 -0.44743117196E-01 -0.12599865176E+00  0.49380230649E-01  0.89146845932E+00  0.88000000000E+00 0. -1.
        -11    1    4    4    0    0  0.18548545071E-01  0.75442931174E-01 -0.24172693166E-01  0.81365008476E-01  0.51100000000E-03 0. -1.
         11    1    4    4    0    0  0.18716494515E-01  0.43557627395E-01 -0.40421065656E-02  0.47583335504E-01  0.51100000000E-03 0.  1.
</event>
<event>
 8    1  0.1099478E+005  0.1043930E+01  0.7957747E-01            NaN
         13   -1    0    0    0    0  0.00000000000E+00  0.00000000000E+00  0.74505805969E-08  0.10566000000E+00  0.10566000000E+00 0.  1.
     999900   -1    0    0    0    0 -0.00000000000E+00 -0.00000000000E+00 -0.74505805969E-08  0.93827000000E+00  0.93827000000E+00 0.  1.
     999902    2    1    2    0    0 -0.17267097421E-01 -0.48769329723E-02 -0.12116290644E-01  0.10222795583E+01  0.10220502696E+01 0.  0.
     999903    2    3    3    0    0  0.89681944598E-01  0.86749452617E-01  0.30925814155E-01  0.13004297814E+00  0.19658368833E-01 0.  0.
         14    1    1    2    0    0  0.17267097421E-01  0.48769329723E-02  0.12116290644E-01  0.21650441740E-01  0.00000000000E+00 0. -1.
     999901    1    3    3    0    0 -0.10694904202E+00 -0.91626385589E-01 -0.43042104799E-01  0.89223658012E+00  0.88000000000E+00 0.  1.
        -11    1    4    4    0    0  0.66513465772E-01  0.71062754893E-01  0.30685144464E-01  0.10205780457E+00  0.51100000000E-03 0. -1.
         11    1    4    4    0    0  0.23168478827E-01  0.15686697724E-01  0.24066969076E-03  0.27985173566E-01  0.51100000000E-03 0.  1.
</event>
<event>
 8    1  0.1099478E+005  0.1043930E+01  0.7957747E-01            NaN
         13   -1    0    0    0    0  0.00000000000E+00  0.00000000000E+00  0.74505805969E-08  0.10566000000E+00  0.10566000000E+00 0.  1.
     999900   -1    0    0    0    0 -0.00000000000E+00 -0.00000000000E+00 -0.74505805969E-08  0.93827000000E+00  0.93827000000E+00 0.  1.
     999902    2    1    2    0    0 -0.17628353568E-01 -0.54859460415E-02 -0.14026307570E-01  0.10207439750E+01  0.10204806077E+01 0.  0.
     999903    2    3    3    0    0 -0.72885511075E-01 -0.54838213172E-01  0.91532566704E-01  0.13134435967E+00  0.23528763268E-01 0.  0.
         14    1    1    2    0    0  0.17628353568E-01  0.54859460415E-02  0.14026307570E-01  0.23186025049E-01  0.00000000000E+00 0.  1.
     999901    1    3    3    0    0  0.55257157506E-01  0.49352267131E-01 -0.10555887427E+00  0.88939961528E+00  0.88000000000E+00 0.  1.
        -11    1    4    4    0    0 -0.37017355047E-01 -0.22103243290E-01  0.58245911677E-01  0.72468512381E-01  0.51100000000E-03 0. -1.
         11    1    4    4    0    0 -0.35868156028E-01 -0.32734969882E-01  0.33286655027E-01  0.58875847288E-01  0.51100000000E-03 0.  1.
</event>
<event>
 7    1  0.1441424E+005  0.1043930E+01  0.7957747E-01            NaN
         13   -1    0    0    0    0  0.00000000000E+00  0.00000000000E+00  0.74505805969E-08  0.10566000000E+00  0.10566000000E+00 0.  1.
     999900   -1    0    0    0    0 -0.00000000000E+00 -0.00000000000E+00 -0.74505805969E-08  0.93827000000E+00  0.93827000000E+00 0.  1.
     999903    2    1    2    0    0  0.49488847628E-01  0.18050215161E-01 -0.67443334483E-01  0.87877284474E-01  0.19971415907E-01 0.  0.
         14    1    1    2    0    0 -0.54306909819E-02 -0.55905473472E-01  0.48061955959E-01  0.73924731851E-01  0.00000000000E+00 0.  1.
     999901    1    1    2    0    0 -0.44058156646E-01  0.37855258311E-01  0.19381378524E-01  0.88212798367E+00  0.88000000000E+00 0. -1.
        -11    1    3    3    0    0  0.12281561644E-01  0.14335005781E-01 -0.20782233842E-01  0.28080091018E-01  0.51100000000E-03 0. -1.
         11    1    3    3    0    0  0.37207285984E-01  0.37152093801E-02 -0.46661100642E-01  0.59797193455E-01  0.51100000000E-03 0.  1.
</event>
<event>
 8    1  0.1099478E+005  0.1043930E+01  0.7957747E-01            NaN
         13   -1    0    0    0    0  0.00000000000E+00  0.00000000000E+00  0.74505805969E-08  0.10566000000E+00  0.10566000000E+00 0. -1.
     999900   -1    0    0    0    0 -0.00000000000E+00 -0.00000000000E+00 -0.74505805969E-08  0.93827000000E+00  0.93827000000E+00 0. -1.
     999902    2    1    2    0    0 -0.21049302547E-01  0.11615038192E-01  0.92839988661E-02  0.10181584093E+01  0.10178321923E+01 0.  0.
     999903    2    3    3    0    0 -0.12340821848E+00  0.28972197476E-01 -0.27595255644E-01  0.13128823956E+00  0.20152595296E-01 0.  0.
         14    1    1    2    0    0  0.21049302547E-01 -0.11615038192E-01 -0.92839988661E-02  0.25771590654E-01  0.00000000000E+00 0. -1.
     999901    1    3    3    0    0  0.10235891593E+00 -0.17357159285E-01  0.36879254510E-01  0.88687016979E+00  0.88000000000E+00 0.  1.
        -11    1    4    4    0    0 -0.94099336745E-01  0.22454482483E-01 -0.29662401652E-01  0.10118798423E+00  0.51100000000E-03 0. -1.
         11    1    4    4    0    0 -0.29308881733E-01  0.65177149930E-02  0.20671460084E-02  0.30100255328E-01  0.51100000000E-03 0.  1.
</event>
<event>
 8    1  0.1099478E+005  0.1043930E+01  0.7957747E-01            NaN
         13   -1    0    0    0    0  0.00000000000E+00  0.00000000000E+00  0.74505805969E-08  0.10566000000E+00  0.10566000000E+00 0.  1.
     999900   -1    0    0    0    0 -0.00000000000E+00 -0.00000000000E+00 -0.74505805969E-08  0.93827000000E+00  0.93827000000E+00 0. -1.
     999902    2    1    2    0    0 -0.17274128927E-01  0.31167150063E-02  0.16564840903E-01  0.10197948929E+01  0.10195092545E+01 0.  0.
     999903    2    3    3    0    0 -0.76070863431E-01 -0.93659405877E-02  0.10692953282E+00  0.13312773421E+00  0.20361029464E-01 0.  0.
         14    1    1    2    0    0  0.17274128927E-01 -0.31167150063E-02 -0.16564840903E-01  0.24135107143E-01  0.00000000000E+00 0. -1.
     999901    1    3    3    0    0  0.58796734503E-01  0.12482655594E-01 -0.90364691916E-01  0.88666715865E+00  0.88000000000E+00 0. -1.
        -11    1    4    4    0    0 -0.66328497378E-01 -0.94838129010E-02  0.79253882105E-01  0.10378271157E+00  0.51100000000E-03 0. -1.
         11    1    4    4    0    0 -0.97423660532E-02  0.11787231326E-03  0.27675650714E-01  0.29345022638E-01  0.51100000000E-03 0.  1.
</event>
<event>
 8    1  0.1099478E+005  0.1043930E+01  0.7957747E-01            NaN
         13   -1    0    0    0    0  0.00000000000E+00  0.00000000000E+00  0.74505805969E-08  0.10566000000E+00  0.10566000000E+00 0. -1.
     999900   -1    0    0    0    0 -0.00000000000E+00 -0.00000000000E+00 -0.74505805969E-08  0.93827000000E+00  0.93827000000E+00 0. -1.
     999902    2    1    2    0    0  0.22430818541E-01 -0.34203496599E-02  0.75795791660E-02  0.10200074075E+01  0.10197268364E+01 0.  0.
     999903    2    3    3    0    0 -0.56758302114E-02  0.10699844377E+00  0.71019006184E-01  0.13039690027E+00  0.21880821341E-01 0.  0.
         14    1    1    2    0    0 -0.22430818541E-01  0.34203496599E-02 -0.75795791660E-02  0.23922592513E-01  0.00000000000E+00 0.  1.
     999901    1    3    3    0    0  0.28106648753E-01 -0.11041879343E+00 -0.63439427018E-01  0.88961050722E+00  0.88000000000E+00 0.  1.
        -11    1    4    4    0    0  0.52672941243E-03  0.44651058938E-01  0.17393121082E-01  0.47924693949E-01  0.51100000000E-03 0. -1.
         11    1    4    4    0    0 -0.62025596239E-02  0.62347384835E-01  0.53625885102E-01  0.82472206322E-01  0.51100000000E-03 0.  1.
</event>
<event>
 8    1  0.1099478E+005  0.1043930E+01  0.7957747E-01            NaN
         13   -1    0    0    0    0  0.00000000000E+00  0.00000000000E+00  0.74505805969E-08  0.10566000000E+00  0.10566000000E+00 0. -1.
     999900   -1    0    0    0    0 -0.00000000000E+00 -0.00000000000E+00 -0.74505805969E-08  0.93827000000E+00  0.93827000000E+00 0. -1.
     999902    2    1    2    0    0 -0.77495361857E-02  0.22730231975E-01 -0.34029306235E-02  0.10196751305E+01  0.10193866161E+01 0.  0.
     999903    2    3    3    0    0  0.76940671514E-02  0.11852755203E+00 -0.55998713621E-01  0.13278057771E+00  0.19668417078E-01 0.  0.
         14    1    1    2    0    0  0.77495361857E-02 -0.22730231975E-01  0.34029306235E-02  0.24254869481E-01  0.00000000000E+00 0.  1.
     999901    1    3    3    0    0 -0.15443603337E-01 -0.95797320054E-01  0.52595782998E-01  0.88689455281E+00  0.88000000000E+00 0.  1.
        -11    1    4    4    0    0 -0.89481017099E-03  0.78568297775E-01 -0.44579826332E-01  0.90340467882E-01  0.51100000000E-03 0. -1.
         11    1    4    4    0    0  0.85888773223E-02  0.39959254254E-01 -0.11418887290E-01  0.42440109827E-01  0.51100000000E-03 0.  1.
</event>
<event>
 8    1  0.1099478E+005  0.1043930E+01  0.7957747E-01            NaN
         13   -1    0    0    0    0  0.00000000000E+00  0.00000000000E+00  0.74505805969E-08  0.10566000000E+00  0.10566000000E+00 0. -1.
     999900   -1    0    0    0    0 -0.00000000000E+00 -0.00000000000E+00 -0.74505805969E-08  0.93827000000E+00  0.93827000000E+00 0.  1.
     999902    2    1    2    0    0 -0.10704925987E-01 -0.23750940340E-01 -0.16813697179E-01  0.10129235004E+01  0.10124488207E+01 0.  0.
     999903    2    3    3    0    0  0.26885326371E-01 -0.81779920957E-02  0.11721104608E+00  0.12184652523E+00  0.17845057024E-01 0.  0.
         14    1    1    2    0    0  0.10704925987E-01  0.23750940340E-01  0.16813697179E-01  0.31006499645E-01  0.00000000000E+00 0. -1.
     999901    1    3    3    0    0 -0.37590252357E-01 -0.15572948244E-01 -0.13402474325E+00  0.89107697512E+00  0.88000000000E+00 0.  1.
        -11    1    4    4    0    0  0.70113545094E-02  0.23667279854E-02  0.10931480267E-01  0.13210559233E-01  0.51100000000E-03 0.  1.
         11    1    4    4    0    0  0.19873971861E-01 -0.10544720081E-01  0.10627956581E+00  0.10863596600E+00  0.51100000000E-03 0. -1.
</event>
<event>
 8    1  0.1099478E+005  0.1043930E+01  0.7957747E-01            NaN
         13   -1    0    0    0    0  0.00000000000E+00  0.00000000000E+00  0.74505805969E-08  0.10566000000E+00  0.10566000000E+00 0.  1.
     999900   -1    0    0    0    0 -0.00000000000E+00 -0.00000000000E+00 -0.74505805969E-08  0.93827000000E+00  0.93827000000E+00 0. -1.
     999902    2    1    2    0    0  0.92070032221E-02 -0.85677151580E-02  0.19940413295E-01  0.10203547008E+01  0.10200823107E+01 0.  0.
     999903    2    3    3    0    0  0.88758785452E-01 -0.94013359463E-01 -0.16685849789E-01  0.13188921054E+00  0.19992811730E-01 0.  0.
         14    1    1    2    0    0 -0.92070032221E-02  0.85677151580E-02 -0.19940413295E-01  0.23575299229E-01  0.00000000000E+00 0. -1.
     999901    1    3    3    0    0 -0.79551782230E-01  0.85445644305E-01  0.36626263084E-01  0.88846549023E+00  0.88000000000E+00 0.  1.
        -11    1    4    4    0    0  0.10194322768E-01 -0.15963454066E-01  0.36408273463E-02  0.19294372940E-01  0.51100000000E-03 0. -1.
         11    1    4    4    0    0  0.78564462685E-01 -0.78049905397E-01 -0.20326677135E-01  0.11259483760E+00  0.51100000000E-03 0.  1.
</event>
<event>
 8    1  0.1099478E+005  0.1043930E+01  0.7957747E-01            NaN
         13   -1    0    0    0    0  0.00000000000E+00  0.00000000000E+00  0.74505805969E-08  0.10566000000E+00  0.10566000000E+00 0.  1.
     999900   -1    0    0    0    0 -0.00000000000E+00 -0.00000000000E+00 -0.74505805969E-08  0.93827000000E+00  0.93827000000E+00 0. -1.
     999902    2    1    2    0    0  0.17640320076E-01  0.15693988093E-01 -0.28270451442E-02  0.10201502957E+01  0.10198731055E+01 0.  0.
     999903    2    3    3    0    0  0.50731306453E-01  0.34934445223E-01 -0.11532632746E+00  0.13216307891E+00  0.19308979902E-01 0.  0.
         14    1    1    2    0    0 -0.17640320076E-01 -0.15693988093E-01  0.28270451442E-02  0.23779704348E-01  0.00000000000E+00 0.  1.
     999901    1    3    3    0    0 -0.33090986377E-01 -0.19240457130E-01  0.11249928232E+00  0.88798721674E+00  0.88000000000E+00 0.  1.
        -11    1    4    4    0    0  0.14862150073E-01  0.76972490312E-03 -0.23343509975E-01  0.27688563707E-01  0.51100000000E-03 0. -1.
         11    1    4    4    0    0  0.35869156379E-01  0.34164720320E-01 -0.91982817485E-01  0.10447451521E+00  0.51100000000E-03 0.  1.
</event>
<event>
 8    1  0.1099478E+005  0.1043930E+01  0.7957747E-01            NaN
         13   -1    0    0    0    0  0.00000000000E+00  0.00000000000E+00  0.74505805969E-08  0.10566000000E+00  0.10566000000E+00 0. -1.
     999900   -1    0    0    0    0 -0.00000000000E+00 -0.00000000000E+00 -0.74505805969E-08  0.93827000000E+00  0.93827000000E+00 0.  1.
     999902    2    1    2    0    0  0.88051428886E-02  0.18801846775E-01 -0.11050790609E-01  0.10204106472E+01  0.10201395635E+01 0.  0.
     999903    2    3    3    0    0  0.67690906498E-01 -0.10771920100E+00  0.10328966277E-01  0.12915748300E+00  0.19735318186E-01 0.  0.
         14    1    1    2    0    0 -0.88051428886E-02 -0.18801846775E-01  0.11050790609E-01  0.23519352808E-01  0.00000000000E+00 0.  1.
     999901    1    3    3    0    0 -0.58885763609E-01  0.12652104777E+00 -0.21379756887E-01  0.89125316420E+00  0.88000000000E+00 0. -1.
        -11    1    4    4    0    0  0.16415050929E-01 -0.20033931009E-01  0.94509515463E-02  0.27575240612E-01  0.51100000000E-03 0.  1.
         11    1    4    4    0    0  0.51275855569E-01 -0.87685269986E-01  0.87801473087E-03  0.10158224238E+00  0.51100000000E-03 0. -1.
</event>
<event>
 8    1  0.1099478E+005  0.1043930E+01  0.7957747E-01            NaN
         13   -1    0    0    0    0  0.00000000000E+00  0.00000000000E+00  0.74505805969E-08  0.10566000000E+00  0.10566000000E+00 0. -1.
     999900   -1    0    0    0    0 -0.00000000000E+00 -0.00000000000E+00 -0.74505805969E-08  0.93827000000E+00  0.93827000000E+00 0.  1.
     999902    2    1    2    0    0 -0.87763319624E-02  0.45261628395E-02 -0.19382139422E-01  0.10221773569E+01  0.10219458750E+01 0.  0.
     999903    2    3    3    0    0 -0.55740037152E-01  0.11721178814E+00 -0.24849109481E-01  0.13373291435E+00  0.20529469534E-01 0.  0.
         14    1    1    2    0    0  0.87763319624E-02 -0.45261628395E-02  0.19382139422E-01  0.21752643088E-01  0.00000000000E+00 0. -1.
     999901    1    3    3    0    0  0.46963705190E-01 -0.11268562530E+00  0.54669700590E-02  0.88844444256E+00  0.88000000000E+00 0. -1.
        -11    1    4    4    0    0 -0.46156709815E-01  0.83844902183E-01 -0.10954473580E-01  0.96336239783E-01  0.51100000000E-03 0. -1.
         11    1    4    4    0    0 -0.95833273370E-02  0.33366885952E-01 -0.13894635900E-01  0.37396674569E-01  0.51100000000E-03 0.  1.
</event>
<event>
 8    1  0.1099478E+005  0.1043930E+01  0.7957747E-01            NaN
         13   -1    0    0    0    0  0.00000000000E+00  0.00000000000E+00  0.74505805969E-08  0.10566000000E+00  0.10566000000E+00 0.  1.
     999900   -1    0    0    0    0 -0.00000000000E+00 -0.00000000000E+00 -0.74505805969E-08  0.93827000000E+00  0.93827000000E+00 0. -1.
     999902    2    1    2    0    0 -0.79491174735E-02  0.20134273565E-01 -0.10250391984E-01  0.10199790506E+01  0.10196978061E+01 0.  0.
     999903    2    3    3    0    0  0.12529390512E+00 -0.20160126907E-01 -0.13175037290E-01  0.12903242184E+00  0.19255931603E-01 0.  0.
         14    1    1    2    0    0  0.79491174735E-02 -0.20134273565E-01  0.10250391984E-01  0.23950949384E-01  0.00000000000E+00 0.  1.
     999901    1    3    3    0    0 -0.13324302259E+00  0.40294400471E-01  0.29246453060E-02  0.89094662878E+00  0.88000000000E+00 0. -1.
        -11    1    4    4    0    0  0.22832512270E-01  0.15192796130E-02 -0.77342849217E-02  0.24160134755E-01  0.51100000000E-03 0. -1.
         11    1    4    4    0    0  0.10246139285E+00 -0.21679406520E-01 -0.54407523678E-02  0.10487228708E+00  0.51100000000E-03 0.  1.
</event>
<event>
 8    1  0.1099478E+005  0.1043930E+01  0.7957747E-01            NaN
         13   -1    0    0    0    0  0.00000000000E+00  0.00000000000E+00  0.74505805969E-08  0.10566000000E+00  0.10566000000E+00 0.  1.
     999900   -1    0    0    0    0 -0.00000000000E+00 -0.00000000000E+00 -0.74505805969E-08  0.93827000000E+00  0.93827000000E+00 0.  1.
     999902    2    1    2    0    0 -0.16712784371E-01 -0.83138000152E-02  0.17761556672E-01  0.10181635620E+01  0.10178374770E+01 0.  0.
     999903    2    3    3    0    0 -0.47532155718E-01 -0.11157769376E+00 -0.40143736839E-01  0.12970068240E+00  0.22402228327E-01 0.  0.
         14    1    1    2    0    0  0.16712784371E-01  0.83138000152E-02 -0.17761556672E-01  0.25766438007E-01  0.00000000000E+00 0.  1.
     999901    1    3    3    0    0  0.30819371347E-01  0.10326389375E+00  0.57905293512E-01  0.88846287960E+00  0.88000000000E+00 0. -1.
        -11    1    4    4    0    0 -0.20887918937E-01 -0.53811184151E-01 -0.30716057025E-01  0.65388729743E-01  0.51100000000E-03 0. -1.
         11    1    4    4    0    0 -0.26644236782E-01 -0.57766509613E-01 -0.94276798142E-02  0.64311952655E-01  0.51100000000E-03 0.  1.
</event>
<event>
 8    1  0.1099478E+005  0.1043930E+01  0.7957747E-01            NaN
         13   -1    0    0    0    0  0.00000000000E+00  0.00000000000E+00  0.74505805969E-08  0.10566000000E+00  0.10566000000E+00 0.  1.
     999900   -1    0    0    0    0 -0.00000000000E+00 -0.00000000000E+00 -0.74505805969E-08  0.93827000000E+00  0.93827000000E+00 0. -1.
     999902    2    1    2    0    0 -0.23023323295E-02  0.12157164760E-01 -0.21230338649E-01  0.10193571559E+01  0.10190609337E+01 0.  0.
     999903    2    3    3    0    0  0.98229734933E-01  0.20257939708E-02  0.79295620777E-01  0.12788937197E+00  0.20364462254E-01 0.  0.
         14    1    1    2    0    0  0.23023323295E-02 -0.12157164760E-01  0.21230338649E-01  0.24572844123E-01  0.00000000000E+00 0. -1.
     999901    1    3    3    0    0 -0.10053206726E+00  0.10131370789E-01 -0.10052595943E+00  0.89146778390E+00  0.88000000000E+00 0. -1.
        -11    1    4    4    0    0  0.21123612421E-01  0.77181632166E-02  0.23575395788E-01  0.32585847430E-01  0.51100000000E-03 0.  1.
         11    1    4    4    0    0  0.77106122511E-01 -0.56923692458E-02  0.55720224989E-01  0.95303524542E-01  0.51100000000E-03 0. -1.
</event>
<event>
 8    1  0.1099478E+005  0.1043930E+01  0.7957747E-01            NaN
         13   -1    0    0    0    0  0.00000000000E+00  0.00000000000E+00  0.74505805969E-08  0.10566000000E+00  0.10566000000E+00 0.  1.
     999900   -1    0    0    0    0 -0.00000000000E+00 -0.00000000000E+00 -0.74505805969E-08  0.93827000000E+00  0.93827000000E+00 0. -1.
     999902    2    1    2    0    0 -0.23424103777E-02  0.23351199610E-01 -0.34234916575E-02  0.10202132189E+01  0.10199375110E+01 0.  0.
     999903    2    3    3    0    0 -0.10158426235E+00 -0.42054951552E-01 -0.66708529625E-01  0.12997060827E+00  0.18824180774E-01 0.  0.
         14    1    1    2    0    0  0.23424103777E-02 -0.23351199610E-01  0.34234916575E-02  0.23716781079E-01  0.00000000000E+00 0. -1.
     999901    1    3    3    0    0  0.99241851971E-01  0.65406151162E-01  0.63285037968E-01  0.89024261065E+00  0.88000000000E+00 0. -1.
        -11    1    4    4    0    0 -0.97627709403E-01 -0.42367895714E-01 -0.67308519752E-01  0.12592420809E+00  0.51100000000E-03 0.  1.
         11    1    4    4    0    0 -0.39565529454E-02  0.31294416204E-03  0.59999012673E-03  0.40464001792E-02  0.51100000000E-03 0. -1.
</event>
<event>
 8    1  0.1099478E+005  0.1043930E+01  0.7957747E-01            NaN
         13   -1    0    0    0    0  0.00000000000E+00  0.00000000000E+00  0.74505805969E-08  0.10566000000E+00  0.10566000000E+00 0. -1.
     999900   -1    0    0    0    0 -0.00000000000E+00 -0.00000000000E+00 -0.74505805969E-08  0.93827000000E+00  0.93827000000E+00 0. -1.
     999902    2    1    2    0    0  0.15359247926E-01  0.10900251242E-03 -0.17849099104E-01  0.10203819912E+01  0.10201102388E+01 0.  0.
     999903    2    3    3    0    0  0.71641875898E-01  0.96328725723E-01  0.48292599662E-01  0.13088736299E+00  0.19686158247E-01 0.  0.
         14    1    1    2    0    0 -0.15359247926E-01 -0.10900251242E-03  0.17849099104E-01  0.23548008774E-01  0.00000000000E+00 0. -1.
     999901    1    3    3    0    0 -0.56282627972E-01 -0.96219723210E-01 -0.66141698766E-01  0.88949462824E+00  0.88000000000E+00 0. -1.
        -11    1    4    4    0    0  0.81666965554E-02  0.60954143467E-02 -0.58621929042E-03  0.10220263340E-01  0.51100000000E-03 0.  1.
         11    1    4    4    0    0  0.63475179343E-01  0.90233311376E-01  0.48878818953E-01  0.12066709965E+00  0.51100000000E-03 0. -1.
</event>
<event>
 8    1  0.1099478E+005  0.1043930E+01  0.7957747E-01            NaN
         13   -1    0    0    0    0  0.00000000000E+00  0.00000000000E+00  0.74505805969E-08  0.10566000000E+00  0.10566000000E+00 0.  1.
     999900   -1    0    0    0    0 -0.00000000000E+00 -0.00000000000E+00 -0.74505805969E-08  0.93827000000E+00  0.93827000000E+00 0.  1.
     999902    2    1    2    0    0  0.19227254610E-01  0.11108799493E-01 -0.78471115473E-02  0.10203785689E+01  0.10201067366E+01 0.  0.
     999903    2    3    3    0    0  0.77907938140E-01 -0.10799654522E-01 -0.10501515587E+00  0.13281728551E+00  0.20639016571E-01 0.  0.
         14    1    1    2    0    0 -0.19227254610E-01 -0.11108799493E-01  0.78471115473E-02  0.23551431074E-01  0.00000000000E+00 0.  1.
     999901    1    3    3    0    0 -0.58680683531E-01  0.21908454015E-01  0.97168044325E-01  0.88756128341E+00  0.88000000000E+00 0. -1.
        -11    1    4    4    0    0  0.40013348112E-01 -0.14877035157E-01 -0.48055631564E-01  0.64280627316E-01  0.51100000000E-03 0.  1.
         11    1    4    4    0    0  0.37894590028E-01  0.40773806352E-02 -0.56959524308E-01  0.68536658196E-01  0.51100000000E-03 0. -1.
</event>
<event>
 8    1  0.1099478E+005  0.1043930E+01  0.7957747E-01            NaN
         13   -1    0    0    0    0  0.00000000000E+00  0.00000000000E+00  0.74505805969E-08  0.10566000000E+00  0.10566000000E+00 0.  1.
     999900   -1    0    0    0    0 -0.00000000000E+00 -0.00000000000E+00 -0.74505805969E-08  0.93827000000E+00  0.93827000000E+00 0. -1.
     999902    2    1    2    0    0 -0.17527468902E-01  0.39901740736E-02 -0.15976888152E-01  0.10198801640E+01  0.10195965645E+01 0.  0.
     999903    2    3    3    0    0  0.28228828745E-01  0.86065744931E-01  0.89206500075E-01  0.12864866590E+00  0.19710412427E-01 0.  0.
         14    1    1    2    0    0  0.17527468902E-01 -0.39901740736E-02  0.15976888152E-01  0.24049835972E-01  0.00000000000E+00 0.  1.
     999901    1    3    3    0    0 -0.45756297647E-01 -0.82075570857E-01 -0.10518338823E+00  0.89123149813E+00  0.88000000000E+00 0. -1.
        -11    1    4    4    0    0  0.60605369236E-02  0.46595747991E-01  0.39214105375E-01  0.61203766388E-01  0.51100000000E-03 0.  1.
         11    1    4    4    0    0  0.22168291821E-01  0.39469996940E-01  0.49992394700E-01  0.67444899507E-01  0.51100000000E-03 0. -1.
</event>
<event>
 8    1  0.1099478E+005  0.1043930E+01  0.7957747E-01            NaN
         13   -1    0    0    0    0  0.00000000000E+00  0.00000000000E+00  0.74505805969E-08  0.10566000000E+00  0.10566000000E+00 0.  1.
     999900   -1    0    0    0    0 -0.00000000000E+00 -0.00000000000E+00 -0.74505805969E-08  0.93827000000E+00  0.93827000000E+00 0.  1.
     999902    2    1    2    0    0  0.23031082830E-01  0.14691737315E-01 -0.50730587743E-03  0.10166072022E+01  0.10162399659E+01 0.  0.
     999903    2    3    3    0    0 -0.63295553712E-01  0.37082519147E-01 -0.99852529164E-01  0.12653804269E+00  0.25688680779E-01 0.  0.
         14    1    1    2    0    0 -0.23031082830E-01 -0.14691737315E-01  0.50730587743E-03  0.27322797823E-01  0.00000000000E+00 0.  1.
     999901    1    3    3    0    0  0.86326636541E-01 -0.22390781832E-01  0.99345223287E-01  0.89006915949E+00  0.88000000000E+00 0.  1.
        -11    1    4    4    0    0 -0.55912992264E-01  0.20492939042E-01 -0.75717482474E-01  0.96330792210E-01  0.51100000000E-03 0.  1.
         11    1    4    4    0    0 -0.73825614480E-02  0.16589580105E-01 -0.24135046690E-01  0.30207250476E-01  0.51100000000E-03 0. -1.
</event>
<event>
 8    1  0.1099478E+005  0.1043930E+01  0.7957747E-01            NaN
         13   -1    0    0    0    0  0.00000000000E+00  0.00000000000E+00  0.74505805969E-08  0.10566000000E+00  0.10566000000E+00 0. -1.
     999900   -1    0    0    0    0 -0.00000000000E+00 -0.00000000000E+00 -0.74505805969E-08  0.93827000000E+00  0.93827000000E+00 0. -1.
     999902    2    1    2    0    0  0.18732365136E-01 -0.89288290242E-02 -0.11945769046E-01  0.10199857546E+01  0.10197046693E+01 0.  0.
     999903    2    3    3    0    0  0.11867700193E+00 -0.40444771108E-01  0.37497506096E-01  0.13238966259E+00  0.20023723476E-01 0.  0.
         14    1    1    2    0    0 -0.18732365136E-01  0.89288290242E-02  0.11945769046E-01  0.23944245435E-01  0.00000000000E+00 0. -1.
     999901    1    3    3    0    0 -0.99944636790E-01  0.31515942084E-01 -0.49443275143E-01  0.88759609197E+00  0.88000000000E+00 0. -1.
        -11    1    4    4    0    0  0.55406547113E-01 -0.13750988061E-01  0.26117382061E-01  0.62780203109E-01  0.51100000000E-03 0.  1.
         11    1    4    4    0    0  0.63270454813E-01 -0.26693783047E-01  0.11380124035E-01  0.69609459484E-01  0.51100000000E-03 0. -1.
</event>
<event>
 8    1  0.1099478E+005  0.1043930E+01  0.7957747E-01            NaN
         13   -1    0    0    0    0  0.00000000000E+00  0.00000000000E+00  0.74505805969E-08  0.10566000000E+00  0.10566000000E+00 0.  1.
     999900   -1    0    0    0    0 -0.00000000000E+00 -0.00000000000E+00 -0.74505805969E-08  0.93827000000E+00  0.93827000000E+00 0.  1.
     999902    2    1    2    0    0 -0.10173392009E-01 -0.51582237392E-02  0.21621245130E-01  0.10194844806E+01  0.10191913573E+01 0.  0.
     999903    2    3    3    0    0 -0.16635896516E-01 -0.11831275565E+00 -0.46180826167E-01  0.12962896822E+00  0.19908277066E-01 0.  0.
         14    1    1    2    0    0  0.10173392009E-01  0.51582237392E-02 -0.21621245130E-01  0.24445519387E-01  0.00000000000E+00 0. -1.
     999901    1    3    3    0    0  0.64625045068E-02  0.11315453191E+00  0.67802071298E-01  0.88985551239E+00  0.88000000000E+00 0. -1.
        -11    1    4    4    0    0 -0.74854893259E-02 -0.47318699112E-01 -0.82422920807E-02  0.48613664086E-01  0.51100000000E-03 0. -1.
         11    1    4    4    0    0 -0.91504071897E-02 -0.70994056535E-01 -0.37938534087E-01  0.81015304139E-01  0.51100000000E-03 0.  1.
</event>
<event>
 8    1  0.1099478E+005  0.1043930E+01  0.7957747E-01            NaN
         13   -1    0    0    0    0  0.00000000000E+00  0.00000000000E+00  0.74505805969E-08  0.10566000000E+00  0.10566000000E+00 0. -1.
     999900   -1    0    0    0    0 -0.00000000000E+00 -0.00000000000E+00 -0.74505805969E-08  0.93827000000E+00  0.93827000000E+00 0. -1.
     999902    2    1    2    0    0  0.21562081076E-02 -0.22481047960E-01  0.10038790227E-01  0.10192151450E+01  0.10189154468E+01 0.  0.
     999903    2    3    3    0    0  0.11674035243E+00  0.50459577884E-01  0.62776406655E-02  0.12878603083E+00  0.19286111033E-01 0.  0.
         14    1    1    2    0    0 -0.21562081076E-02  0.22481047960E-01 -0.10038790227E-01  0.24714855047E-01  0.00000000000E+00 0.  1.
     999901    1    3    3    0    0 -0.11458414432E+00 -0.72940625844E-01  0.37611495614E-02  0.89042911412E+00  0.88000000000E+00 0.  1.
        -11    1    4    4    0    0  0.13779922904E-01  0.13335423246E-01  0.97963544290E-03  0.19207826400E-01  0.51100000000E-03 0. -1.
         11    1    4    4    0    0  0.10296042953E+00  0.37124154638E-01  0.52980052226E-02  0.10957820443E+00  0.51100000000E-03 0.  1.
</event>
<event>
 8    1  0.1099478E+005  0.1043930E+01  0.7957747E-01            NaN
         13   -1    0    0    0    0  0.00000000000E+00  0.00000000000E+00  0.74505805969E-08  0.10566000000E+00  0.10566000000E+00 0.  1.
     999900   -1    0    0    0    0 -0.00000000000E+00 -0.00000000000E+00 -0.74505805969E-08  0.93827000000E+00  0.93827000000E+00 0. -1.
     999902    2    1    2    0    0 -0.61214369611E-02 -0.22199500786E-01 -0.13108974725E-02  0.10208646954E+01  0.10206040946E+01 0.  0.
     999903    2    3    3    0    0 -0.70354808548E-01  0.79279441491E-01  0.71981818032E-01  0.12968810013E+00  0.20064701828E-01 0.  0.
         14    1    1    2    0    0  0.61214369611E-02  0.22199500786E-01  0.13108974725E-02  0.23065304633E-01  0.00000000000E+00 0.  1.
     999901    1    3    3    0    0  0.64233371587E-01 -0.10147894228E+00 -0.73292715504E-01  0.89117659524E+00  0.88000000000E+00 0. -1.
        -11    1    4    4    0    0 -0.55209706312E-01  0.49816241579E-01  0.44661311000E-01  0.86744817812E-01  0.51100000000E-03 0.  1.
         11    1    4    4    0    0 -0.15145102236E-01  0.29463199911E-01  0.27320507032E-01  0.42943282318E-01  0.51100000000E-03 0. -1.
</event>
<event>
 8    1  0.1099478E+005  0.1043930E+01  0.7957747E-01            NaN
         13   -1    0    0    0    0  0.00000000000E+00  0.00000000000E+00  0.74505805969E-08  0.10566000000E+00  0.10566000000E+00 0.  1.
     999900   -1    0    0    0    0 -0.00000000000E+00 -0.00000000000E+00 -0.74505805969E-08  0.93827000000E+00  0.93827000000E+00 0. -1.
     999902    2    1    2    0    0  0.32049493610E-02  0.23256078914E-01 -0.56491598166E-02  0.10197839876E+01  0.10194980880E+01 0.  0.
     999903    2    3    3    0    0  0.10564884399E+00  0.56321710896E-01  0.50461239928E-01  0.13145045538E+00  0.19976789758E-01 0.  0.
         14    1    1    2    0    0 -0.32049493610E-02 -0.23256078914E-01  0.56491598166E-02  0.24146012372E-01  0.00000000000E+00 0.  1.
     999901    1    3    3    0    0 -0.10244389463E+00 -0.33065631982E-01 -0.56110399744E-01  0.88833353225E+00  0.88000000000E+00 0. -1.
        -11    1    4    4    0    0  0.48775463480E-01  0.28880263807E-01  0.34335392639E-01  0.66274397650E-01  0.51100000000E-03 0.  1.
         11    1    4    4    0    0  0.56873380508E-01  0.27441447089E-01  0.16125847288E-01  0.65176057725E-01  0.51100000000E-03 0. -1.
</event>
<event>
 8    1  0.1099478E+005  0.1043930E+01  0.7957747E-01            NaN
         13   -1    0    0    0    0  0.00000000000E+00  0.00000000000E+00  0.74505805969E-08  0.10566000000E+00  0.10566000000E+00 0.  1.
     999900   -1    0    0    0    0 -0.00000000000E+00 -0.00000000000E+00 -0.74505805969E-08  0.93827000000E+00  0.93827000000E+00 0. -1.
     999902    2    1    2    0    0  0.18121719518E-01  0.14801983351E-01 -0.50405917427E-02  0.10199946079E+01  0.10197137330E+01 0.  0.
     999903    2    3    3    0    0  0.34020125736E-01  0.41692341318E-01 -0.11883681204E+00  0.13211768489E+00  0.20911109138E-01 0.  0.
         14    1    1    2    0    0 -0.18121719518E-01 -0.14801983351E-01  0.50405917427E-02  0.23935392091E-01  0.00000000000E+00 0. -1.
     999901    1    3    3    0    0 -0.15898406218E-01 -0.26890357967E-01  0.11379622030E+00  0.88787692302E+00  0.88000000000E+00 0.  1.
        -11    1    4    4    0    0  0.11458335295E-01  0.16461462701E-02 -0.28290400076E-01  0.30571409891E-01  0.51100000000E-03 0. -1.
         11    1    4    4    0    0  0.22561790440E-01  0.40046195048E-01 -0.90546411966E-01  0.10154627500E+00  0.51100000000E-03 0.  1.
</event>
<event>
 8    1  0.1099478E+005  0.1043930E+01  0.7957747E-01            NaN
         13   -1    0    0    0    0  0.00000000000E+00  0.00000000000E+00  0.74505805969E-08  0.10566000000E+00  0.10566000000E+00 0. -1.
     999900   -1    0    0    0    0 -0.00000000000E+00 -0.00000000000E+00 -0.74505805969E-08  0.93827000000E+00  0.93827000000E+00 0.  1.
     999902    2    1    2    0    0  0.12490300213E-01  0.16487039401E-01  0.11381583171E-01  0.10203213045E+01  0.10200481331E+01 0.  0.
     999903    2    3    3    0    0  0.71376579799E-01 -0.10353705157E+00  0.26732474148E-01  0.13009154416E+00  0.19865736756E-01 0.  0.
         14    1    1    2    0    0 -0.12490300213E-01 -0.16487039401E-01 -0.11381583171E-01  0.23608695497E-01  0.00000000000E+00 0.  1.
     999901    1    3    3    0    0 -0.58886279586E-01  0.12002409097E+00 -0.15350890977E-01  0.89022976034E+00  0.88000000000E+00 0.  1.
        -11    1    4    4    0    0  0.25752750889E-01 -0.54634217207E-01  0.14119844294E-01  0.62030097470E-01  0.51100000000E-03 0. -1.
         11    1    4    4    0    0  0.45623828910E-01 -0.48902834366E-01  0.12612629855E-01  0.68061446695E-01  0.51100000000E-03 0.  1.
</event>
<event>
 8    1  0.1099478E+005  0.1043930E+01  0.7957747E-01            NaN
         13   -1    0    0    0    0  0.00000000000E+00  0.00000000000E+00  0.74505805969E-08  0.10566000000E+00  0.10566000000E+00 0.  1.
     999900   -1    0    0    0    0 -0.00000000000E+00 -0.00000000000E+00 -0.74505805969E-08  0.93827000000E+00  0.93827000000E+00 0. -1.
     999902    2    1    2    0    0  0.17056663631E-01  0.74683092570E-03 -0.16987260037E-01  0.10198456787E+01  0.10195612555E+01 0.  0.
     999903    2    3    3    0    0  0.52611720461E-01  0.11769156919E-01  0.11555373947E+00  0.12914215319E+00  0.20457830778E-01 0.  0.
         14    1    1    2    0    0 -0.17056663631E-01 -0.74683092570E-03  0.16987260037E-01  0.24084321336E-01  0.00000000000E+00 0.  1.
     999901    1    3    3    0    0 -0.35555056831E-01 -0.11022325994E-01 -0.13254099951E+00  0.89070352547E+00  0.88000000000E+00 0. -1.
        -11    1    4    4    0    0  0.14769532216E-01  0.12757103111E-01  0.45537938730E-01  0.49546420118E-01  0.51100000000E-03 0.  1.
         11    1    4    4    0    0  0.37842188245E-01 -0.98794619168E-03  0.70015800744E-01  0.79595733075E-01  0.51100000000E-03 0. -1.
</event>
<event>
 8    1  0.1099478E+005  0.1043930E+01  0.7957747E-01            NaN
         13   -1    0    0    0    0  0.00000000000E+00  0.00000000000E+00  0.74505805969E-08  0.10566000000E+00  0.10566000000E+00 0.  1.
     999900   -1    0    0    0    0 -0.00000000000E+00 -0.00000000000E+00 -0.74505805969E-08  0.93827000000E+00  0.93827000000E+00 0. -1.
     999902    2    1    2    0    0  0.97569983594E-02  0.21808079080E-01  0.12082037635E-02  0.10200082299E+01  0.10197276783E+01 0.  0.
     999903    2    3    3    0    0 -0.42835622178E-01  0.63129435090E-01  0.10504342754E+00  0.13138277902E+00  0.20176641193E-01 0.  0.
         14    1    1    2    0    0 -0.97569983594E-02 -0.21808079080E-01 -0.12082037635E-02  0.23921770137E-01  0.00000000000E+00 0. -1.
     999901    1    3    3    0    0  0.52592620538E-01 -0.41321356010E-01 -0.10383522378E+00  0.88862545085E+00  0.88000000000E+00 0.  1.
        -11    1    4    4    0    0 -0.13263141193E-01  0.24947892043E-01  0.54996765024E-01  0.61832139829E-01  0.51100000000E-03 0.  1.
         11    1    4    4    0    0 -0.29572480986E-01  0.38181543047E-01  0.50046662519E-01  0.69550639187E-01  0.51100000000E-03 0. -1.
</event>
<event>
 8    1  0.1099478E+005  0.1043930E+01  0.7957747E-01            NaN
         13   -1    0    0    0    0  0.00000000000E+00  0.00000000000E+00  0.74505805969E-08  0.10566000000E+00  0.10566000000E+00 0.  1.
     999900   -1    0    0    0    0 -0.00000000000E+00 -0.00000000000E+00 -0.74505805969E-08  0.93827000000E+00  0.93827000000E+00 0. -1.
     999902    2    1    2    0    0 -0.24585701362E-01 -0.14344271485E-01  0.41517470461E-02  0.10151645374E+01  0.10147569099E+01 0.  0.
     999903    2    3    3    0    0  0.70691528227E-01  0.77274679466E-02  0.10028987030E+00  0.12454259127E+00  0.19894547804E-01 0.  0.
         14    1    1    2    0    0  0.24585701362E-01  0.14344271485E-01 -0.41517470461E-02  0.28765462615E-01  0.00000000000E+00 0.  1.
     999901    1    3    3    0    0 -0.95277229588E-01 -0.22071739432E-01 -0.96138123251E-01  0.89062194612E+00  0.88000000000E+00 0. -1.
        -11    1    4    4    0    0  0.32245081168E-01  0.42144004970E-02  0.62820806064E-01  0.70740520401E-01  0.51100000000E-03 0. -1.
         11    1    4    4    0    0  0.38446447059E-01  0.35130674496E-02  0.37469064233E-01  0.53802070869E-01  0.51100000000E-03 0.  1.
</event>
<event>
 8    1  0.1099478E+005  0.1043930E+01  0.7957747E-01            NaN
         13   -1    0    0    0    0  0.00000000000E+00  0.00000000000E+00  0.74505805969E-08  0.10566000000E+00  0.10566000000E+00 0. -1.
     999900   -1    0    0    0    0 -0.00000000000E+00 -0.00000000000E+00 -0.74505805969E-08  0.93827000000E+00  0.93827000000E+00 0.  1.
     999902    2    1    2    0    0  0.10106677274E-01 -0.81765683622E-02  0.19776662599E-01  0.10202631967E+01  0.10199886631E+01 0.  0.
     999903    2    3    3    0    0  0.30241626451E-01  0.33131322339E-01  0.12357417037E+00  0.13297199272E+00  0.19968344293E-01 0.  0.
         14    1    1    2    0    0 -0.10106677274E-01  0.81765683622E-02 -0.19776662599E-01  0.23666803318E-01  0.00000000000E+00 0.  1.
     999901    1    3    3    0    0 -0.20134949176E-01 -0.41307890701E-01 -0.10379750777E+00  0.88729120396E+00  0.88000000000E+00 0.  1.
        -11    1    4    4    0    0  0.94027586789E-02  0.12266251337E-02  0.40105781831E-01  0.41214698073E-01  0.51100000000E-03 0. -1.
         11    1    4    4    0    0  0.20838867772E-01  0.31904697206E-01  0.83468388541E-01  0.91757294644E-01  0.51100000000E-03 0.  1.
</event>
<event>
 8    1  0.1099478E+005  0.1043930E+01  0.7957747E-01            NaN
         13   -1    0    0    0    0  0.00000000000E+00  0.00000000000E+00  0.74505805969E-08  0.10566000000E+00  0.10566000000E+00 0.  1.
     999900   -1    0    0    0    0 -0.00000000000E+00 -0.00000000000E+00 -0.74505805969E-08  0.93827000000E+00  0.93827000000E+00 0. -1.
     999902    2    1    2    0    0  0.28912160970E-02  0.29263797791E-03  0.22628609056E-01  0.10211155591E+01  0.10208606596E+01 0.  0.
     999903    2    3    3    0    0  0.12622903430E+00  0.19279096031E-01  0.30729171485E-01  0.13227455973E+00  0.15710650060E-01 0.  0.
         14    1    1    2    0    0 -0.28912160970E-02 -0.29263797791E-03 -0.22628609056E-01  0.22814440938E-01  0.00000000000E+00 0. -1.
     999901    1    3    3    0    0 -0.12333781821E+00 -0.18986458053E-01 -0.81005624282E-02  0.88884099934E+00  0.88000000000E+00 0. -1.
        -11    1    4    4    0    0  0.71278402450E-01  0.31347173638E-02  0.18490356783E-01  0.73706115918E-01  0.51100000000E-03 0. -1.
         11    1    4    4    0    0  0.54950631855E-01  0.16144378667E-01  0.12238814702E-01  0.58568443808E-01  0.51100000000E-03 0.  1.
</event>
<event>
 8    1  0.1099478E+005  0.1043930E+01  0.7957747E-01            NaN
         13   -1    0    0    0    0  0.00000000000E+00  0.00000000000E+00  0.74505805969E-08  0.10566000000E+00  0.10566000000E+00 0.  1.
     999900   -1    0    0    0    0 -0.00000000000E+00 -0.00000000000E+00 -0.74505805969E-08  0.93827000000E+00  0.93827000000E+00 0.  1.
     999902    2    1    2    0    0  0.87368500414E-02  0.14940123691E-01 -0.15939589798E-01  0.10204010738E+01  0.10201297668E+01 0.  0.
     999903    2    3    3    0    0 -0.13345418163E-01  0.12989781732E+00 -0.11874181878E-01  0.13264016826E+00  0.20021860767E-01 0.  0.
         14    1    1    2    0    0 -0.87368500414E-02 -0.14940123691E-01  0.15939589798E-01  0.23528926186E-01  0.00000000000E+00 0.  1.
     999901    1    3    3    0    0  0.22082268204E-01 -0.11495769363E+00 -0.40654079201E-02  0.88776090556E+00  0.88000000000E+00 0.  1.
        -11    1    4    4    0    0 -0.11124199268E-01  0.33698925624E-01 -0.77406994922E-02  0.36325541252E-01  0.51100000000E-03 0.  1.
         11    1    4    4    0    0 -0.22212188946E-02  0.96198891699E-01 -0.41334823856E-02  0.96314627005E-01  0.51100000000E-03 0. -1.
</event>
<event>
 8    1  0.1099478E+005  0.1043930E+01  0.7957747E-01            NaN
         13   -1    0    0    0    0  0.00000000000E+00  0.00000000000E+00  0.74505805969E-08  0.10566000000E+00  0.10566000000E+00 0. -1.
     999900   -1    0    0    0    0 -0.00000000000E+00 -0.00000000000E+00 -0.74505805969E-08  0.93827000000E+00  0.93827000000E+00 0. -1.
     999902    2    1    2    0    0 -0.63599957963E-03  0.24072873180E-01  0.21914636986E-02  0.10197492177E+01  0.10194624843E+01 0.  0.
     999903    2    3    3    0    0  0.53690033872E-01  0.33503133588E-01  0.11298157446E+00  0.13109028631E+00  0.20365345563E-01 0.  0.
         14    1    1    2    0    0  0.63599957963E-03 -0.24072873180E-01 -0.21914636986E-02  0.24180782282E-01  0.00000000000E+00 0.  1.
     999901    1    3    3    0    0 -0.54326033452E-01 -0.94302604079E-02 -0.11079011077E+00  0.88865893140E+00  0.88000000000E+00 0. -1.
        -11    1    4    4    0    0  0.18835505703E-01  0.13435681771E-02  0.28142628420E-01  0.33894691412E-01  0.51100000000E-03 0. -1.
         11    1    4    4    0    0  0.34854528169E-01  0.32159565411E-01  0.84838946044E-01  0.97195594901E-01  0.51100000000E-03 0.  1.
</event>
<event>
 8    1  0.1099478E+005  0.1043930E+01  0.7957747E-01            NaN
         13   -1    0    0    0    0  0.00000000000E+00  0.00000000000E+00  0.74505805969E-08  0.10566000000E+00  0.10566000000E+00 0. -1.
     999900   -1    0    0    0    0 -0.00000000000E+00 -0.00000000000E+00 -0.74505805969E-08  0.93827000000E+00  0.93827000000E+00 0.  1.
     999902    2    1    2    0    0 -0.20292883514E-01  0.24971330184E-02 -0.97031827646E-02  0.10212984170E+01  0.10210476326E+01 0.  0.
     999903    2    3    3    0    0  0.26638083570E-01  0.12489309481E+00 -0.23948824019E-01  0.13147471228E+00  0.20104257491E-01 0.  0.
         14    1    1    2    0    0  0.20292883514E-01 -0.24971330184E-02  0.97031827646E-02  0.22631583028E-01  0.00000000000E+00 0. -1.
     999901    1    3    3    0    0 -0.46930967084E-01 -0.12239596179E+00  0.14245641255E-01  0.88982370469E+00  0.88000000000E+00 0. -1.
        -11    1    4    4    0    0  0.29429395091E-01  0.10062020223E+00 -0.19407866434E-01  0.10661820104E+00  0.51100000000E-03 0. -1.
         11    1    4    4    0    0 -0.27913115209E-02  0.24272892581E-01 -0.45409575853E-02  0.24856511240E-01  0.51100000000E-03 0.  1.
</event>
<event>
 8    1  0.1099478E+005  0.1043930E+01  0.7957747E-01            NaN
         13   -1    0    0    0    0  0.00000000000E+00  0.00000000000E+00  0.74505805969E-08  0.10566000000E+00  0.10566000000E+00 0. -1.
     999900   -1    0    0    0    0 -0.00000000000E+00 -0.00000000000E+00 -0.74505805969E-08  0.93827000000E+00  0.93827000000E+00 0. -1.
     999902    2    1    2    0    0  0.45477628066E-02  0.21622479656E-01  0.73885415850E-02  0.10206318387E+01  0.10203658882E+01 0.  0.
     999903    2    3    3    0    0  0.11246326927E-01 -0.34377335067E-01 -0.12260143314E+00  0.12929674821E+00  0.19448821404E-01 0.  0.
         14    1    1    2    0    0 -0.45477628066E-02 -0.21622479656E-01 -0.73885415850E-02  0.23298161296E-01  0.00000000000E+00 0. -1.
     999901    1    3    3    0    0 -0.66985641202E-02  0.55999814723E-01  0.12998997473E+00  0.89133509049E+00  0.88000000000E+00 0.  1.
        -11    1    4    4    0    0  0.90428352639E-03 -0.22492682107E-01 -0.93793029095E-01  0.96457928160E-01  0.51100000000E-03 0. -1.
         11    1    4    4    0    0  0.10342043400E-01 -0.11884652960E-01 -0.28808404049E-01  0.32838820054E-01  0.51100000000E-03 0.  1.
</event>
<event>
 8    1  0.1099478E+005  0.1043930E+01  0.7957747E-01            NaN
         13   -1    0    0    0    0  0.00000000000E+00  0.00000000000E+00  0.74505805969E-08  0.10566000000E+00  0.10566000000E+00 0.  1.
     999900   -1    0    0    0    0 -0.00000000000E+00 -0.00000000000E+00 -0.74505805969E-08  0.93827000000E+00  0.93827000000E+00 0. -1.
     999902    2    1    2    0    0 -0.14400610430E-02 -0.10312513090E-01 -0.19924528012E-01  0.10214487074E+01  0.10212012795E+01 0.  0.
     999903    2    3    3    0    0  0.26298924883E-01  0.23005804795E-01 -0.12764765442E+00  0.13382050051E+00  0.19826804389E-01 0.  0.
         14    1    1    2    0    0  0.14400610430E-02  0.10312513090E-01  0.19924528012E-01  0.22481292635E-01  0.00000000000E+00 0. -1.
     999901    1    3    3    0    0 -0.27738985926E-01 -0.33318317884E-01  0.10772312641E+00  0.88762820686E+00  0.88000000000E+00 0.  1.
        -11    1    4    4    0    0  0.19641905069E-02  0.90903936675E-02 -0.57970737702E-01  0.58714230405E-01  0.51100000000E-03 0.  1.
         11    1    4    4    0    0  0.24334734376E-01  0.13915411127E-01 -0.69676916720E-01  0.75106270102E-01  0.51100000000E-03 0. -1.
</event>
<event>
 8    1  0.1099478E+005  0.1043930E+01  0.7957747E-01            NaN
         13   -1    0    0    0    0  0.00000000000E+00  0.00000000000E+00  0.74505805969E-08  0.10566000000E+00  0.10566000000E+00 0.  1.
     999900   -1    0    0    0    0 -0.00000000000E+00 -0.00000000000E+00 -0.74505805969E-08  0.93827000000E+00  0.93827000000E+00 0. -1.
     999902    2    1    2    0    0  0.79787977916E-02  0.17454360672E-01 -0.13084784202E-01  0.10207022688E+01  0.10204379422E+01 0.  0.
     999903    2    3    3    0    0  0.72378445189E-01  0.11012948861E+00  0.43536886232E-02  0.13332405501E+00  0.19728290569E-01 0.  0.
         14    1    1    2    0    0 -0.79787977916E-02 -0.17454360672E-01  0.13084784202E-01  0.23227731234E-01  0.00000000000E+00 0. -1.
     999901    1    3    3    0    0 -0.64399647397E-01 -0.92675127938E-01 -0.17438472825E-01  0.88737821376E+00  0.88000000000E+00 0. -1.
        -11    1    4    4    0    0  0.31825931885E-01  0.63467293242E-01  0.76512460912E-02  0.71412813553E-01  0.51100000000E-03 0. -1.
         11    1    4    4    0    0  0.40552513304E-01  0.46662195369E-01 -0.32975574680E-02  0.61911241452E-01  0.51100000000E-03 0.  1.
</event>
<event>
 7    1  0.1533172E+005  0.1043930E+01  0.7957747E-01            NaN
         13   -1    0    0    0    0  0.00000000000E+00  0.00000000000E+00  0.74505805969E-08  0.10566000000E+00  0.10566000000E+00 0.  1.
     999900   -1    0    0    0    0 -0.00000000000E+00 -0.00000000000E+00 -0.74505805969E-08  0.93827000000E+00  0.93827000000E+00 0. -1.
     999903    2    1    2    0    0 -0.10557731676E+00  0.69735194828E-02  0.90189224347E-02  0.10784089256E+00  0.18791417125E-01 0.  0.
         14    1    1    2    0    0 -0.27824855064E-01 -0.55725480976E-02  0.34863800376E-01  0.44952868966E-01  0.00000000000E+00 0.  1.
     999901    1    1    2    0    0  0.13340217182E+00 -0.14009713852E-02 -0.43882722811E-01  0.89113623848E+00  0.88000000000E+00 0. -1.
        -11    1    3    3    0    0 -0.75694372546E-01  0.10561923132E-01  0.12829480825E-01  0.77498702922E-01  0.51100000000E-03 0. -1.
         11    1    3    3    0    0 -0.29882944212E-01 -0.35884036492E-02 -0.38105583898E-02  0.30342189634E-01  0.51100000000E-03 0.  1.
</event>
<event>
 8    1  0.1099478E+005  0.1043930E+01  0.7957747E-01            NaN
         13   -1    0    0    0    0  0.00000000000E+00  0.00000000000E+00  0.74505805969E-08  0.10566000000E+00  0.10566000000E+00 0.  1.
     999900   -1    0    0    0    0 -0.00000000000E+00 -0.00000000000E+00 -0.74505805969E-08  0.93827000000E+00  0.93827000000E+00 0.  1.
     999902    2    1    2    0    0  0.20503920920E-01 -0.81600072519E-02  0.22238666283E-02  0.10217502328E+01  0.10215094694E+01 0.  0.
     999903    2    3    3    0    0 -0.86318349306E-01  0.57455609092E-01  0.75579508759E-01  0.12984359149E+00  0.19876912866E-01 0.  0.
         14    1    1    2    0    0 -0.20503920920E-01  0.81600072519E-02 -0.22238666283E-02  0.22179767227E-01  0.00000000000E+00 0.  1.
     999901    1    3    3    0    0  0.10682227023E+00 -0.65615616344E-01 -0.73355642130E-01  0.89190664128E+00  0.88000000000E+00 0. -1.
        -11    1    4    4    0    0 -0.24652591326E-01  0.27772647981E-01  0.26807072491E-01  0.45803389520E-01  0.51100000000E-03 0. -1.
         11    1    4    4    0    0 -0.61665757980E-01  0.29682961111E-01  0.48772436268E-01  0.84040201975E-01  0.51100000000E-03 0.  1.
</event>
<event>
 8    1  0.1099478E+005  0.1043930E+01  0.7957747E-01            NaN
         13   -1    0    0    0    0  0.00000000000E+00  0.00000000000E+00  0.74505805969E-08  0.10566000000E+00  0.10566000000E+00 0. -1.
     999900   -1    0    0    0    0 -0.00000000000E+00 -0.00000000000E+00 -0.74505805969E-08  0.93827000000E+00  0.93827000000E+00 0. -1.
     999902    2    1    2    0    0 -0.16842460406E-01  0.50625157980E-02  0.15954080227E-01  0.10201848907E+01  0.10199085160E+01 0.  0.
     999903    2    3    3    0    0 -0.83018746127E-01  0.79772953918E-01 -0.59996787564E-01  0.13129261115E+00  0.19552463796E-01 0.  0.
         14    1    1    2    0    0  0.16842460406E-01 -0.50625157980E-02 -0.15954080227E-01  0.23745109278E-01  0.00000000000E+00 0.  1.
     999901    1    3    3    0    0  0.66176285721E-01 -0.74710438120E-01  0.75950867791E-01  0.88889227957E+00  0.88000000000E+00 0.  1.
        -11    1    4    4    0    0 -0.71273744569E-01  0.61903615392E-01 -0.55245419902E-01  0.10938154234E+00  0.51100000000E-03 0. -1.
         11    1    4    4    0    0 -0.11745001558E-01  0.17869338526E-01 -0.47513676626E-02  0.21911068815E-01  0.51100000000E-03 0.  1.
</event>
<event>
 8    1  0.1099478E+005  0.1043930E+01  0.7957747E-01            NaN
         13   -1    0    0    0    0  0.00000000000E+00  0.00000000000E+00  0.74505805969E-08  0.10566000000E+00  0.10566000000E+00 0. -1.
     999900   -1    0    0    0    0 -0.00000000000E+00 -0.00000000000E+00 -0.74505805969E-08  0.93827000000E+00  0.93827000000E+00 0. -1.
     999902    2    1    2    0    0 -0.14719677885E-01  0.37506759006E-02  0.17720301394E-01  0.10205902149E+01  0.10203233023E+01 0.  0.
     999903    2    3    3    0    0  0.62141815479E-01 -0.93356322757E-01 -0.60020408497E-01  0.12852459158E+00  0.18415020349E-01 0.  0.
         14    1    1    2    0    0  0.14719677885E-01 -0.37506759006E-02 -0.17720301394E-01  0.23339785094E-01  0.00000000000E+00 0. -1.
     999901    1    3    3    0    0 -0.76861493364E-01  0.97106998657E-01  0.77740709890E-01  0.89206562333E+00  0.88000000000E+00 0.  1.
        -11    1    4    4    0    0  0.86272516722E-02 -0.18669498109E-01 -0.18615408307E-01  0.27744804531E-01  0.51100000000E-03 0. -1.
         11    1    4    4    0    0  0.53514563807E-01 -0.74686824648E-01 -0.41405000190E-01  0.10077978705E+00  0.51100000000E-03 0.  1.
</event>
<event>
 8    1  0.1099478E+005  0.1043930E+01  0.7957747E-01            NaN
         13   -1    0    0    0    0  0.00000000000E+00  0.00000000000E+00  0.74505805969E-08  0.10566000000E+00  0.10566000000E+00 0. -1.
     999900   -1    0    0    0    0 -0.00000000000E+00 -0.00000000000E+00 -0.74505805969E-08  0.93827000000E+00  0.93827000000E+00 0. -1.
     999902    2    1    2    0    0  0.23869294708E-01 -0.36437131230E-02 -0.10386487168E-01  0.10176450425E+01  0.10173055261E+01 0.  0.
     999903    2    3    3    0    0  0.79976446975E-01 -0.10076483329E+00 -0.11373027788E-01  0.13052526604E+00  0.18913371352E-01 0.  0.
         14    1    1    2    0    0 -0.23869294708E-01  0.36437131230E-02  0.10386487168E-01  0.26284957502E-01  0.00000000000E+00 0.  1.
     999901    1    3    3    0    0 -0.56107152268E-01  0.97121120165E-01  0.98654062041E-03  0.88711977646E+00  0.88000000000E+00 0. -1.
        -11    1    4    4    0    0  0.49474356293E-01 -0.53847496528E-01 -0.14191809810E-01  0.74491163232E-01  0.51100000000E-03 0.  1.
         11    1    4    4    0    0  0.30502090682E-01 -0.46917336760E-01  0.28187820221E-02  0.56034102810E-01  0.51100000000E-03 0. -1.
</event>
<event>
 8    1  0.1099478E+005  0.1043930E+01  0.7957747E-01            NaN
         13   -1    0    0    0    0  0.00000000000E+00  0.00000000000E+00  0.74505805969E-08  0.10566000000E+00  0.10566000000E+00 0.  1.
     999900   -1    0    0    0    0 -0.00000000000E+00 -0.00000000000E+00 -0.74505805969E-08  0.93827000000E+00  0.93827000000E+00 0.  1.
     999902    2    1    2    0    0  0.20489720195E-01  0.48465451881E-02  0.17027114111E-01  0.10168515907E+01  0.10164909824E+01 0.  0.
     999903    2    3    3    0    0  0.10776440239E-01 -0.85639872686E-01  0.93605078256E-01  0.12885028204E+00  0.19752596018E-01 0.  0.
         14    1    1    2    0    0 -0.20489720195E-01 -0.48465451881E-02 -0.17027114111E-01  0.27078409275E-01  0.00000000000E+00 0. -1.
     999901    1    3    3    0    0  0.97132799564E-02  0.90486417874E-01 -0.76577964145E-01  0.88800130868E+00  0.88000000000E+00 0. -1.
        -11    1    4    4    0    0  0.55964920757E-02 -0.17238588677E-01  0.31340286999E-01  0.36207242001E-01  0.51100000000E-03 0.  1.
         11    1    4    4    0    0  0.51799481629E-02 -0.68401284009E-01  0.62264791257E-01  0.92643040042E-01  0.51100000000E-03 0. -1.
</event>
<event>
 8    1  0.1099478E+005  0.1043930E+01  0.7957747E-01            NaN
         13   -1    0    0    0    0  0.00000000000E+00  0.00000000000E+00  0.74505805969E-08  0.10566000000E+00  0.10566000000E+00 0.  1.
     999900   -1    0    0    0    0 -0.00000000000E+00 -0.00000000000E+00 -0.74505805969E-08  0.93827000000E+00  0.93827000000E+00 0.  1.
     999902    2    1    2    0    0 -0.21808255720E-02  0.23075175139E-01  0.67366524833E-02  0.10197928462E+01  0.10195071588E+01 0.  0.
     999903    2    3    3    0    0  0.46398211269E-01  0.29240703956E-01  0.11790554333E+00  0.13144806015E+00  0.19211001905E-01 0.  0.
         14    1    1    2    0    0  0.21808255720E-02 -0.23075175139E-01 -0.67366524833E-02  0.24137153821E-01  0.00000000000E+00 0. -1.
     999901    1    3    3    0    0 -0.48579036841E-01 -0.61655288169E-02 -0.11116889084E+00  0.88834478602E+00  0.88000000000E+00 0.  1.
        -11    1    4    4    0    0  0.36046084117E-01  0.15210143464E-01  0.66422123855E-01  0.77089741878E-01  0.51100000000E-03 0. -1.
         11    1    4    4    0    0  0.10352127152E-01  0.14030560493E-01  0.51483419472E-01  0.54358318277E-01  0.51100000000E-03 0.  1.
</event>
<event>
 8    1  0.1099478E+005  0.1043930E+01  0.7957747E-01            NaN
         13   -1    0    0    0    0  0.00000000000E+00  0.00000000000E+00  0.74505805969E-08  0.10566000000E+00  0.10566000000E+00 0.  1.
     999900   -1    0    0    0    0 -0.00000000000E+00 -0.00000000000E+00 -0.74505805969E-08  0.93827000000E+00  0.93827000000E+00 0. -1.
     999902    2    1    2    0    0 -0.13740139504E-01 -0.32109161244E-02 -0.18879652871E-01  0.10203600465E+01  0.10200877814E+01 0.  0.
     999903    2    3    3    0    0 -0.79226764513E-01 -0.71894376811E-01 -0.76991491261E-01  0.13335221023E+00  0.20234638966E-01 0.  0.
         14    1    1    2    0    0  0.13740139504E-01  0.32109161244E-02  0.18879652871E-01  0.23569953510E-01  0.00000000000E+00 0.  1.
     999901    1    3    3    0    0  0.65486625009E-01  0.68683460687E-01  0.58111838390E-01  0.88700783626E+00  0.88000000000E+00 0.  1.
        -11    1    4    4    0    0 -0.16288270693E-01 -0.25706341159E-01 -0.26685606686E-01  0.40478469130E-01  0.51100000000E-03 0. -1.
         11    1    4    4    0    0 -0.62938493820E-01 -0.46188035653E-01 -0.50305884575E-01  0.92873741098E-01  0.51100000000E-03 0.  1.
</event>
<event>
 8    1  0.1099478E+005  0.1043930E+01  0.7957747E-01            NaN
         13   -1    0    0    0    0  0.00000000000E+00  0.00000000000E+00  0.74505805969E-08  0.10566000000E+00  0.10566000000E+00 0. -1.
     999900   -1    0    0    0    0 -0.00000000000E+00 -0.00000000000E+00 -0.74505805969E-08  0.93827000000E+00  0.93827000000E+00 0.  1.
     999902    2    1    2    0    0 -0.26051708363E-02  0.38361147087E-03  0.22699336861E-01  0.10210784362E+01  0.10208226971E+01 0.  0.
     999903    2    3    3    0    0  0.49710861425E-01 -0.48831414847E-01  0.11222275510E+00  0.13362504114E+00  0.20150137420E-01 0.  0.
         14    1    1    2    0    0  0.26051708363E-02 -0.38361147087E-03 -0.22699336861E-01  0.22851563770E-01  0.00000000000E+00 0.  1.
     999901    1    3    3    0    0 -0.52316032261E-01  0.49215026318E-01 -0.89523418236E-01  0.88745339509E+00  0.88000000000E+00 0.  1.
        -11    1    4    4    0    0  0.12803846897E-01 -0.13852381692E-01  0.15787277180E-01  0.24603378135E-01  0.51100000000E-03 0. -1.
         11    1    4    4    0    0  0.36907014527E-01 -0.34979033155E-01  0.96435477917E-01  0.10902166300E+00  0.51100000000E-03 0.  1.
</event>
<event>
 8    1  0.1099478E+005  0.1043930E+01  0.7957747E-01            NaN
         13   -1    0    0    0    0  0.00000000000E+00  0.00000000000E+00  0.74505805969E-08  0.10566000000E+00  0.10566000000E+00 0.  1.
     999900   -1    0    0    0    0 -0.00000000000E+00 -0.00000000000E+00 -0.74505805969E-08  0.93827000000E+00  0.93827000000E+00 0.  1.
     999902    2    1    2    0    0 -0.22683590214E-01 -0.40321542921E-02 -0.42961455626E-02  0.10204936948E+01  0.10202245443E+01 0.  0.
     999903    2    3    3    0    0  0.39844788882E-01 -0.11370635882E+00 -0.45686226430E-01  0.13052101653E+00  0.20778865037E-01 0.  0.
         14    1    1    2    0    0  0.22683590214E-01  0.40321542921E-02  0.42961455626E-02  0.23436305168E-01  0.00000000000E+00 0.  1.
     999901    1    3    3    0    0 -0.62528379096E-01  0.10967420453E+00  0.41390080868E-01  0.88997267830E+00  0.88000000000E+00 0. -1.
        -11    1    4    4    0    0  0.50396339816E-04 -0.23921399672E-01 -0.11342952755E-01  0.26479418428E-01  0.51100000000E-03 0. -1.
         11    1    4    4    0    0  0.39794392542E-01 -0.89784959151E-01 -0.34343273675E-01  0.10404159810E+00  0.51100000000E-03 0.  1.
</event>
<event>
 8    1  0.1099478E+005  0.1043930E+01  0.7957747E-01            NaN
         13   -1    0    0    0    0  0.00000000000E+00  0.00000000000E+00  0.74505805969E-08  0.10566000000E+00  0.10566000000E+00 0.  1.
     999900   -1    0    0    0    0 -0.00000000000E+00 -0.00000000000E+00 -0.74505805969E-08  0.93827000000E+00  0.93827000000E+00 0.  1.
     999902    2    1    2    0    0 -0.15526318741E-01  0.16993067312E-01  0.10288995158E-01  0.10187170206E+01  0.10184049655E+01 0.  0.
     999903    2    3    3    0    0 -0.84441554654E-01 -0.60350426608E-01  0.77166500052E-01  0.13012041555E+00  0.14286485524E-01 0.  0.
         14    1    1    2    0    0  0.15526318741E-01 -0.16993067312E-01 -0.10288995158E-01  0.25212979429E-01  0.00000000000E+00 0. -1.
     999901    1    3    3    0    0  0.68915235913E-01  0.77343493921E-01 -0.66877504893E-01  0.88859660502E+00  0.88000000000E+00 0.  1.
        -11    1    4    4    0    0 -0.55310748004E-01 -0.46969755427E-01  0.56617484432E-01  0.92039325476E-01  0.51100000000E-03 0. -1.
         11    1    4    4    0    0 -0.29130806650E-01 -0.13380671181E-01  0.20549015620E-01  0.38081090075E-01  0.51100000000E-03 0.  1.
</event>
<event>
 8    1  0.1099478E+005  0.1043930E+01  0.7957747E-01            NaN
         13   -1    0    0    0    0  0.00000000000E+00  0.00000000000E+00  0.74505805969E-08  0.10566000000E+00  0.10566000000E+00 0. -1.
     999900   -1    0    0    0    0 -0.00000000000E+00 -0.00000000000E+00 -0.74505805969E-08  0.93827000000E+00  0.93827000000E+00 0. -1.
     999902    2    1    2    0    0 -0.15454278618E-01  0.17808368542E-01  0.15581228291E-02  0.10202995014E+01  0.10200258193E+01 0.  0.
     999903    2    3    3    0    0  0.61077426046E-01  0.10768079061E+00  0.41607017199E-01  0.13151489981E+00  0.15473214015E-01 0.  0.
         14    1    1    2    0    0  0.15454278618E-01 -0.17808368542E-01 -0.15581228291E-02  0.23630498609E-01  0.00000000000E+00 0. -1.
     999901    1    3    3    0    0 -0.76531704664E-01 -0.89872422073E-01 -0.40048894370E-01  0.88878460158E+00  0.88000000000E+00 0. -1.
        -11    1    4    4    0    0  0.43557227077E-01  0.74568797997E-01  0.36289039909E-01  0.93674399939E-01  0.51100000000E-03 0.  1.
         11    1    4    4    0    0  0.17520198969E-01  0.33111992618E-01  0.53179772900E-02  0.37840499871E-01  0.51100000000E-03 0. -1.
</event>
<event>
 8    1  0.1099478E+005  0.1043930E+01  0.7957747E-01            NaN
         13   -1    0    0    0    0  0.00000000000E+00  0.00000000000E+00  0.74505805969E-08  0.10566000000E+00  0.10566000000E+00 0. -1.
     999900   -1    0    0    0    0 -0.00000000000E+00 -0.00000000000E+00 -0.74505805969E-08  0.93827000000E+00  0.93827000000E+00 0. -1.
     999902    2    1    2    0    0  0.20200973046E-01 -0.13295099094E-01 -0.65559656178E-02  0.10188736703E+01  0.10185655288E+01 0.  0.
     999903    2    3    3    0    0  0.90177612591E-01 -0.79793527322E-01  0.50107841599E-01  0.13178316869E+00  0.18894415680E-01 0.  0.
         14    1    1    2    0    0 -0.20200973046E-01  0.13295099094E-01  0.65559656178E-02  0.25056329682E-01  0.00000000000E+00 0. -1.
     999901    1    3    3    0    0 -0.69976639545E-01  0.66498428228E-01 -0.56663807217E-01  0.88709050163E+00  0.88000000000E+00 0. -1.
        -11    1    4    4    0    0  0.59602339195E-01 -0.40553200311E-01  0.27890893369E-01  0.77299184646E-01  0.51100000000E-03 0.  1.
         11    1    4    4    0    0  0.30575273396E-01 -0.39240327011E-01  0.22216948230E-01  0.54483984040E-01  0.51100000000E-03 0. -1.
</event>
<event>
 8    1  0.1099478E+005  0.1043930E+01  0.7957747E-01            NaN
         13   -1    0    0    0    0  0.00000000000E+00  0.00000000000E+00  0.74505805969E-08  0.10566000000E+00  0.10566000000E+00 0. -1.
     999900   -1    0    0    0    0 -0.00000000000E+00 -0.00000000000E+00 -0.74505805969E-08  0.93827000000E+00  0.93827000000E+00 0. -1.
     999902    2    1    2    0    0  0.15647084001E-01  0.62833911254E-02  0.16633244153E-01  0.10202450459E+01  0.10199700861E+01 0.  0.
     999903    2    3    3    0    0 -0.16597540142E-01 -0.80644756745E-01 -0.96998972114E-01  0.12810800523E+00  0.14960123134E-01 0.  0.
         14    1    1    2    0    0 -0.15647084001E-01 -0.62833911254E-02 -0.16633244153E-01  0.23684954144E-01  0.00000000000E+00 0.  1.
     999901    1    3    3    0    0  0.32244624143E-01  0.86928147871E-01  0.11363221627E+00  0.89213704062E+00  0.88000000000E+00 0.  1.
        -11    1    4    4    0    0 -0.13895703547E-01 -0.50302137875E-01 -0.70597670315E-01  0.87793438404E-01  0.51100000000E-03 0.  1.
         11    1    4    4    0    0 -0.27018365951E-02 -0.30342618871E-01 -0.26401301799E-01  0.40314566829E-01  0.51100000000E-03 0. -1.
</event>
<event>
 8    1  0.1099478E+005  0.1043930E+01  0.7957747E-01            NaN
         13   -1    0    0    0    0  0.00000000000E+00  0.00000000000E+00  0.74505805969E-08  0.10566000000E+00  0.10566000000E+00 0.  1.
     999900   -1    0    0    0    0 -0.00000000000E+00 -0.00000000000E+00 -0.74505805969E-08  0.93827000000E+00  0.93827000000E+00 0.  1.
     999902    2    1    2    0    0  0.17388905758E-01 -0.56825005661E-02 -0.14292937402E-01  0.10207146405E+01  0.10204505987E+01 0.  0.
     999903    2    3    3    0    0  0.78570811408E-01 -0.52213172179E-01 -0.92812562050E-01  0.13388113843E+00  0.20258326640E-01 0.  0.
         14    1    1    2    0    0 -0.17388905758E-01  0.56825005661E-02  0.14292937402E-01  0.23215359479E-01  0.00000000000E+00 0.  1.
     999901    1    3    3    0    0 -0.61181905650E-01  0.46530671613E-01  0.78519624648E-01  0.88683350209E+00  0.88000000000E+00 0. -1.
        -11    1    4    4    0    0  0.44594888782E-01 -0.23631843503E-01 -0.61447040451E-01  0.79518350297E-01  0.51100000000E-03 0.  1.
         11    1    4    4    0    0  0.33975922626E-01 -0.28581328676E-01 -0.31365521599E-01  0.54362788131E-01  0.51100000000E-03 0. -1.
</event>
<event>
 8    1  0.1099478E+005  0.1043930E+01  0.7957747E-01            NaN
         13   -1    0    0    0    0  0.00000000000E+00  0.00000000000E+00  0.74505805969E-08  0.10566000000E+00  0.10566000000E+00 0. -1.
     999900   -1    0    0    0    0 -0.00000000000E+00 -0.00000000000E+00 -0.74505805969E-08  0.93827000000E+00  0.93827000000E+00 0. -1.
     999902    2    1    2    0    0  0.19164835485E-01 -0.10596378331E-01 -0.89943360089E-02  0.10202557052E+01  0.10199809958E+01 0.  0.
     999903    2    3    3    0    0  0.88177751512E-01 -0.39277016868E-01  0.87802402954E-01  0.13179919516E+00  0.18540926729E-01 0.  0.
         14    1    1    2    0    0 -0.19164835485E-01  0.10596378331E-01  0.89943360089E-02  0.23674294776E-01  0.00000000000E+00 0. -1.
     999901    1    3    3    0    0 -0.69012916027E-01  0.28680638537E-01 -0.96796738963E-01  0.88845651007E+00  0.88000000000E+00 0. -1.
        -11    1    4    4    0    0  0.67773428155E-01 -0.21163673020E-01  0.63840873530E-01  0.95483280597E-01  0.51100000000E-03 0.  1.
         11    1    4    4    0    0  0.20404323357E-01 -0.18113343848E-01  0.23961529424E-01  0.36315914561E-01  0.51100000000E-03 0. -1.
</event>
<event>
 8    1  0.1099478E+005  0.1043930E+01  0.7957747E-01            NaN
         13   -1    0    0    0    0  0.00000000000E+00  0.00000000000E+00  0.74505805969E-08  0.10566000000E+00  0.10566000000E+00 0. -1.
     999900   -1    0    0    0    0 -0.00000000000E+00 -0.00000000000E+00 -0.74505805969E-08  0.93827000000E+00  0.93827000000E+00 0.  1.
     999902    2    1    2    0    0  0.13979882521E-01  0.36432244317E-02  0.19279372202E-01  0.10198384166E+01  0.10195538198E+01 0.  0.
     999903    2    3    3    0    0  0.54190770906E-01 -0.78782890430E-01  0.89191301509E-01  0.13231452517E+00  0.20215385954E-01 0.  0.
         14    1    1    2    0    0 -0.13979882521E-01 -0.36432244317E-02 -0.19279372202E-01  0.24091583428E-01  0.00000000000E+00 0.  1.
     999901    1    3    3    0    0 -0.40210888384E-01  0.82426114862E-01 -0.69911929308E-01  0.88752389141E+00  0.88000000000E+00 0. -1.
        -11    1    4    4    0    0  0.10216950244E-02 -0.12752918692E-01  0.14313077423E-01  0.19204325091E-01  0.51100000000E-03 0. -1.
         11    1    4    4    0    0  0.53169075882E-01 -0.66029971738E-01  0.74878224086E-01  0.11311020008E+00  0.51100000000E-03 0.  1.
</event>
<event>
 8    1  0.1099478E+005  0.1043930E+01  0.7957747E-01            NaN
         13   -1    0    0    0    0  0.00000000000E+00  0.00000000000E+00  0.74505805969E-08  0.10566000000E+00  0.10566000000E+00 0. -1.
     999900   -1    0    0    0    0 -0.00000000000E+00 -0.00000000000E+00 -0.74505805969E-08  0.93827000000E+00  0.93827000000E+00 0.  1.
     999902    2    1    2    0    0  0.15679281682E-01  0.17869550278E-01  0.14947372869E-03  0.10201564213E+01  0.10198793757E+01 0.  0.
     999903    2    3    3    0    0 -0.69762137776E-01 -0.18801218978E-01  0.10506738819E+00  0.12906004591E+00  0.19927310094E-01 0.  0.
         14    1    1    2    0    0 -0.15679281682E-01 -0.17869550278E-01 -0.14947372869E-03  0.23773578687E-01  0.00000000000E+00 0. -1.
     999901    1    3    3    0    0  0.85441419458E-01  0.36670769257E-01 -0.10491791446E+00  0.89109637540E+00  0.88000000000E+00 0. -1.
        -11    1    4    4    0    0 -0.43294380930E-01 -0.27502150299E-02  0.69246471829E-01  0.81714760506E-01  0.51100000000E-03 0.  1.
         11    1    4    4    0    0 -0.26467756846E-01 -0.16051003948E-01  0.35820916361E-01  0.47345285406E-01  0.51100000000E-03 0. -1.
</event>
<event>
 8    1  0.1099478E+005  0.1043930E+01  0.7957747E-01            NaN
         13   -1    0    0    0    0  0.00000000000E+00  0.00000000000E+00  0.74505805969E-08  0.10566000000E+00  0.10566000000E+00 0.  1.
     999900   -1    0    0    0    0 -0.00000000000E+00 -0.00000000000E+00 -0.74505805969E-08  0.93827000000E+00  0.93827000000E+00 0. -1.
     999902    2    1    2    0    0 -0.14733572339E-01  0.18987730380E-01  0.18414626821E-02  0.10198259953E+01  0.10195411015E+01 0.  0.
     999903    2    3    3    0    0  0.94965495300E-01  0.58127940197E-01 -0.63145577558E-01  0.12977590856E+00  0.21380358940E-01 0.  0.
         14    1    1    2    0    0  0.14733572339E-01 -0.18987730380E-01 -0.18414626821E-02  0.24104004723E-01  0.00000000000E+00 0. -1.
     999901    1    3    3    0    0 -0.10969906764E+00 -0.39140209817E-01  0.64987040240E-01  0.89005008672E+00  0.88000000000E+00 0.  1.
        -11    1    4    4    0    0  0.77724345169E-02 -0.19376384252E-04 -0.86840262194E-02  0.11665528112E-01  0.51100000000E-03 0. -1.
         11    1    4    4    0    0  0.87193060783E-01  0.58147316582E-01 -0.54461551339E-01  0.11811038045E+00  0.51100000000E-03 0.  1.
</event>
<event>
 8    1  0.1099478E+005  0.1043930E+01  0.7957747E-01            NaN
         13   -1    0    0    0    0  0.00000000000E+00  0.00000000000E+00  0.74505805969E-08  0.10566000000E+00  0.10566000000E+00 0. -1.
     999900   -1    0    0    0    0 -0.00000000000E+00 -0.00000000000E+00 -0.74505805969E-08  0.93827000000E+00  0.93827000000E+00 0. -1.
     999902    2    1    2    0    0  0.61355237296E-02 -0.61697962070E-02 -0.21761321128E-01  0.10204935725E+01  0.10202244191E+01 0.  0.
     999903    2    3    3    0    0 -0.41414934967E-01 -0.12010962228E+00 -0.29774345190E-01  0.13183866837E+00  0.18799059637E-01 0.  0.
         14    1    1    2    0    0 -0.61355237296E-02  0.61697962070E-02  0.21761321128E-01  0.23436427499E-01  0.00000000000E+00 0. -1.
     999901    1    3    3    0    0  0.47550458697E-01  0.11393982607E+00  0.80130240624E-02  0.88865490413E+00  0.88000000000E+00 0.  1.
        -11    1    4    4    0    0 -0.20546128600E-01 -0.84950420140E-01 -0.23160969183E-01  0.90417967777E-01  0.51100000000E-03 0.  1.
         11    1    4    4    0    0 -0.20868806368E-01 -0.35159202138E-01 -0.66133760071E-02  0.41420700590E-01  0.51100000000E-03 0. -1.
</event>
<event>
 8    1  0.1099478E+005  0.1043930E+01  0.7957747E-01            NaN
         13   -1    0    0    0    0  0.00000000000E+00  0.00000000000E+00  0.74505805969E-08  0.10566000000E+00  0.10566000000E+00 0. -1.
     999900   -1    0    0    0    0 -0.00000000000E+00 -0.00000000000E+00 -0.74505805969E-08  0.93827000000E+00  0.93827000000E+00 0.  1.
     999902    2    1    2    0    0  0.17728862995E-01 -0.15059246853E-01  0.60800027085E-02  0.10198871231E+01  0.10196036896E+01 0.  0.
     999903    2    3    3    0    0  0.39578619281E-01  0.12040491142E+00  0.15196222698E-01  0.12920701466E+00  0.19992940081E-01 0.  0.
         14    1    1    2    0    0 -0.17728862995E-01  0.15059246853E-01 -0.60800027085E-02  0.24042876945E-01  0.00000000000E+00 0.  1.
     999901    1    3    3    0    0 -0.21849756286E-01 -0.13546415828E+00 -0.91162199899E-02  0.89068010840E+00  0.88000000000E+00 0.  1.
        -11    1    4    4    0    0  0.28259705055E-01  0.69500546052E-01  0.17366976486E-01  0.77011751211E-01  0.51100000000E-03 0. -1.
         11    1    4    4    0    0  0.11318914226E-01  0.50904365372E-01 -0.21707537878E-02  0.52195263446E-01  0.51100000000E-03 0.  1.
</event>
<event>
 8    1  0.1099478E+005  0.1043930E+01  0.7957747E-01            NaN
         13   -1    0    0    0    0  0.00000000000E+00  0.00000000000E+00  0.74505805969E-08  0.10566000000E+00  0.10566000000E+00 0. -1.
     999900   -1    0    0    0    0 -0.00000000000E+00 -0.00000000000E+00 -0.74505805969E-08  0.93827000000E+00  0.93827000000E+00 0. -1.
     999902    2    1    2    0    0  0.11627585956E-01  0.20011828342E-01 -0.20617231532E-02  0.10206937195E+01  0.10204291961E+01 0.  0.
     999903    2    3    3    0    0  0.26491883690E-01  0.80281360229E-02  0.12666432437E+00  0.13112362585E+00  0.19577622894E-01 0.  0.
         14    1    1    2    0    0 -0.11627585956E-01 -0.20011828342E-01  0.20617231532E-02  0.23236280492E-01  0.00000000000E+00 0.  1.
     999901    1    3    3    0    0 -0.14864297734E-01  0.11983692319E-01 -0.12872604752E+00  0.88957009366E+00  0.88000000000E+00 0. -1.
        -11    1    4    4    0    0  0.99331320501E-03 -0.50948188492E-02  0.20494753838E-01  0.21148047336E-01  0.51100000000E-03 0. -1.
         11    1    4    4    0    0  0.25498570485E-01  0.13122954872E-01  0.10616957053E+00  0.10997557851E+00  0.51100000000E-03 0.  1.
</event>
<event>
 8    1  0.1099478E+005  0.1043930E+01  0.7957747E-01            NaN
         13   -1    0    0    0    0  0.00000000000E+00  0.00000000000E+00  0.74505805969E-08  0.10566000000E+00  0.10566000000E+00 0. -1.
     999900   -1    0    0    0    0 -0.00000000000E+00 -0.00000000000E+00 -0.74505805969E-08  0.93827000000E+00  0.93827000000E+00 0. -1.
     999902    2    1    2    0    0  0.34475990017E-02  0.13793656539E-01  0.17505973116E-01  0.10213776167E+01  0.10211286040E+01 0.  0.
     999903    2    3    3    0    0 -0.53805020117E-01  0.89929854283E-02  0.11958793403E+00  0.13361546632E+00  0.23999268678E-01 0.  0.
         14    1    1    2    0    0 -0.34475990017E-02 -0.13793656539E-01 -0.17505973116E-01  0.22552383340E-01  0.00000000000E+00 0.  1.
     999901    1    3    3    0    0  0.57252619119E-01  0.48006711108E-02 -0.10208196091E+00  0.88776215034E+00  0.88000000000E+00 0. -1.
        -11    1    4    4    0    0 -0.19473319023E-01  0.13064567271E-01  0.63875375152E-01  0.68045703344E-01  0.51100000000E-03 0.  1.
         11    1    4    4    0    0 -0.34331701094E-01 -0.40715818431E-02  0.55712558876E-01  0.65569762972E-01  0.51100000000E-03 0. -1.
</event>
<event>
 8    1  0.1099478E+005  0.1043930E+01  0.7957747E-01            NaN
         13   -1    0    0    0    0  0.00000000000E+00  0.00000000000E+00  0.74505805969E-08  0.10566000000E+00  0.10566000000E+00 0.  1.
     999900   -1    0    0    0    0 -0.00000000000E+00 -0.00000000000E+00 -0.74505805969E-08  0.93827000000E+00  0.93827000000E+00 0. -1.
     999902    2    1    2    0    0  0.80518875597E-02 -0.21970285572E-01 -0.62675988221E-03  0.10205223267E+01  0.10202538410E+01 0.  0.
     999903    2    3    3    0    0  0.10610382410E+00 -0.75374242916E-01  0.20004403949E-01  0.13322766885E+00  0.20251853914E-01 0.  0.
         14    1    1    2    0    0 -0.80518875597E-02  0.21970285572E-01  0.62675988221E-03  0.23407673301E-01  0.00000000000E+00 0. -1.
     999901    1    3    3    0    0 -0.98051936541E-01  0.53403957343E-01 -0.20631163832E-01  0.88729465785E+00  0.88000000000E+00 0. -1.
        -11    1    4    4    0    0  0.58375931503E-01 -0.52152340319E-01  0.16718991730E-01  0.80046247789E-01  0.51100000000E-03 0. -1.
         11    1    4    4    0    0  0.47727892598E-01 -0.23221902596E-01  0.32854122190E-02  0.53181421065E-01  0.51100000000E-03 0.  1.
</event>
<event>
 8    1  0.1099478E+005  0.1043930E+01  0.7957747E-01            NaN
         13   -1    0    0    0    0  0.00000000000E+00  0.00000000000E+00  0.74505805969E-08  0.10566000000E+00  0.10566000000E+00 0. -1.
     999900   -1    0    0    0    0 -0.00000000000E+00 -0.00000000000E+00 -0.74505805969E-08  0.93827000000E+00  0.93827000000E+00 0.  1.
     999902    2    1    2    0    0  0.21459535201E-01 -0.10872197999E-01 -0.19515358224E-02  0.10197944488E+01  0.10195087998E+01 0.  0.
     999903    2    3    3    0    0 -0.89450285654E-01  0.87286274977E-01  0.12725364849E-01  0.12729711793E+00  0.20551737609E-01 0.  0.
         14    1    1    2    0    0 -0.21459535201E-01  0.10872197999E-01  0.19515358224E-02  0.24135551215E-01  0.00000000000E+00 0.  1.
     999901    1    3    3    0    0  0.11090982085E+00 -0.98158472976E-01 -0.14676900671E-01  0.89249733086E+00  0.88000000000E+00 0.  1.
        -11    1    4    4    0    0 -0.21148398485E-01  0.32766736760E-01  0.77237482836E-02  0.39759668069E-01  0.51100000000E-03 0.  1.
         11    1    4    4    0    0 -0.68301887169E-01  0.54519538217E-01  0.50016165653E-02  0.87537449857E-01  0.51100000000E-03 0. -1.
</event>
<event>
 8    1  0.1099478E+005  0.1043930E+01  0.7957747E-01            NaN
         13   -1    0    0    0    0  0.00000000000E+00  0.00000000000E+00  0.74505805969E-08  0.10566000000E+00  0.10566000000E+00 0. -1.
     999900   -1    0    0    0    0 -0.00000000000E+00 -0.00000000000E+00 -0.74505805969E-08  0.93827000000E+00  0.93827000000E+00 0.  1.
     999902    2    1    2    0    0 -0.96948234119E-02 -0.36119624293E-02 -0.22572537643E-01  0.10190994678E+01  0.10187969228E+01 0.  0.
     999903    2    3    3    0    0  0.94841854978E-01  0.24764551398E-01 -0.82471056353E-01  0.13043700308E+00  0.24577961151E-01 0.  0.
         14    1    1    2    0    0  0.96948234119E-02  0.36119624293E-02  0.22572537643E-01  0.24830532198E-01  0.00000000000E+00 0. -1.
     999901    1    3    3    0    0 -0.10453667839E+00 -0.28376513827E-01  0.59898518709E-01  0.88866246472E+00  0.88000000000E+00 0. -1.
        -11    1    4    4    0    0  0.32398870601E-01  0.28483534412E-02 -0.41005194074E-01  0.52340108861E-01  0.51100000000E-03 0.  1.
         11    1    4    4    0    0  0.62442984377E-01  0.21916197957E-01 -0.41465862279E-01  0.78096894217E-01  0.51100000000E-03 0. -1.
</event>
<event>
 8    1  0.1099478E+005  0.1043930E+01  0.7957747E-01            NaN
         13   -1    0    0    0    0  0.00000000000E+00  0.00000000000E+00  0.74505805969E-08  0.10566000000E+00  0.10566000000E+00 0.  1.
     999900   -1    0    0    0    0 -0.00000000000E+00 -0.00000000000E+00 -0.74505805969E-08  0.93827000000E+00  0.93827000000E+00 0.  1.
     999902    2    1    2    0    0 -0.15093391464E-01 -0.34385623594E-02 -0.17469913237E-01  0.10205883624E+01  0.10203214069E+01 0.  0.
     999903    2    3    3    0    0  0.98200783897E-01  0.36314763235E-01  0.71537148803E-01  0.12798646113E+00  0.17344007253E-01 0.  0.
         14    1    1    2    0    0  0.15093391464E-01  0.34385623594E-02  0.17469913237E-01  0.23341637592E-01  0.00000000000E+00 0.  1.
     999901    1    3    3    0    0 -0.11329417536E+00 -0.39753325595E-01 -0.89007062040E-01  0.89260190127E+00  0.88000000000E+00 0.  1.
        -11    1    4    4    0    0  0.92581016798E-01  0.29298953550E-01  0.64844539337E-01  0.11676792690E+00  0.51100000000E-03 0. -1.
         11    1    4    4    0    0  0.56197670987E-02  0.70158096853E-02  0.66926094663E-02  0.11218534229E-01  0.51100000000E-03 0.  1.
</event>
<event>
 8    1  0.1099478E+005  0.1043930E+01  0.7957747E-01            NaN
         13   -1    0    0    0    0  0.00000000000E+00  0.00000000000E+00  0.74505805969E-08  0.10566000000E+00  0.10566000000E+00 0. -1.
     999900   -1    0    0    0    0 -0.00000000000E+00 -0.00000000000E+00 -0.74505805969E-08  0.93827000000E+00  0.93827000000E+00 0.  1.
     999902    2    1    2    0    0  0.80764906232E-02 -0.47533661126E-02  0.21886769912E-01  0.10201212855E+01  0.10198434106E+01 0.  0.
     999903    2    3    3    0    0 -0.75109667901E-01 -0.26385238312E-01  0.10421412577E+00  0.13210908489E+00  0.15955666335E-01 0.  0.
         14    1    1    2    0    0 -0.80764906232E-02  0.47533661126E-02 -0.21886769912E-01  0.23808714526E-01  0.00000000000E+00 0.  1.
     999901    1    3    3    0    0  0.83186158524E-01  0.21631872199E-01 -0.82327355855E-01  0.88801220058E+00  0.88000000000E+00 0.  1.
        -11    1    4    4    0    0 -0.46630215020E-01 -0.11068568364E-01  0.52250554216E-01  0.70903255887E-01  0.51100000000E-03 0. -1.
         11    1    4    4    0    0 -0.28479452881E-01 -0.15316669948E-01  0.51963571551E-01  0.61205829003E-01  0.51100000000E-03 0.  1.
</event>
<event>
 8    1  0.1099478E+005  0.1043930E+01  0.7957747E-01            NaN
         13   -1    0    0    0    0  0.00000000000E+00  0.00000000000E+00  0.74505805969E-08  0.10566000000E+00  0.10566000000E+00 0.  1.
     999900   -1    0    0    0    0 -0.00000000000E+00 -0.00000000000E+00 -0.74505805969E-08  0.93827000000E+00  0.93827000000E+00 0.  1.
     999902    2    1    2    0    0 -0.20113457685E-01 -0.18813991229E-02  0.13493600538E-01  0.10196366244E+01  0.10193471821E+01 0.  0.
     999903    2    3    3    0    0 -0.40650291529E-02  0.57149612940E-01  0.11670002081E+00  0.13149599498E+00  0.19740798257E-01 0.  0.
         14    1    1    2    0    0  0.20113457685E-01  0.18813991229E-02 -0.13493600538E-01  0.24293375603E-01  0.00000000000E+00 0. -1.
     999901    1    3    3    0    0 -0.16048428532E-01 -0.59031012063E-01 -0.10320642028E+00  0.88814062942E+00  0.88000000000E+00 0.  1.
        -11    1    4    4    0    0  0.62479791989E-02  0.25971302707E-01  0.64610900634E-01  0.69916917910E-01  0.51100000000E-03 0. -1.
         11    1    4    4    0    0 -0.10313008352E-01  0.31178310233E-01  0.52089120179E-01  0.61579077066E-01  0.51100000000E-03 0.  1.
</event>
<event>
 8    1  0.1099478E+005  0.1043930E+01  0.7957747E-01            NaN
         13   -1    0    0    0    0  0.00000000000E+00  0.00000000000E+00  0.74505805969E-08  0.10566000000E+00  0.10566000000E+00 0. -1.
     999900   -1    0    0    0    0 -0.00000000000E+00 -0.00000000000E+00 -0.74505805969E-08  0.93827000000E+00  0.93827000000E+00 0.  1.
     999902    2    1    2    0    0 -0.13812830627E-01 -0.83828225868E-02  0.17429268194E-01  0.10201635237E+01  0.10198866455E+01 0.  0.
     999903    2    3    3    0    0  0.12198532136E-01  0.11969376222E+00  0.44258278204E-01  0.13010734666E+00  0.22219936153E-01 0.  0.
         14    1    1    2    0    0  0.13812830627E-01  0.83828225868E-02 -0.17429268194E-01  0.23766476269E-01  0.00000000000E+00 0.  1.
     999901    1    3    3    0    0 -0.26011362764E-01 -0.12807658481E+00 -0.26829010010E-01  0.89005617707E+00  0.88000000000E+00 0. -1.
        -11    1    4    4    0    0  0.11371382442E-01  0.23341927071E-01  0.10412724858E-01  0.27979275509E-01  0.51100000000E-03 0.  1.
         11    1    4    4    0    0  0.82714969474E-03  0.96351835153E-01  0.33845553346E-01  0.10212807115E+00  0.51100000000E-03 0. -1.
</event>
<event>
 8    1  0.1099478E+005  0.1043930E+01  0.7957747E-01            NaN
         13   -1    0    0    0    0  0.00000000000E+00  0.00000000000E+00  0.74505805969E-08  0.10566000000E+00  0.10566000000E+00 0.  1.
     999900   -1    0    0    0    0 -0.00000000000E+00 -0.00000000000E+00 -0.74505805969E-08  0.93827000000E+00  0.93827000000E+00 0. -1.
     999902    2    1    2    0    0  0.12666393771E-01  0.16395649619E-01  0.11912703570E-01  0.10200308920E+01  0.10197508780E+01 0.  0.
     999903    2    3    3    0    0 -0.24975827350E-01  0.54873799479E-01 -0.11330504011E+00  0.12953833830E+00  0.17527782359E-01 0.  0.
         14    1    1    2    0    0 -0.12666393771E-01 -0.16395649619E-01 -0.11912703570E-01  0.23899108016E-01  0.00000000000E+00 0.  1.
     999901    1    3    3    0    0  0.37642221121E-01 -0.38478149859E-01  0.12521774368E+00  0.89049255368E+00  0.88000000000E+00 0.  1.
        -11    1    4    4    0    0 -0.27485100459E-01  0.46458751025E-01 -0.98137262826E-01  0.11200459709E+00  0.51100000000E-03 0. -1.
         11    1    4    4    0    0  0.25092731086E-02  0.84150484535E-02 -0.15167777287E-01  0.17533741210E-01  0.51100000000E-03 0.  1.
</event>
<event>
 8    1  0.1099478E+005  0.1043930E+01  0.7957747E-01            NaN
         13   -1    0    0    0    0  0.00000000000E+00  0.00000000000E+00  0.74505805969E-08  0.10566000000E+00  0.10566000000E+00 0. -1.
     999900   -1    0    0    0    0 -0.00000000000E+00 -0.00000000000E+00 -0.74505805969E-08  0.93827000000E+00  0.93827000000E+00 0. -1.
     999902    2    1    2    0    0 -0.93507636421E-03  0.23174420304E-01 -0.32982937542E-02  0.10205033727E+01  0.10202344470E+01 0.  0.
     999903    2    3    3    0    0  0.81758798714E-01  0.10311190165E+00 -0.60009439192E-02  0.13301501661E+00  0.18450417022E-01 0.  0.
         14    1    1    2    0    0  0.93507636421E-03 -0.23174420304E-01  0.32982937542E-02  0.23426627285E-01  0.00000000000E+00 0. -1.
     999901    1    3    3    0    0 -0.82693875078E-01 -0.79937481343E-01  0.27026501649E-02  0.88748835610E+00  0.88000000000E+00 0.  1.
        -11    1    4    4    0    0  0.71195468916E-01  0.97937439255E-01 -0.61883818621E-02  0.12123982016E+00  0.51100000000E-03 0. -1.
         11    1    4    4    0    0  0.10563329798E-01  0.51744623918E-02  0.18743794293E-03  0.11775196450E-01  0.51100000000E-03 0.  1.
</event>
<event>
 7    1  0.1264179E+005  0.1043930E+01  0.7957747E-01            NaN
         13   -1    0    0    0    0  0.00000000000E+00  0.00000000000E+00  0.74505805969E-08  0.10566000000E+00  0.10566000000E+00 0.  1.
     999900   -1    0    0    0    0 -0.00000000000E+00 -0.00000000000E+00 -0.74505805969E-08  0.93827000000E+00  0.93827000000E+00 0.  1.
     999903    2    1    2    0    0 -0.20718215056E-01 -0.10493844548E+00  0.37686674488E-01  0.11504467995E+00  0.19330576223E-01 0.  0.
         14    1    1    2    0    0  0.26919944018E-01 -0.17095155025E-01  0.21520987625E-01  0.38471815913E-01  0.00000000000E+00 0.  1.
     999901    1    1    2    0    0 -0.62017289622E-02  0.12203360050E+00 -0.59207662113E-01  0.89041350414E+00  0.88000000000E+00 0.  1.
        -11    1    3    3    0    0 -0.68670465682E-02 -0.74687787715E-01  0.30699680166E-01  0.81044145042E-01  0.51100000000E-03 0.  1.
         11    1    3    3    0    0 -0.13851168488E-01 -0.30250657761E-01  0.69869943221E-02  0.34000534909E-01  0.51100000000E-03 0. -1.
</event>
<event>
 8    1  0.1099478E+005  0.1043930E+01  0.7957747E-01            NaN
         13   -1    0    0    0    0  0.00000000000E+00  0.00000000000E+00  0.74505805969E-08  0.10566000000E+00  0.10566000000E+00 0. -1.
     999900   -1    0    0    0    0 -0.00000000000E+00 -0.00000000000E+00 -0.74505805969E-08  0.93827000000E+00  0.93827000000E+00 0. -1.
     999902    2    1    2    0    0 -0.10932619088E-02  0.14457900716E-01 -0.19070986631E-01  0.10199731921E+01  0.10196918083E+01 0.  0.
     999903    2    3    3    0    0  0.73702513434E-01  0.10680204827E+00  0.82630297936E-02  0.13156506624E+00  0.20058688705E-01 0.  0.
         14    1    1    2    0    0  0.10932619088E-02 -0.14457900716E-01  0.19070986631E-01  0.23956807922E-01  0.00000000000E+00 0. -1.
     999901    1    3    3    0    0 -0.74795775343E-01 -0.92344147556E-01 -0.27334016425E-01  0.88840812584E+00  0.88000000000E+00 0. -1.
        -11    1    4    4    0    0  0.36829864582E-01  0.37760440064E-01 -0.90303473242E-03  0.52757618897E-01  0.51100000000E-03 0.  1.
         11    1    4    4    0    0  0.36872648852E-01  0.69041608208E-01  0.91660645260E-02  0.78807447346E-01  0.51100000000E-03 0. -1.
</event>
<event>
 8    1  0.1099478E+005  0.1043930E+01  0.7957747E-01            NaN
         13   -1    0    0    0    0  0.00000000000E+00  0.00000000000E+00  0.74505805969E-08  0.10566000000E+00  0.10566000000E+00 0.  1.
     999900   -1    0    0    0    0 -0.00000000000E+00 -0.00000000000E+00 -0.74505805969E-08  0.93827000000E+00  0.93827000000E+00 0.  1.
     999902    2    1    2    0    0 -0.27538028556E-01 -0.46619674544E-02 -0.11312731979E-01  0.10137960513E+01  0.10133481035E+01 0.  0.
     999903    2    3    3    0    0 -0.76193436830E-01  0.89765212106E-01 -0.43420960664E-01  0.12682661593E+00  0.18340598763E-01 0.  0.
         14    1    1    2    0    0  0.27538028556E-01  0.46619674544E-02  0.11312731979E-01  0.30133948664E-01  0.00000000000E+00 0.  1.
     999901    1    3    3    0    0  0.48655408275E-01 -0.94427179560E-01  0.32108228686E-01  0.88696943541E+00  0.88000000000E+00 0. -1.
        -11    1    4    4    0    0 -0.50361647937E-01  0.69998446402E-01 -0.36078556344E-01  0.93477277616E-01  0.51100000000E-03 0. -1.
         11    1    4    4    0    0 -0.25831788894E-01  0.19766765704E-01 -0.73424043200E-02  0.33349338315E-01  0.51100000000E-03 0.  1.
</event>
<event>
 8    1  0.1099478E+005  0.1043930E+01  0.7957747E-01            NaN
         13   -1    0    0    0    0  0.00000000000E+00  0.00000000000E+00  0.74505805969E-08  0.10566000000E+00  0.10566000000E+00 0.  1.
     999900   -1    0    0    0    0 -0.00000000000E+00 -0.00000000000E+00 -0.74505805969E-08  0.93827000000E+00  0.93827000000E+00 0. -1.
     999902    2    1    2    0    0 -0.55346513867E-02 -0.11017277561E-01  0.20124603524E-01  0.10203288891E+01  0.10200558952E+01 0.  0.
     999903    2    3    3    0    0  0.68357121090E-01  0.85861253633E-01  0.67362652510E-01  0.13067902696E+00  0.22235787731E-01 0.  0.
         14    1    1    2    0    0  0.55346513867E-02  0.11017277561E-01 -0.20124603524E-01  0.23601110945E-01  0.00000000000E+00 0. -1.
     999901    1    3    3    0    0 -0.73891772476E-01 -0.96878531194E-01 -0.47238048986E-01  0.88964986209E+00  0.88000000000E+00 0. -1.
        -11    1    4    4    0    0  0.54907905262E-01  0.64877358891E-01  0.40902424068E-01  0.94325071813E-01  0.51100000000E-03 0.  1.
         11    1    4    4    0    0  0.13449215828E-01  0.20983894742E-01  0.26460228442E-01  0.36353955152E-01  0.51100000000E-03 0. -1.
</event>
<event>
 8    1  0.1099478E+005  0.1043930E+01  0.7957747E-01            NaN
         13   -1    0    0    0    0  0.00000000000E+00  0.00000000000E+00  0.74505805969E-08  0.10566000000E+00  0.10566000000E+00 0.  1.
     999900   -1    0    0    0    0 -0.00000000000E+00 -0.00000000000E+00 -0.74505805969E-08  0.93827000000E+00  0.93827000000E+00 0.  1.
     999902    2    1    2    0    0 -0.10280759019E-01 -0.21233777651E-01 -0.22688679676E-02  0.10202294709E+01  0.10199541451E+01 0.  0.
     999903    2    3    3    0    0  0.39109203768E-01  0.30914486834E-01  0.11758801156E+00  0.12920507082E+00  0.19539051839E-01 0.  0.
         14    1    1    2    0    0  0.10280759019E-01  0.21233777651E-01  0.22688679676E-02  0.23700529133E-01  0.00000000000E+00 0.  1.
     999901    1    3    3    0    0 -0.49389962787E-01 -0.52148264485E-01 -0.11985687953E+00  0.89102440005E+00  0.88000000000E+00 0.  1.
        -11    1    4    4    0    0  0.29621402757E-02  0.11040135511E-01  0.17061239144E-01  0.20542781439E-01  0.51100000000E-03 0.  1.
         11    1    4    4    0    0  0.36147063492E-01  0.19874351323E-01  0.10052677242E+00  0.10866228938E+00  0.51100000000E-03 0. -1.
</event>
<event>
 8    1  0.1099478E+005  0.1043930E+01  0.7957747E-01            NaN
         13   -1    0    0    0    0  0.00000000000E+00  0.00000000000E+00  0.74505805969E-08  0.10566000000E+00  0.10566000000E+00 0. -1.
     999900   -1    0    0    0    0 -0.00000000000E+00 -0.00000000000E+00 -0.74505805969E-08  0.93827000000E+00  0.93827000000E+00 0. -1.
     999902    2    1    2    0    0  0.21203735393E-01 -0.52427351460E-02  0.99147233204E-02  0.10199427866E+01  0.10196606796E+01 0.  0.
     999903    2    3    3    0    0 -0.92691491308E-01 -0.62618229319E-01  0.61374163552E-01  0.12926206719E+00  0.20715667012E-01 0.  0.
         14    1    1    2    0    0 -0.21203735393E-01  0.52427351460E-02 -0.99147233204E-02  0.23987213363E-01  0.00000000000E+00 0. -1.
     999901    1    3    3    0    0  0.11389522670E+00  0.57375494173E-01 -0.51459440232E-01  0.89068071944E+00  0.88000000000E+00 0. -1.
        -11    1    4    4    0    0 -0.34558315973E-01 -0.11722446065E-01  0.19648378117E-01  0.41448918300E-01  0.51100000000E-03 0. -1.
         11    1    4    4    0    0 -0.58133175335E-01 -0.50895783254E-01  0.41725785435E-01  0.87813148894E-01  0.51100000000E-03 0.  1.
</event>
<event>
 8    1  0.1099478E+005  0.1043930E+01  0.7957747E-01            NaN
         13   -1    0    0    0    0  0.00000000000E+00  0.00000000000E+00  0.74505805969E-08  0.10566000000E+00  0.10566000000E+00 0. -1.
     999900   -1    0    0    0    0 -0.00000000000E+00 -0.00000000000E+00 -0.74505805969E-08  0.93827000000E+00  0.93827000000E+00 0. -1.
     999902    2    1    2    0    0  0.20419801193E-01 -0.73412833248E-02 -0.95482380746E-02  0.10202227949E+01  0.10199473122E+01 0.  0.
     999903    2    3    3    0    0 -0.85838198251E-01 -0.85655635237E-01  0.39584350918E-01  0.12902253043E+00  0.19359968831E-01 0.  0.
         14    1    1    2    0    0 -0.20419801193E-01  0.73412833248E-02  0.95482380746E-02  0.23707205064E-01  0.00000000000E+00 0. -1.
     999901    1    3    3    0    0  0.10625799944E+00  0.78314351912E-01 -0.49132588992E-01  0.89120026451E+00  0.88000000000E+00 0.  1.
        -11    1    4    4    0    0 -0.70781149792E-01 -0.78709985341E-01  0.37501858801E-01  0.11230264241E+00  0.51100000000E-03 0. -1.
         11    1    4    4    0    0 -0.15057048459E-01 -0.69456498960E-02  0.20824921167E-02  0.16719888014E-01  0.51100000000E-03 0.  1.
</event>
<event>
 8    1  0.1099478E+005  0.1043930E+01  0.7957747E-01            NaN
         13   -1    0    0    0    0  0.00000000000E+00  0.00000000000E+00  0.74505805969E-08  0.10566000000E+00  0.10566000000E+00 0. -1.
     999900   -1    0    0    0    0 -0.00000000000E+00 -0.00000000000E+00 -0.74505805969E-08  0.93827000000E+00  0.93827000000E+00 0. -1.
     999902    2    1    2    0    0 -0.61972844547E-03 -0.23883871738E-01 -0.25018005791E-02  0.10199074606E+01  0.10196245122E+01 0.  0.
     999903    2    3    3    0    0 -0.37662620622E-01  0.30865836587E-01 -0.11865901012E+00  0.12981633957E+00  0.20028691339E-01 0.  0.
         14    1    1    2    0    0  0.61972844547E-03  0.23883871738E-01  0.25018005791E-02  0.24022539389E-01  0.00000000000E+00 0.  1.
     999901    1    3    3    0    0  0.37042892176E-01 -0.54749708325E-01  0.11615720954E+00  0.89009112104E+00  0.88000000000E+00 0.  1.
        -11    1    4    4    0    0 -0.21562166281E-01  0.20444093677E-01 -0.46783558713E-01  0.55424276881E-01  0.51100000000E-03 0. -1.
         11    1    4    4    0    0 -0.16100454341E-01  0.10421742910E-01 -0.71875451409E-01  0.74392062692E-01  0.51100000000E-03 0.  1.
</event>
<event>
 8    1  0.1099478E+005  0.1043930E+01  0.7957747E-01            NaN
         13   -1    0    0    0    0  0.00000000000E+00  0.00000000000E+00  0.74505805969E-08  0.10566000000E+00  0.10566000000E+00 0.  1.
     999900   -1    0    0    0    0 -0.00000000000E+00 -0.00000000000E+00 -0.74505805969E-08  0.93827000000E+00  0.93827000000E+00 0. -1.
     999902    2    1    2    0    0 -0.17912097782E-02 -0.10102346066E-01  0.21278428696E-01  0.10203071857E+01  0.10200336837E+01 0.  0.
     999903    2    3    3    0    0  0.10872341770E-01 -0.38086183655E-01  0.12603326308E+00  0.13356199340E+00  0.19638163818E-01 0.  0.
         14    1    1    2    0    0  0.17912097782E-02  0.10102346066E-01 -0.21278428696E-01  0.23622814318E-01  0.00000000000E+00 0. -1.
     999901    1    3    3    0    0 -0.12663551549E-01  0.27983837589E-01 -0.10475483438E+00  0.88674519228E+00  0.88000000000E+00 0. -1.
        -11    1    4    4    0    0  0.89800910622E-03 -0.23858717136E-02  0.37376486775E-01  0.37466807828E-01  0.51100000000E-03 0. -1.
         11    1    4    4    0    0  0.99743326642E-02 -0.35700311942E-01  0.88656776306E-01  0.96095185575E-01  0.51100000000E-03 0.  1.
</event>
<event>
 8    1  0.1099478E+005  0.1043930E+01  0.7957747E-01            NaN
         13   -1    0    0    0    0  0.00000000000E+00  0.00000000000E+00  0.74505805969E-08  0.10566000000E+00  0.10566000000E+00 0. -1.
     999900   -1    0    0    0    0 -0.00000000000E+00 -0.00000000000E+00 -0.74505805969E-08  0.93827000000E+00  0.93827000000E+00 0. -1.
     999902    2    1    2    0    0 -0.20092074566E-01 -0.96532141948E-02 -0.55314480812E-02  0.10209632213E+01  0.10207048674E+01 0.  0.
     999903    2    3    3    0    0  0.66156078734E-01  0.99028273181E-01 -0.45962685894E-01  0.12917563752E+00  0.19762368055E-01 0.  0.
         14    1    1    2    0    0  0.20092074566E-01  0.96532141948E-02  0.55314480812E-02  0.22966778671E-01  0.00000000000E+00 0.  1.
     999901    1    3    3    0    0 -0.86248153300E-01 -0.10868148738E+00  0.40431237812E-01  0.89178758381E+00  0.88000000000E+00 0. -1.
        -11    1    4    4    0    0  0.29598104045E-01  0.53918880234E-01 -0.14757073186E-01  0.63256033220E-01  0.51100000000E-03 0.  1.
         11    1    4    4    0    0  0.36557974689E-01  0.45109392947E-01 -0.31205612708E-01  0.65919604299E-01  0.51100000000E-03 0. -1.
</event>
<event>
 8    1  0.1099478E+005  0.1043930E+01  0.7957747E-01            NaN
         13   -1    0    0    0    0  0.00000000000E+00  0.00000000000E+00  0.74505805969E-08  0.10566000000E+00  0.10566000000E+00 0. -1.
     999900   -1    0    0    0    0 -0.00000000000E+00 -0.00000000000E+00 -0.74505805969E-08  0.93827000000E+00  0.93827000000E+00 0.  1.
     999902    2    1    2    0    0 -0.16046929388E-01 -0.15945544156E-01 -0.69162028834E-02  0.10202741723E+01  0.10199998963E+01 0.  0.
     999903    2    3    3    0    0  0.10749329740E-01 -0.79542179511E-01 -0.10361201990E+00  0.13229182307E+00  0.17976912248E-01 0.  0.
         14    1    1    2    0    0  0.16046929388E-01  0.15945544156E-01  0.69162028834E-02  0.23655827687E-01  0.00000000000E+00 0. -1.
     999901    1    3    3    0    0 -0.26796259127E-01  0.63596635355E-01  0.96695817014E-01  0.88798234924E+00  0.88000000000E+00 0. -1.
        -11    1    4    4    0    0  0.93032775664E-02 -0.52716050394E-01 -0.81420507565E-01  0.97442768412E-01  0.51100000000E-03 0.  1.
         11    1    4    4    0    0  0.14460521731E-02 -0.26826129117E-01 -0.22191512332E-01  0.34849054662E-01  0.51100000000E-03 0. -1.
</event>
<event>
 8    1  0.1099478E+005  0.1043930E+01  0.7957747E-01            NaN
         13   -1    0    0    0    0  0.00000000000E+00  0.00000000000E+00  0.74505805969E-08  0.10566000000E+00  0.10566000000E+00 0.  1.
     999900   -1    0    0    0    0 -0.00000000000E+00 -0.00000000000E+00 -0.74505805969E-08  0.93827000000E+00  0.93827000000E+00 0. -1.
     999902    2    1    2    0    0  0.14209347248E-01  0.18353934492E-01 -0.27222648393E-02  0.10205594376E+01  0.10202918124E+01 0.  0.
     999903    2    3    3    0    0 -0.10205041346E+00  0.33346177813E-01 -0.70833366008E-01  0.13017737275E+00  0.20063104782E-01 0.  0.
         14    1    1    2    0    0 -0.14209347248E-01 -0.18353934492E-01  0.27222648393E-02  0.23370562390E-01  0.00000000000E+00 0. -1.
     999901    1    3    3    0    0  0.11625976071E+00 -0.14992243321E-01  0.68111101169E-01  0.89038206486E+00  0.88000000000E+00 0.  1.
        -11    1    4    4    0    0 -0.59123608611E-01  0.22586465090E-01 -0.30335778089E-01  0.70187392413E-01  0.51100000000E-03 0. -1.
         11    1    4    4    0    0 -0.42926804853E-01  0.10759712724E-01 -0.40497587918E-01  0.59989980338E-01  0.51100000000E-03 0.  1.
</event>
<event>
 8    1  0.1099478E+005  0.1043930E+01  0.7957747E-01            NaN
         13   -1    0    0    0    0  0.00000000000E+00  0.00000000000E+00  0.74505805969E-08  0.10566000000E+00  0.10566000000E+00 0.  1.
     999900   -1    0    0    0    0 -0.00000000000E+00 -0.00000000000E+00 -0.74505805969E-08  0.93827000000E+00  0.93827000000E+00 0.  1.
     999902    2    1    2    0    0  0.46392787004E-02 -0.20422327349E-01 -0.11602978594E-01  0.10199879142E+01  0.10197068802E+01 0.  0.
     999903    2    3    3    0    0  0.37747653103E-01 -0.10320796003E+00 -0.73330544116E-01  0.13333131900E+00  0.17975082696E-01 0.  0.
         14    1    1    2    0    0 -0.46392787004E-02  0.20422327349E-01  0.11602978594E-01  0.23942085821E-01  0.00000000000E+00 0.  1.
     999901    1    3    3    0    0 -0.33108374403E-01  0.82785632677E-01  0.61727565523E-01  0.88665659518E+00  0.88000000000E+00 0. -1.
        -11    1    4    4    0    0  0.16437364727E-01 -0.55602086866E-01 -0.48354084655E-01  0.75499388387E-01  0.51100000000E-03 0. -1.
         11    1    4    4    0    0  0.21310288376E-01 -0.47605873159E-01 -0.24976459461E-01  0.57831930611E-01  0.51100000000E-03 0.  1.
</event>
<event>
 8    1  0.1099478E+005  0.1043930E+01  0.7957747E-01            NaN
         13   -1    0    0    0    0  0.00000000000E+00  0.00000000000E+00  0.74505805969E-08  0.10566000000E+00  0.10566000000E+00 0. -1.
     999900   -1    0    0    0    0 -0.00000000000E+00 -0.00000000000E+00 -0.74505805969E-08  0.93827000000E+00  0.93827000000E+00 0. -1.
     999902    2    1    2    0    0  0.15947826938E-01 -0.16784435617E-01 -0.33166749438E-02  0.10205408830E+01  0.10202728277E+01 0.  0.
     999903    2    3    3    0    0 -0.69652109782E-02 -0.12916051638E+00 -0.22941271168E-01  0.13288187433E+00  0.20008434425E-01 0.  0.
         14    1    1    2    0    0 -0.15947826938E-01  0.16784435617E-01  0.33166749438E-02  0.23389117035E-01  0.00000000000E+00 0. -1.
     999901    1    3    3    0    0  0.22913037916E-01  0.11237608076E+00  0.19624596224E-01  0.88765900863E+00  0.88000000000E+00 0.  1.
        -11    1    4    4    0    0 -0.13051778004E-01 -0.71981078872E-01 -0.89718410377E-02  0.73704678802E-01  0.51100000000E-03 0. -1.
         11    1    4    4    0    0  0.60865670258E-02 -0.57179437504E-01 -0.13969430130E-01  0.59177195528E-01  0.51100000000E-03 0.  1.
</event>
<event>
 8    1  0.1099478E+005  0.1043930E+01  0.7957747E-01            NaN
         13   -1    0    0    0    0  0.00000000000E+00  0.00000000000E+00  0.74505805969E-08  0.10566000000E+00  0.10566000000E+00 0.  1.
     999900   -1    0    0    0    0 -0.00000000000E+00 -0.00000000000E+00 -0.74505805969E-08  0.93827000000E+00  0.93827000000E+00 0. -1.
     999902    2    1    2    0    0 -0.20706701481E-01 -0.90227294683E-02  0.58507778770E-02  0.10205974319E+01  0.10203306862E+01 0.  0.
     999903    2    3    3    0    0 -0.13198074743E+00 -0.41412967648E-02  0.14416820847E-02  0.13356576288E+00  0.20041620068E-01 0.  0.
         14    1    1    2    0    0  0.20706701481E-01  0.90227294683E-02 -0.58507778770E-02  0.23332568119E-01  0.00000000000E+00 0.  1.
     999901    1    3    3    0    0  0.11127404595E+00 -0.48814327035E-02  0.44090957923E-02  0.88703166900E+00  0.88000000000E+00 0.  1.
        -11    1    4    4    0    0 -0.41855864362E-01 -0.42725949148E-02 -0.83895594566E-02  0.42904711602E-01  0.51100000000E-03 0. -1.
         11    1    4    4    0    0 -0.90124883068E-01  0.13129814997E-03  0.98312415413E-02  0.90661051276E-01  0.51100000000E-03 0.  1.
</event>
<event>
 7    1  0.1099478E+005  0.1043930E+01  0.7957747E-01            NaN
         13   -1    0    0    0    0  0.00000000000E+00  0.00000000000E+00  0.74505805969E-08  0.10566000000E+00  0.10566000000E+00 0. -1.
     999900   -1    0    0    0    0 -0.00000000000E+00 -0.00000000000E+00 -0.74505805969E-08  0.93827000000E+00  0.93827000000E+00 0. -1.
     999902    2    1    2    0    0  0.20702798874E-01  0.71803913406E-02  0.78333365392E-02  0.10206593089E+01  0.10203939925E+01 0.  0.
         14    1    1    2    0    0 -0.20702798874E-01 -0.71803913406E-02 -0.78333365392E-02  0.23270691059E-01  0.00000000000E+00 0.  1.
     999901    1    3    3    0    0  0.37049907501E-01  0.81347741192E-02  0.13141151154E+00  0.89056603100E+00  0.88000000000E+00 0.  1.
        -11    1    3    3    0    0 -0.27942287370E-01 -0.42774608211E-02 -0.78892480228E-01  0.83805445241E-01  0.51100000000E-03 0. -1.
         11    1    3    3    0    0  0.11595178743E-01  0.33230780424E-02 -0.44685694778E-01  0.46287832705E-01  0.51100000000E-03 0.  1.
</event>
<event>
 8    1  0.1099478E+005  0.1043930E+01  0.7957747E-01            NaN
         13   -1    0    0    0    0  0.00000000000E+00  0.00000000000E+00  0.74505805969E-08  0.10566000000E+00  0.10566000000E+00 0.  1.
     999900   -1    0    0    0    0 -0.00000000000E+00 -0.00000000000E+00 -0.74505805969E-08  0.93827000000E+00  0.93827000000E+00 0.  1.
     999902    2    1    2    0    0 -0.21347286415E-01  0.12451858034E-01 -0.35135971275E-02  0.10189680135E+01  0.10186622167E+01 0.  0.
     999903    2    3    3    0    0  0.35941718273E-01  0.81366764140E-01 -0.92507777607E-01  0.12995099537E+00  0.20425838088E-01 0.  0.
         14    1    1    2    0    0  0.21347286415E-01 -0.12451858034E-01  0.35135971275E-02  0.24961986511E-01  0.00000000000E+00 0. -1.
     999901    1    3    3    0    0 -0.57289004688E-01 -0.68914906107E-01  0.88994180479E-01  0.88901701812E+00  0.88000000000E+00 0. -1.
        -11    1    4    4    0    0  0.34921162219E-01  0.61971302171E-01 -0.65626611491E-01  0.96783485783E-01  0.51100000000E-03 0. -1.
         11    1    4    4    0    0  0.10205560541E-02  0.19395461969E-01 -0.26881166116E-01  0.33167509590E-01  0.51100000000E-03 0.  1.
</event>
<event>
 8    1  0.1099478E+005  0.1043930E+01  0.7957747E-01            NaN
         13   -1    0    0    0    0  0.00000000000E+00  0.00000000000E+00  0.74505805969E-08  0.10566000000E+00  0.10566000000E+00 0.  1.
     999900   -1    0    0    0    0 -0.00000000000E+00 -0.00000000000E+00 -0.74505805969E-08  0.93827000000E+00  0.93827000000E+00 0.  1.
     999902    2    1    2    0    0 -0.24738833888E-02  0.26276338891E-02  0.14166685078E-01  0.10293108507E+01  0.10292070287E+01 0.  0.
     999903    2    3    3    0    0 -0.15395215056E-01 -0.68713088810E-01  0.11944835341E+00  0.14007483640E+00  0.19863268599E-01 0.  0.
         14    1    1    2    0    0  0.24738833888E-02 -0.26276338891E-02 -0.14166685078E-01  0.14619149257E-01  0.00000000000E+00 0. -1.
     999901    1    3    3    0    0  0.12921331667E-01  0.71340722699E-01 -0.10528166833E+00  0.88923601435E+00  0.88000000000E+00 0.  1.
        -11    1    4    4    0    0 -0.69815576198E-02 -0.43626196510E-01  0.56027093614E-01  0.71353230541E-01  0.51100000000E-03 0. -1.
         11    1    4    4    0    0 -0.84136574359E-02 -0.25086892300E-01  0.63421259792E-01  0.68721605855E-01  0.51100000000E-03 0.  1.
</event>
<event>
 8    1  0.1099478E+005  0.1043930E+01  0.7957747E-01            NaN
         13   -1    0    0    0    0  0.00000000000E+00  0.00000000000E+00  0.74505805969E-08  0.10566000000E+00  0.10566000000E+00 0.  1.
     999900   -1    0    0    0    0 -0.00000000000E+00 -0.00000000000E+00 -0.74505805969E-08  0.93827000000E+00  0.93827000000E+00 0. -1.
     999902    2    1    2    0    0 -0.10117515530E-01  0.74590827856E-02 -0.20099479913E-01  0.10202236479E+01  0.10199481853E+01 0.  0.
     999903    2    3    3    0    0 -0.72069115573E-02 -0.10551409933E+00  0.70064250744E-01  0.12842719702E+00  0.19984518269E-01 0.  0.
         14    1    1    2    0    0  0.10117515530E-01 -0.74590827856E-02  0.20099479913E-01  0.23706352087E-01  0.00000000000E+00 0.  1.
     999901    1    3    3    0    0 -0.29106039725E-02  0.11297318212E+00 -0.90163730657E-01  0.89179645089E+00  0.88000000000E+00 0. -1.
        -11    1    4    4    0    0 -0.28264217618E-02 -0.25564303150E-01  0.27836246596E-01  0.37903034194E-01  0.51100000000E-03 0. -1.
         11    1    4    4    0    0 -0.43804897955E-02 -0.79949796184E-01  0.42228004148E-01  0.90524162830E-01  0.51100000000E-03 0.  1.
</event>
<event>
 8    1  0.1099478E+005  0.1043930E+01  0.7957747E-01            NaN
         13   -1    0    0    0    0  0.00000000000E+00  0.00000000000E+00  0.74505805969E-08  0.10566000000E+00  0.10566000000E+00 0. -1.
     999900   -1    0    0    0    0 -0.00000000000E+00 -0.00000000000E+00 -0.74505805969E-08  0.93827000000E+00  0.93827000000E+00 0. -1.
     999902    2    1    2    0    0  0.64002832319E-02  0.20800326077E-01 -0.10964454751E-01  0.10195612401E+01  0.10192699769E+01 0.  0.
     999903    2    3    3    0    0 -0.25949457125E-01  0.10727789670E-01 -0.12674835768E+00  0.13133048526E+00  0.19851709923E-01 0.  0.
         14    1    1    2    0    0 -0.64002832319E-02 -0.20800326077E-01  0.10964454751E-01  0.24368759885E-01  0.00000000000E+00 0. -1.
     999901    1    3    3    0    0  0.32349740357E-01  0.10072536407E-01  0.11578390293E+00  0.88823075485E+00  0.88000000000E+00 0.  1.
        -11    1    4    4    0    0 -0.17180677479E-01  0.13034220126E-01 -0.56160834786E-01  0.60161175668E-01  0.51100000000E-03 0.  1.
         11    1    4    4    0    0 -0.87687796457E-02 -0.23064304566E-02 -0.70587522899E-01  0.71169309593E-01  0.51100000000E-03 0. -1.
</event>
<event>
 8    1  0.1099478E+005  0.1043930E+01  0.7957747E-01            NaN
         13   -1    0    0    0    0  0.00000000000E+00  0.00000000000E+00  0.74505805969E-08  0.10566000000E+00  0.10566000000E+00 0.  1.
     999900   -1    0    0    0    0 -0.00000000000E+00 -0.00000000000E+00 -0.74505805969E-08  0.93827000000E+00  0.93827000000E+00 0. -1.
     999902    2    1    2    0    0  0.88500672488E-02  0.21559251967E-01 -0.60068150761E-02  0.10198632831E+01  0.10195792805E+01 0.  0.
     999903    2    3    3    0    0 -0.83841986267E-01  0.51750780824E-01  0.82612620035E-01  0.13005614135E+00  0.19548220823E-01 0.  0.
         14    1    1    2    0    0 -0.88500672488E-02 -0.21559251967E-01  0.60068150761E-02  0.24066716915E-01  0.00000000000E+00 0.  1.
     999901    1    3    3    0    0  0.92692053515E-01 -0.30191528857E-01 -0.88619435111E-01  0.88980714173E+00  0.88000000000E+00 0. -1.
        -11    1    4    4    0    0 -0.45435060468E-01  0.20701923513E-01  0.51235558454E-01  0.71542001146E-01  0.51100000000E-03 0. -1.
         11    1    4    4    0    0 -0.38406925799E-01  0.31048857311E-01  0.31377061581E-01  0.58514140207E-01  0.51100000000E-03 0.  1.
</event>
<event>
 7    1  0.1099478E+005  0.1043930E+01  0.7957747E-01            NaN
         13   -1    0    0    0    0  0.00000000000E+00  0.00000000000E+00  0.74505805969E-08  0.10566000000E+00  0.10566000000E+00 0.  1.
     999900   -1    0    0    0    0 -0.00000000000E+00 -0.00000000000E+00 -0.74505805969E-08  0.93827000000E+00  0.93827000000E+00 0.  1.
     999903    2    1    2    0    0  0.19786700060E-02  0.87391320505E-01  0.80861012507E-02  0.90076821271E-01  0.20181443513E-01 0.  0.
         14    1    1    2    0    0 -0.21455037509E-01  0.57845769226E-01 -0.13002210603E-02  0.61710146870E-01  0.00000000000E+00 0. -1.
     999901    1    1    2    0    0  0.19476367503E-01 -0.14523708973E+00 -0.67858801904E-02  0.89214303186E+00  0.88000000000E+00 0.  1.
        -11    1    3    3    0    0 -0.59169533916E-02  0.31817784068E-01 -0.41278036456E-02  0.32629459149E-01  0.51100000000E-03 0.  1.
         11    1    3    3    0    0  0.78956233976E-02  0.55573536437E-01  0.12213904896E-01  0.57447362122E-01  0.51100000000E-03 0. -1.
</event>
<event>
 8    1  0.1099478E+005  0.1043930E+01  0.7957747E-01            NaN
         13   -1    0    0    0    0  0.00000000000E+00  0.00000000000E+00  0.74505805969E-08  0.10566000000E+00  0.10566000000E+00 0. -1.
     999900   -1    0    0    0    0 -0.00000000000E+00 -0.00000000000E+00 -0.74505805969E-08  0.93827000000E+00  0.93827000000E+00 0. -1.
     999902    2    1    2    0    0  0.20684066547E-01  0.48562260798E-02  0.90083811648E-02  0.10208526416E+01  0.10205917653E+01 0.  0.
     999903    2    3    3    0    0  0.11176058784E+00  0.27565094518E-01  0.65621307067E-01  0.13405184725E+00  0.20334167778E-01 0.  0.
         14    1    1    2    0    0 -0.20684066547E-01 -0.48562260798E-02 -0.90083811648E-02  0.23077358425E-01  0.00000000000E+00 0.  1.
     999901    1    3    3    0    0 -0.91076521296E-01 -0.22708868438E-01 -0.56612925902E-01  0.88680079433E+00  0.88000000000E+00 0. -1.
        -11    1    4    4    0    0  0.42263740179E-01  0.20674911915E-01  0.26338812225E-01  0.53922813976E-01  0.51100000000E-03 0. -1.
         11    1    4    4    0    0  0.69496847663E-01  0.68901826031E-02  0.39282494842E-01  0.80129033274E-01  0.51100000000E-03 0.  1.
</event>
<event>
 8    1  0.1099478E+005  0.1043930E+01  0.7957747E-01            NaN
         13   -1    0    0    0    0  0.00000000000E+00  0.00000000000E+00  0.74505805969E-08  0.10566000000E+00  0.10566000000E+00 0.  1.
     999900   -1    0    0    0    0 -0.00000000000E+00 -0.00000000000E+00 -0.74505805969E-08  0.93827000000E+00  0.93827000000E+00 0.  1.
     999902    2    1    2    0    0  0.14522507061E-01 -0.98014172573E-02 -0.15340437035E-01  0.10206426644E+01  0.10203769639E+01 0.  0.
     999903    2    3    3    0    0 -0.98647918219E-01  0.74753484533E-01  0.27241699354E-01  0.12835890071E+00  0.20356865914E-01 0.  0.
         14    1    1    2    0    0 -0.14522507061E-01  0.98014172573E-02  0.15340437035E-01  0.23287335614E-01  0.00000000000E+00 0. -1.
     999901    1    3    3    0    0  0.11317042528E+00 -0.84554901790E-01 -0.42582136389E-01  0.89228376367E+00  0.88000000000E+00 0.  1.
        -11    1    4    4    0    0 -0.39865963410E-01  0.23059556067E-01  0.18336593268E-01  0.49573480192E-01  0.51100000000E-03 0.  1.
         11    1    4    4    0    0 -0.58781954809E-01  0.51693928465E-01  0.89051060861E-02  0.78785420521E-01  0.51100000000E-03 0. -1.
</event>
<event>
 8    1  0.1099478E+005  0.1043930E+01  0.7957747E-01            NaN
         13   -1    0    0    0    0  0.00000000000E+00  0.00000000000E+00  0.74505805969E-08  0.10566000000E+00  0.10566000000E+00 0. -1.
     999900   -1    0    0    0    0 -0.00000000000E+00 -0.00000000000E+00 -0.74505805969E-08  0.93827000000E+00  0.93827000000E+00 0.  1.
     999902    2    1    2    0    0 -0.16663016214E-01  0.11239630338E-02 -0.16228103473E-01  0.10206432925E+01  0.10203776065E+01 0.  0.
     999903    2    3    3    0    0  0.46424414728E-01 -0.84533063004E-01  0.82851761591E-01  0.12871618244E+00  0.20059317053E-01 0.  0.
         14    1    1    2    0    0  0.16663016214E-01 -0.11239630338E-02  0.16228103473E-01  0.23286707466E-01  0.00000000000E+00 0.  1.
     999901    1    3    3    0    0 -0.63087430942E-01  0.85657026037E-01 -0.99079865064E-01  0.89192711009E+00  0.88000000000E+00 0.  1.
        -11    1    4    4    0    0  0.57636372679E-02 -0.14304054642E-01  0.23755031759E-01  0.28326456690E-01  0.51100000000E-03 0. -1.
         11    1    4    4    0    0  0.40660777460E-01 -0.70229008361E-01  0.59096729833E-01  0.10038972575E+00  0.51100000000E-03 0.  1.
</event>
<event>
 8    1  0.1099478E+005  0.1043930E+01  0.7957747E-01            NaN
         13   -1    0    0    0    0  0.00000000000E+00  0.00000000000E+00  0.74505805969E-08  0.10566000000E+00  0.10566000000E+00 0. -1.
     999900   -1    0    0    0    0 -0.00000000000E+00 -0.00000000000E+00 -0.74505805969E-08  0.93827000000E+00  0.93827000000E+00 0.  1.
     999902    2    1    2    0    0 -0.39094615568E-02  0.19477568973E-01 -0.14545652788E-01  0.10193081480E+01  0.10190107286E+01 0.  0.
     999903    2    3    3    0    0  0.10664847202E+00 -0.52814935221E-01 -0.45508741431E-01  0.12891049764E+00  0.19584608466E-01 0.  0.
         14    1    1    2    0    0  0.39094615568E-02 -0.19477568973E-01  0.14545652788E-01  0.24621852038E-01  0.00000000000E+00 0. -1.
     999901    1    3    3    0    0 -0.11055793358E+00  0.72292504194E-01  0.30963088644E-01  0.89039765032E+00  0.88000000000E+00 0. -1.
        -11    1    4    4    0    0  0.80301043645E-01 -0.46257570247E-01 -0.28884419726E-01  0.97070032655E-01  0.51100000000E-03 0. -1.
         11    1    4    4    0    0  0.26347428375E-01 -0.65573649734E-02 -0.16624321705E-01  0.31840464986E-01  0.51100000000E-03 0.  1.
</event>
<event>
 8    1  0.1099478E+005  0.1043930E+01  0.7957747E-01            NaN
         13   -1    0    0    0    0  0.00000000000E+00  0.00000000000E+00  0.74505805969E-08  0.10566000000E+00  0.10566000000E+00 0. -1.
     999900   -1    0    0    0    0 -0.00000000000E+00 -0.00000000000E+00 -0.74505805969E-08  0.93827000000E+00  0.93827000000E+00 0. -1.
     999902    2    1    2    0    0 -0.18941909679E-01 -0.68151156231E-02 -0.13130464575E-01  0.10198956320E+01  0.10196124016E+01 0.  0.
     999903    2    3    3    0    0 -0.11089637061E+00 -0.70528501074E-01 -0.15748020090E-02  0.13273806334E+00  0.18564454723E-01 0.  0.
         14    1    1    2    0    0  0.18941909679E-01  0.68151156231E-02  0.13130464575E-01  0.24034367959E-01  0.00000000000E+00 0.  1.
     999901    1    3    3    0    0  0.91954460930E-01  0.63713385451E-01 -0.11555662566E-01  0.88715756870E+00  0.88000000000E+00 0. -1.
        -11    1    4    4    0    0 -0.98026219428E-01 -0.54704057366E-01  0.18528566651E-03  0.11225849206E+00  0.51100000000E-03 0.  1.
         11    1    4    4    0    0 -0.12870151180E-01 -0.15824443709E-01 -0.17600876755E-02  0.20479571278E-01  0.51100000000E-03 0. -1.
</event>
<event>
 8    1  0.1099478E+005  0.1043930E+01  0.7957747E-01            NaN
         13   -1    0    0    0    0  0.00000000000E+00  0.00000000000E+00  0.74505805969E-08  0.10566000000E+00  0.10566000000E+00 0. -1.
     999900   -1    0    0    0    0 -0.00000000000E+00 -0.00000000000E+00 -0.74505805969E-08  0.93827000000E+00  0.93827000000E+00 0. -1.
     999902    2    1    2    0    0  0.38394770801E-02 -0.21475037832E-01  0.92464363343E-02  0.10202357936E+01  0.10199606164E+01 0.  0.
     999903    2    3    3    0    0 -0.10595500344E+00  0.45171559388E-01 -0.53557916426E-01  0.12869724498E+00  0.20678440975E-01 0.  0.
         14    1    1    2    0    0 -0.38394770801E-02  0.21475037832E-01 -0.92464363343E-02  0.23694206444E-01  0.00000000000E+00 0. -1.
     999901    1    3    3    0    0  0.10979448052E+00 -0.66646597220E-01  0.62804352760E-01  0.89153854858E+00  0.88000000000E+00 0. -1.
        -11    1    4    4    0    0 -0.59059498829E-01  0.28717331528E-01 -0.19717393358E-01  0.68569280687E-01  0.51100000000E-03 0.  1.
         11    1    4    4    0    0 -0.46895504613E-01  0.16454227860E-01 -0.33840523068E-01  0.60127964292E-01  0.51100000000E-03 0. -1.
</event>
<event>
 8    1  0.1099478E+005  0.1043930E+01  0.7957747E-01            NaN
         13   -1    0    0    0    0  0.00000000000E+00  0.00000000000E+00  0.74505805969E-08  0.10566000000E+00  0.10566000000E+00 0.  1.
     999900   -1    0    0    0    0 -0.00000000000E+00 -0.00000000000E+00 -0.74505805969E-08  0.93827000000E+00  0.93827000000E+00 0.  1.
     999902    2    1    2    0    0  0.22216469951E-01  0.80418174344E-02  0.24626066782E-02  0.10201748575E+01  0.10198982464E+01 0.  0.
     999903    2    3    3    0    0  0.26533354924E-01  0.11207499346E+00  0.61427893992E-01  0.13207664088E+00  0.20150181708E-01 0.  0.
         14    1    1    2    0    0 -0.22216469951E-01 -0.80418174344E-02 -0.24626066782E-02  0.23755142525E-01  0.00000000000E+00 0. -1.
     999901    1    3    3    0    0 -0.43168849733E-02 -0.10403317603E+00 -0.58965287314E-01  0.88809821659E+00  0.88000000000E+00 0. -1.
        -11    1    4    4    0    0  0.14612243279E-01  0.48304512115E-01  0.16254958367E-01  0.53021960892E-01  0.51100000000E-03 0. -1.
         11    1    4    4    0    0  0.11921111645E-01  0.63770481348E-01  0.45172935625E-01  0.79054679989E-01  0.51100000000E-03 0.  1.
</event>
<event>
 8    1  0.1099478E+005  0.1043930E+01  0.7957747E-01            NaN
         13   -1    0    0    0    0  0.00000000000E+00  0.00000000000E+00  0.74505805969E-08  0.10566000000E+00  0.10566000000E+00 0.  1.
     999900   -1    0    0    0    0 -0.00000000000E+00 -0.00000000000E+00 -0.74505805969E-08  0.93827000000E+00  0.93827000000E+00 0.  1.
     999902    2    1    2    0    0  0.19852467654E-02 -0.18800585597E-01  0.12068214854E-01  0.10215013346E+01  0.10212550766E+01 0.  0.
     999903    2    3    3    0    0  0.10561641533E+00  0.72037973548E-01 -0.16215922701E-01  0.13032735864E+00  0.19441384777E-01 0.  0.
         14    1    1    2    0    0 -0.19852467654E-02  0.18800585597E-01 -0.12068214854E-01  0.22428665437E-01  0.00000000000E+00 0.  1.
     999901    1    3    3    0    0 -0.10363116856E+00 -0.90838559146E-01  0.28284137554E-01  0.89117397592E+00  0.88000000000E+00 0. -1.
        -11    1    4    4    0    0  0.73834958002E-01  0.43564744945E-01 -0.35111235639E-02  0.85802547369E-01  0.51100000000E-03 0.  1.
         11    1    4    4    0    0  0.31781457323E-01  0.28473228603E-01 -0.12704799137E-01  0.44524811272E-01  0.51100000000E-03 0. -1.
</event>
<event>
 8    1  0.1099478E+005  0.1043930E+01  0.7957747E-01            NaN
         13   -1    0    0    0    0  0.00000000000E+00  0.00000000000E+00  0.74505805969E-08  0.10566000000E+00  0.10566000000E+00 0.  1.
     999900   -1    0    0    0    0 -0.00000000000E+00 -0.00000000000E+00 -0.74505805969E-08  0.93827000000E+00  0.93827000000E+00 0.  1.
     999902    2    1    2    0    0 -0.23065571092E-01  0.45583107911E-02 -0.40486434824E-02  0.10200722910E+01  0.10197932577E+01 0.  0.
     999903    2    3    3    0    0  0.17971075334E-01  0.12308541283E+00  0.32276140072E-01  0.13043631474E+00  0.22336172091E-01 0.  0.
         14    1    1    2    0    0  0.23065571092E-01 -0.45583107911E-02  0.40486434824E-02  0.23857709050E-01  0.00000000000E+00 0.  1.
     999901    1    3    3    0    0 -0.41036646426E-01 -0.11852710204E+00 -0.36324783554E-01  0.88963597621E+00  0.88000000000E+00 0.  1.
        -11    1    4    4    0    0  0.63250878500E-02  0.56522994304E-01  0.34900094467E-02  0.56985058641E-01  0.51100000000E-03 0.  1.
         11    1    4    4    0    0  0.11645987484E-01  0.66562418530E-01  0.28786130625E-01  0.73451256098E-01  0.51100000000E-03 0. -1.
</event>
<event>
 8    1  0.1099478E+005  0.1043930E+01  0.7957747E-01            NaN
         13   -1    0    0    0    0  0.00000000000E+00  0.00000000000E+00  0.74505805969E-08  0.10566000000E+00  0.10566000000E+00 0. -1.
     999900   -1    0    0    0    0 -0.00000000000E+00 -0.00000000000E+00 -0.74505805969E-08  0.93827000000E+00  0.93827000000E+00 0. -1.
     999902    2    1    2    0    0 -0.59266106182E-02 -0.20859760832E-01 -0.10251913932E-01  0.10199434189E+01  0.10196613269E+01 0.  0.
     999903    2    3    3    0    0 -0.17781601278E-01  0.39030716502E-02 -0.12878390233E+00  0.13157211645E+00  0.19862251016E-01 0.  0.
         14    1    1    2    0    0  0.59266106182E-02  0.20859760832E-01  0.10251913932E-01  0.23986581137E-01  0.00000000000E+00 0. -1.
     999901    1    3    3    0    0  0.11854990660E-01 -0.24762832482E-01  0.11853198840E+00  0.88837130241E+00  0.88000000000E+00 0.  1.
        -11    1    4    4    0    0 -0.16453120729E-01 -0.35514415783E-02 -0.58375666528E-01  0.60756048939E-01  0.51100000000E-03 0. -1.
         11    1    4    4    0    0 -0.13284805489E-02  0.74545132285E-02 -0.70408235802E-01  0.70816067511E-01  0.51100000000E-03 0.  1.
</event>
<event>
 8    1  0.1099478E+005  0.1043930E+01  0.7957747E-01            NaN
         13   -1    0    0    0    0  0.00000000000E+00  0.00000000000E+00  0.74505805969E-08  0.10566000000E+00  0.10566000000E+00 0.  1.
     999900   -1    0    0    0    0 -0.00000000000E+00 -0.00000000000E+00 -0.74505805969E-08  0.93827000000E+00  0.93827000000E+00 0.  1.
     999902    2    1    2    0    0 -0.22093623603E-01 -0.55674287077E-02 -0.13597069304E-02  0.10211051611E+01  0.10208500266E+01 0.  0.
     999903    2    3    3    0    0 -0.73369799462E-03 -0.15062225285E-01  0.12882978224E+00  0.13121994344E+00  0.19853257167E-01 0.  0.
         14    1    1    2    0    0  0.22093623603E-01  0.55674287077E-02  0.13597069304E-02  0.22824838866E-01  0.00000000000E+00 0.  1.
     999901    1    3    3    0    0 -0.21359925608E-01  0.94947965775E-02 -0.13018948917E+00  0.88988521770E+00  0.88000000000E+00 0.  1.
        -11    1    4    4    0    0  0.83556099163E-02 -0.29513164781E-02  0.31847173519E-01  0.33061005250E-01  0.51100000000E-03 0. -1.
         11    1    4    4    0    0 -0.90893079109E-02 -0.12110908807E-01  0.96982608723E-01  0.98158938188E-01  0.51100000000E-03 0.  1.
</event>
<event>
 8    1  0.1099478E+005  0.1043930E+01  0.7957747E-01            NaN
         13   -1    0    0    0    0  0.00000000000E+00  0.00000000000E+00  0.74505805969E-08  0.10566000000E+00  0.10566000000E+00 0. -1.
     999900   -1    0    0    0    0 -0.00000000000E+00 -0.00000000000E+00 -0.74505805969E-08  0.93827000000E+00  0.93827000000E+00 0. -1.
     999902    2    1    2    0    0 -0.74320733103E-02  0.18493182557E-01 -0.13887519010E-01  0.10196380940E+01  0.10193486871E+01 0.  0.
     999903    2    3    3    0    0  0.96897251286E-01  0.84782311534E-01  0.10663481459E-01  0.13066024935E+00  0.19526219972E-01 0.  0.
         14    1    1    2    0    0  0.74320733103E-02 -0.18493182557E-01  0.13887519010E-01  0.24291906040E-01  0.00000000000E+00 0. -1.
     999901    1    3    3    0    0 -0.10432932460E+00 -0.66289128977E-01 -0.24551000469E-01  0.88897784461E+00  0.88000000000E+00 0.  1.
        -11    1    4    4    0    0  0.27764720936E-01  0.34242003612E-01 -0.17798194948E-02  0.44122821968E-01  0.51100000000E-03 0.  1.
         11    1    4    4    0    0  0.69132530351E-01  0.50540307923E-01  0.12443300954E-01  0.86537427378E-01  0.51100000000E-03 0. -1.
</event>
<event>
 8    1  0.1099478E+005  0.1043930E+01  0.7957747E-01            NaN
         13   -1    0    0    0    0  0.00000000000E+00  0.00000000000E+00  0.74505805969E-08  0.10566000000E+00  0.10566000000E+00 0.  1.
     999900   -1    0    0    0    0 -0.00000000000E+00 -0.00000000000E+00 -0.74505805969E-08  0.93827000000E+00  0.93827000000E+00 0.  1.
     999902    2    1    2    0    0 -0.23678404031E-01  0.83593633635E-02 -0.23172229492E-02  0.10187126390E+01  0.10184004741E+01 0.  0.
     999903    2    3    3    0    0  0.56092315498E-01 -0.10705465370E+00 -0.33600330096E-01  0.12704992485E+00  0.20140866051E-01 0.  0.
         14    1    1    2    0    0  0.23678404031E-01 -0.83593633635E-02  0.23172229492E-02  0.25217360994E-01  0.00000000000E+00 0.  1.
     999901    1    3    3    0    0 -0.79770719529E-01  0.11541401706E+00  0.31283107147E-01  0.89166271416E+00  0.88000000000E+00 0. -1.
        -11    1    4    4    0    0  0.12367261904E-01 -0.22493699980E-01 -0.15961112225E-01  0.30231340200E-01  0.51100000000E-03 0.  1.
         11    1    4    4    0    0  0.43725053594E-01 -0.84560953715E-01 -0.17639217871E-01  0.96818584647E-01  0.51100000000E-03 0. -1.
</event>
<event>
 8    1  0.1099478E+005  0.1043930E+01  0.7957747E-01            NaN
         13   -1    0    0    0    0  0.00000000000E+00  0.00000000000E+00  0.74505805969E-08  0.10566000000E+00  0.10566000000E+00 0.  1.
     999900   -1    0    0    0    0 -0.00000000000E+00 -0.00000000000E+00 -0.74505805969E-08  0.93827000000E+00  0.93827000000E+00 0.  1.
     999902    2    1    2    0    0  0.10476535064E-02 -0.25147268428E-01  0.19544120848E-02  0.10186851507E+01  0.10183722963E+01 0.  0.
     999903    2    3    3    0    0 -0.19976922952E-01  0.25634808246E-01 -0.12257606467E+00  0.12821971528E+00  0.18952121513E-01 0.  0.
         14    1    1    2    0    0 -0.10476535064E-02  0.25147268428E-01 -0.19544120848E-02  0.25244849254E-01  0.00000000000E+00 0.  1.
     999901    1    3    3    0    0  0.21024576458E-01 -0.50782076674E-01  0.12453047676E+00  0.89046543547E+00  0.88000000000E+00 0. -1.
        -11    1    4    4    0    0 -0.16214745475E-01  0.15717928538E-01 -0.10706605680E+00  0.10942290843E+00  0.51100000000E-03 0. -1.
         11    1    4    4    0    0 -0.37621774768E-02  0.99168797081E-02 -0.15510007870E-01  0.18796806847E-01  0.51100000000E-03 0.  1.
</event>
<event>
 8    1  0.1099478E+005  0.1043930E+01  0.7957747E-01            NaN
         13   -1    0    0    0    0  0.00000000000E+00  0.00000000000E+00  0.74505805969E-08  0.10566000000E+00  0.10566000000E+00 0. -1.
     999900   -1    0    0    0    0 -0.00000000000E+00 -0.00000000000E+00 -0.74505805969E-08  0.93827000000E+00  0.93827000000E+00 0.  1.
     999902    2    1    2    0    0 -0.22269893164E-01  0.75323591366E-02 -0.11601577316E-02  0.10203921466E+01  0.10201206313E+01 0.  0.
     999903    2    3    3    0    0  0.71109785940E-01  0.63176667093E-01 -0.85854324395E-01  0.12966819649E+00  0.19874185294E-01 0.  0.
         14    1    1    2    0    0  0.22269893164E-01 -0.75323591366E-02  0.11601577316E-02  0.23537853379E-01  0.00000000000E+00 0. -1.
     999901    1    3    3    0    0 -0.93379679104E-01 -0.55644307957E-01  0.84694166664E-01  0.89072395014E+00  0.88000000000E+00 0. -1.
        -11    1    4    4    0    0  0.13722935949E-01  0.16926581938E-01 -0.10267422208E-01  0.24093759088E-01  0.51100000000E-03 0.  1.
         11    1    4    4    0    0  0.57386849991E-01  0.46250085155E-01 -0.75586902187E-01  0.10557443740E+00  0.51100000000E-03 0. -1.
</event>
<event>
 8    1  0.1099478E+005  0.1043930E+01  0.7957747E-01            NaN
         13   -1    0    0    0    0  0.00000000000E+00  0.00000000000E+00  0.74505805969E-08  0.10566000000E+00  0.10566000000E+00 0. -1.
     999900   -1    0    0    0    0 -0.00000000000E+00 -0.00000000000E+00 -0.74505805969E-08  0.93827000000E+00  0.93827000000E+00 0. -1.
     999902    2    1    2    0    0 -0.26048372099E-02 -0.21929216540E-01  0.87154233576E-02  0.10201890160E+01  0.10199127385E+01 0.  0.
     999903    2    3    3    0    0 -0.88714367423E-01  0.91304457183E-01  0.94152059676E-04  0.12872334515E+00  0.19051189824E-01 0.  0.
         14    1    1    2    0    0  0.26048372099E-02  0.21929216540E-01 -0.87154233576E-02  0.23740983957E-01  0.00000000000E+00 0.  1.
     999901    1    3    3    0    0  0.86109530213E-01 -0.11323367372E+00  0.86212712979E-02  0.89146567089E+00  0.88000000000E+00 0. -1.
        -11    1    4    4    0    0 -0.67581063455E-01  0.73852921901E-01 -0.71698188518E-02  0.10036494226E+00  0.51100000000E-03 0. -1.
         11    1    4    4    0    0 -0.21133303967E-01  0.17451535282E-01  0.72639709115E-02  0.28358402894E-01  0.51100000000E-03 0.  1.
</event>
<event>
 8    1  0.1099478E+005  0.1043930E+01  0.7957747E-01            NaN
         13   -1    0    0    0    0  0.00000000000E+00  0.00000000000E+00  0.74505805969E-08  0.10566000000E+00  0.10566000000E+00 0.  1.
     999900   -1    0    0    0    0 -0.00000000000E+00 -0.00000000000E+00 -0.74505805969E-08  0.93827000000E+00  0.93827000000E+00 0. -1.
     999902    2    1    2    0    0 -0.16030652097E-01 -0.82749490135E-02  0.14616045356E-01  0.10207117880E+01  0.10204476806E+01 0.  0.
     999903    2    3    3    0    0  0.86457281370E-01 -0.30159345971E-02  0.96154855281E-01  0.13100396444E+00  0.20792429890E-01 0.  0.
         14    1    1    2    0    0  0.16030652097E-01  0.82749490135E-02 -0.14616045356E-01  0.23218212026E-01  0.00000000000E+00 0. -1.
     999901    1    3    3    0    0 -0.10248793347E+00 -0.52590144164E-02 -0.81538809925E-01  0.88970782354E+00  0.88000000000E+00 0.  1.
        -11    1    4    4    0    0  0.54530710520E-01 -0.10106630895E-01  0.51771389784E-01  0.75870154204E-01  0.51100000000E-03 0.  1.
         11    1    4    4    0    0  0.31926570851E-01  0.70906962979E-02  0.44383465497E-01  0.55133810233E-01  0.51100000000E-03 0. -1.
</event>
<event>
 8    1  0.1099478E+005  0.1043930E+01  0.7957747E-01            NaN
         13   -1    0    0    0    0  0.00000000000E+00  0.00000000000E+00  0.74505805969E-08  0.10566000000E+00  0.10566000000E+00 0. -1.
     999900   -1    0    0    0    0 -0.00000000000E+00 -0.00000000000E+00 -0.74505805969E-08  0.93827000000E+00  0.93827000000E+00 0. -1.
     999902    2    1    2    0    0 -0.48798777181E-02  0.11223729402E-01 -0.19844895242E-01  0.10206146579E+01  0.10203483105E+01 0.  0.
     999903    2    3    3    0    0 -0.10717448717E+00 -0.53070679638E-01 -0.51816582964E-01  0.13178388272E+00  0.19472178539E-01 0.  0.
         14    1    1    2    0    0  0.48798777181E-02 -0.11223729402E-01  0.19844895242E-01  0.23315342061E-01  0.00000000000E+00 0. -1.
     999901    1    3    3    0    0  0.10229460946E+00  0.64294409040E-01  0.31971687722E-01  0.88883077522E+00  0.88000000000E+00 0. -1.
        -11    1    4    4    0    0 -0.45376725010E-01 -0.29435688339E-01 -0.31383031160E-01  0.62535291527E-01  0.51100000000E-03 0.  1.
         11    1    4    4    0    0 -0.61797762164E-01 -0.23634991299E-01 -0.20433551805E-01  0.69248591195E-01  0.51100000000E-03 0. -1.
</event>
<event>
 8    1  0.1099478E+005  0.1043930E+01  0.7957747E-01            NaN
         13   -1    0    0    0    0  0.00000000000E+00  0.00000000000E+00  0.74505805969E-08  0.10566000000E+00  0.10566000000E+00 0. -1.
     999900   -1    0    0    0    0 -0.00000000000E+00 -0.00000000000E+00 -0.74505805969E-08  0.93827000000E+00  0.93827000000E+00 0.  1.
     999902    2    1    2    0    0  0.18813820882E-01  0.80445695207E-02  0.11876749459E-01  0.10202713413E+01  0.10199969989E+01 0.  0.
     999903    2    3    3    0    0 -0.48462839716E-01  0.11741049353E+00  0.25646172798E-01  0.13084644202E+00  0.18143714796E-01 0.  0.
         14    1    1    2    0    0 -0.18813820882E-01 -0.80445695207E-02 -0.11876749459E-01  0.23658658725E-01  0.00000000000E+00 0.  1.
     999901    1    3    3    0    0  0.67276660598E-01 -0.10936592401E+00 -0.13769423339E-01  0.88942489925E+00  0.88000000000E+00 0. -1.
        -11    1    4    4    0    0  0.67777419449E-03  0.10304586196E-01  0.50135099551E-03  0.10351635057E-01  0.51100000000E-03 0. -1.
         11    1    4    4    0    0 -0.49140613910E-01  0.10710590733E+00  0.25144821802E-01  0.12049480696E+00  0.51100000000E-03 0.  1.
</event>
<event>
 8    1  0.1099478E+005  0.1043930E+01  0.7957747E-01            NaN
         13   -1    0    0    0    0  0.00000000000E+00  0.00000000000E+00  0.74505805969E-08  0.10566000000E+00  0.10566000000E+00 0. -1.
     999900   -1    0    0    0    0 -0.00000000000E+00 -0.00000000000E+00 -0.74505805969E-08  0.93827000000E+00  0.93827000000E+00 0.  1.
     999902    2    1    2    0    0 -0.22094364119E-01 -0.80398742840E-02  0.11037774268E-02  0.10203923954E+01  0.10201208859E+01 0.  0.
     999903    2    3    3    0    0  0.27088858093E-01  0.12080409060E+00 -0.30698717389E-01  0.12908371977E+00  0.19818196726E-01 0.  0.
         14    1    1    2    0    0  0.22094364119E-01  0.80398742840E-02 -0.11037774268E-02  0.23537604571E-01  0.00000000000E+00 0. -1.
     999901    1    3    3    0    0 -0.49183222212E-01 -0.12884396488E+00  0.31802494816E-01  0.89130867566E+00  0.88000000000E+00 0.  1.
        -11    1    4    4    0    0  0.23967391765E-01  0.92809088085E-01 -0.15589110354E-01  0.97114593043E-01  0.51100000000E-03 0. -1.
         11    1    4    4    0    0  0.31214663277E-02  0.27995002513E-01 -0.15109607035E-01  0.31969126724E-01  0.51100000000E-03 0.  1.
</event>
<event>
 8    1  0.1099478E+005  0.1043930E+01  0.7957747E-01            NaN
         13   -1    0    0    0    0  0.00000000000E+00  0.00000000000E+00  0.74505805969E-08  0.10566000000E+00  0.10566000000E+00 0. -1.
     999900   -1    0    0    0    0 -0.00000000000E+00 -0.00000000000E+00 -0.74505805969E-08  0.93827000000E+00  0.93827000000E+00 0. -1.
     999902    2    1    2    0    0 -0.17619969148E-01 -0.70439145700E-02  0.14451952800E-01  0.10200775581E+01  0.10197986495E+01 0.  0.
     999903    2    3    3    0    0  0.77739045387E-01 -0.71680134076E-01  0.73566660154E-01  0.13060258309E+00  0.21530917890E-01 0.  0.
         14    1    1    2    0    0  0.17619969148E-01  0.70439145700E-02 -0.14451952800E-01  0.23852441908E-01  0.00000000000E+00 0.  1.
     999901    1    3    3    0    0 -0.95359014536E-01  0.64636219506E-01 -0.59114707354E-01  0.88947497500E+00  0.88000000000E+00 0.  1.
        -11    1    4    4    0    0  0.64597874022E-01 -0.65885892514E-01  0.56114747974E-01  0.10799519536E+00  0.51100000000E-03 0. -1.
         11    1    4    4    0    0  0.13141171365E-01 -0.57942415616E-02  0.17451912180E-01  0.22607387728E-01  0.51100000000E-03 0.  1.
</event>
<event>
 8    1  0.1099478E+005  0.1043930E+01  0.7957747E-01            NaN
         13   -1    0    0    0    0  0.00000000000E+00  0.00000000000E+00  0.74505805969E-08  0.10566000000E+00  0.10566000000E+00 0. -1.
     999900   -1    0    0    0    0 -0.00000000000E+00 -0.00000000000E+00 -0.74505805969E-08  0.93827000000E+00  0.93827000000E+00 0. -1.
     999902    2    1    2    0    0 -0.12676368832E-01  0.10370315440E-01 -0.16613844049E-01  0.10206007569E+01  0.10203340881E+01 0.  0.
     999903    2    3    3    0    0  0.11311679750E+00  0.28243612566E-01  0.50865536330E-01  0.12891872713E+00  0.20967209907E-01 0.  0.
         14    1    1    2    0    0  0.12676368832E-01 -0.10370315440E-01  0.16613844049E-01  0.23329243091E-01  0.00000000000E+00 0. -1.
     999901    1    3    3    0    0 -0.12579316634E+00 -0.17873297126E-01 -0.67479380379E-01  0.89168202977E+00  0.88000000000E+00 0. -1.
        -11    1    4    4    0    0  0.32068603602E-01  0.13742603227E-01  0.68628307462E-02  0.35561412336E-01  0.51100000000E-03 0.  1.
         11    1    4    4    0    0  0.81048193903E-01  0.14501009338E-01  0.44002705584E-01  0.93357314799E-01  0.51100000000E-03 0. -1.
</event>
<event>
 8    1  0.1099478E+005  0.1043930E+01  0.7957747E-01            NaN
         13   -1    0    0    0    0  0.00000000000E+00  0.00000000000E+00  0.74505805969E-08  0.10566000000E+00  0.10566000000E+00 0. -1.
     999900   -1    0    0    0    0 -0.00000000000E+00 -0.00000000000E+00 -0.74505805969E-08  0.93827000000E+00  0.93827000000E+00 0. -1.
     999902    2    1    2    0    0 -0.18622049590E-01  0.25906124606E-02 -0.12151050699E-01  0.10215438427E+01  0.10212985277E+01 0.  0.
     999903    2    3    3    0    0 -0.11426344154E+00  0.64200961034E-01 -0.20523391070E-01  0.13418077894E+00  0.20133911359E-01 0.  0.
         14    1    1    2    0    0  0.18622049590E-01 -0.25906124606E-02  0.12151050699E-01  0.22386157262E-01  0.00000000000E+00 0. -1.
     999901    1    3    3    0    0  0.95641391949E-01 -0.61610348574E-01  0.83723403705E-02  0.88736306380E+00  0.88000000000E+00 0.  1.
        -11    1    4    4    0    0 -0.44472775279E-01  0.14831501805E-01 -0.35039419340E-02  0.47014252274E-01  0.51100000000E-03 0. -1.
         11    1    4    4    0    0 -0.69790666260E-01  0.49369459229E-01 -0.17019449136E-01  0.87166526668E-01  0.51100000000E-03 0.  1.
</event>
<event>
 8    1  0.1099478E+005  0.1043930E+01  0.7957747E-01            NaN
         13   -1    0    0    0    0  0.00000000000E+00  0.00000000000E+00  0.74505805969E-08  0.10566000000E+00  0.10566000000E+00 0. -1.
     999900   -1    0    0    0    0 -0.00000000000E+00 -0.00000000000E+00 -0.74505805969E-08  0.93827000000E+00  0.93827000000E+00 0. -1.
     999902    2    1    2    0    0  0.14822621267E-01  0.17022523389E-01  0.63121059322E-02  0.10204924429E+01  0.10202232632E+01 0.  0.
     999903    2    3    3    0    0 -0.40577647601E-01 -0.10979223221E+00  0.49388373399E-01  0.12863666031E+00  0.20181655331E-01 0.  0.
         14    1    1    2    0    0 -0.14822621267E-01 -0.17022523389E-01 -0.63121059322E-02  0.23437557148E-01  0.00000000000E+00 0.  1.
     999901    1    3    3    0    0  0.55400268868E-01  0.12681475560E+00 -0.43076267466E-01  0.89185578254E+00  0.88000000000E+00 0.  1.
        -11    1    4    4    0    0 -0.32560727933E-01 -0.70827729745E-01  0.40597429686E-01  0.87893007244E-01  0.51100000000E-03 0.  1.
         11    1    4    4    0    0 -0.80169196675E-02 -0.38964502463E-01  0.87909437129E-02  0.40743653070E-01  0.51100000000E-03 0. -1.
</event>
<event>
 8    1  0.1099478E+005  0.1043930E+01  0.7957747E-01            NaN
         13   -1    0    0    0    0  0.00000000000E+00  0.00000000000E+00  0.74505805969E-08  0.10566000000E+00  0.10566000000E+00 0.  1.
     999900   -1    0    0    0    0 -0.00000000000E+00 -0.00000000000E+00 -0.74505805969E-08  0.93827000000E+00  0.93827000000E+00 0. -1.
     999902    2    1    2    0    0  0.12815770742E-02  0.23897272302E-01 -0.55782563126E-02  0.10193568641E+01  0.10190606348E+01 0.  0.
     999903    2    3    3    0    0 -0.49331351580E-01 -0.98335614346E-02  0.11698886689E+00  0.12878281477E+00  0.19192113640E-01 0.  0.
         14    1    1    2    0    0 -0.12815770742E-02 -0.23897272302E-01  0.55782563126E-02  0.24573135876E-01  0.00000000000E+00 0.  1.
     999901    1    3    3    0    0  0.50612928654E-01  0.33730833737E-01 -0.12256712320E+00  0.89057404935E+00  0.88000000000E+00 0. -1.
        -11    1    4    4    0    0 -0.40992660781E-01 -0.72229004433E-03  0.82110576545E-01  0.91778689479E-01  0.51100000000E-03 0.  1.
         11    1    4    4    0    0 -0.83386907986E-02 -0.91112713903E-02  0.34878290340E-01  0.37004125292E-01  0.51100000000E-03 0. -1.
</event>
<event>
 8    1  0.1099478E+005  0.1043930E+01  0.7957747E-01            NaN
         13   -1    0    0    0    0  0.00000000000E+00  0.00000000000E+00  0.74505805969E-08  0.10566000000E+00  0.10566000000E+00 0.  1.
     999900   -1    0    0    0    0 -0.00000000000E+00 -0.00000000000E+00 -0.74505805969E-08  0.93827000000E+00  0.93827000000E+00 0. -1.
     999902    2    1    2    0    0  0.19467808328E-01 -0.82800680924E-02  0.10611561228E-01  0.10202622937E+01  0.10199877390E+01 0.  0.
     999903    2    3    3    0    0  0.45238208595E-01 -0.11995718560E+00 -0.25843614345E-01  0.13208164097E+00  0.18478246208E-01 0.  0.
         14    1    1    2    0    0 -0.19467808328E-01  0.82800680924E-02 -0.10611561228E-01  0.23667706277E-01  0.00000000000E+00 0.  1.
     999901    1    3    3    0    0 -0.25770400267E-01  0.11167711751E+00  0.36455175574E-01  0.88818065276E+00  0.88000000000E+00 0.  1.
        -11    1    4    4    0    0  0.12887779734E-01 -0.53732092356E-01 -0.17184037131E-01  0.57868686425E-01  0.51100000000E-03 0.  1.
         11    1    4    4    0    0  0.32350428861E-01 -0.66225093249E-01 -0.86595772146E-02  0.74212954542E-01  0.51100000000E-03 0. -1.
</event>
<event>
 8    1  0.1099478E+005  0.1043930E+01  0.7957747E-01            NaN
         13   -1    0    0    0    0  0.00000000000E+00  0.00000000000E+00  0.74505805969E-08  0.10566000000E+00  0.10566000000E+00 0.  1.
     999900   -1    0    0    0    0 -0.00000000000E+00 -0.00000000000E+00 -0.74505805969E-08  0.93827000000E+00  0.93827000000E+00 0. -1.
     999902    2    1    2    0    0  0.37657015433E-02 -0.22335241753E-01 -0.32469711249E-02  0.10210479906E+01  0.10207915619E+01 0.  0.
     999903    2    3    3    0    0 -0.84250339923E-01 -0.89896515583E-01 -0.46632507227E-01  0.13302003270E+00  0.18445462298E-01 0.  0.
         14    1    1    2    0    0 -0.37657015433E-02  0.22335241753E-01  0.32469711249E-02  0.22882009391E-01  0.00000000000E+00 0.  1.
     999901    1    3    3    0    0  0.88016041467E-01  0.67561273830E-01  0.43385536103E-01  0.88802795790E+00  0.88000000000E+00 0. -1.
        -11    1    4    4    0    0 -0.15437916080E-01 -0.13370961897E-01 -0.10352747611E-02  0.20455923097E-01  0.51100000000E-03 0.  1.
         11    1    4    4    0    0 -0.68812423844E-01 -0.76525553685E-01 -0.45597232466E-01  0.11256410961E+00  0.51100000000E-03 0. -1.
</event>
<event>
 8    1  0.1099478E+005  0.1043930E+01  0.7957747E-01            NaN
         13   -1    0    0    0    0  0.00000000000E+00  0.00000000000E+00  0.74505805969E-08  0.10566000000E+00  0.10566000000E+00 0. -1.
     999900   -1    0    0    0    0 -0.00000000000E+00 -0.00000000000E+00 -0.74505805969E-08  0.93827000000E+00  0.93827000000E+00 0. -1.
     999902    2    1    2    0    0  0.17443999571E-01  0.13306705005E-01  0.93452120556E-02  0.10200826834E+01  0.10198038961E+01 0.  0.
     999903    2    3    3    0    0  0.49054262183E-01  0.12131640333E+00 -0.78641335892E-02  0.13274877491E+00  0.20890243849E-01 0.  0.
         14    1    1    2    0    0 -0.17443999571E-01 -0.13306705005E-01 -0.93452120556E-02  0.23847316568E-01  0.00000000000E+00 0.  1.
     999901    1    3    3    0    0 -0.31610262611E-01 -0.10800969832E+00  0.17209345645E-01  0.88733390852E+00  0.88000000000E+00 0. -1.
        -11    1    4    4    0    0  0.60699932537E-02  0.40693143765E-01 -0.21401918455E-02  0.41202163896E-01  0.51100000000E-03 0.  1.
         11    1    4    4    0    0  0.42984268929E-01  0.80623259564E-01 -0.57239417437E-02  0.91546611014E-01  0.51100000000E-03 0. -1.
</event>
<event>
 8    1  0.1099478E+005  0.1043930E+01  0.7957747E-01            NaN
         13   -1    0    0    0    0  0.00000000000E+00  0.00000000000E+00  0.74505805969E-08  0.10566000000E+00  0.10566000000E+00 0.  1.
     999900   -1    0    0    0    0 -0.00000000000E+00 -0.00000000000E+00 -0.74505805969E-08  0.93827000000E+00  0.93827000000E+00 0. -1.
     999902    2    1    2    0    0 -0.16587325642E-01  0.17875349044E-01 -0.17377511835E-02  0.10194823569E+01  0.10191891820E+01 0.  0.
     999903    2    3    3    0    0 -0.42799795700E-01  0.11810600374E+00  0.37163149574E-01  0.13255137996E+00  0.20196980267E-01 0.  0.
         14    1    1    2    0    0  0.16587325642E-01 -0.17875349044E-01  0.17377511835E-02  0.24447643129E-01  0.00000000000E+00 0.  1.
     999901    1    3    3    0    0  0.26212470058E-01 -0.10023065469E+00 -0.38900900758E-01  0.88693097691E+00  0.88000000000E+00 0. -1.
        -11    1    4    4    0    0 -0.14858088276E-01  0.66551063577E-01  0.25217538444E-01  0.72704829390E-01  0.51100000000E-03 0.  1.
         11    1    4    4    0    0 -0.27941707424E-01  0.51554940160E-01  0.11945611130E-01  0.59846550568E-01  0.51100000000E-03 0. -1.
</event>
<event>
 8    1  0.1099478E+005  0.1043930E+01  0.7957747E-01            NaN
         13   -1    0    0    0    0  0.00000000000E+00  0.00000000000E+00  0.74505805969E-08  0.10566000000E+00  0.10566000000E+00 0. -1.
     999900   -1    0    0    0    0 -0.00000000000E+00 -0.00000000000E+00 -0.74505805969E-08  0.93827000000E+00  0.93827000000E+00 0. -1.
     999902    2    1    2    0    0 -0.81377790855E-02 -0.10577848551E-01 -0.17086864123E-01  0.10222487811E+01  0.10220188331E+01 0.  0.
     999903    2    3    3    0    0 -0.95266589116E-01  0.78251436748E-01  0.37679084325E-01  0.13180991143E+00  0.27479610651E-01 0.  0.
         14    1    1    2    0    0  0.81377790855E-02  0.10577848551E-01  0.17086864123E-01  0.21681218923E-01  0.00000000000E+00 0. -1.
     999901    1    3    3    0    0  0.87128810031E-01 -0.88829285299E-01 -0.54765948448E-01  0.89043886964E+00  0.88000000000E+00 0.  1.
        -11    1    4    4    0    0 -0.50726503678E-01  0.48418435141E-01  0.81337379849E-02  0.70597038547E-01  0.51100000000E-03 0. -1.
         11    1    4    4    0    0 -0.44540085438E-01  0.29833001606E-01  0.29545346340E-01  0.61212872886E-01  0.51100000000E-03 0.  1.
</event>
<event>
 8    1  0.1099478E+005  0.1043930E+01  0.7957747E-01            NaN
         13   -1    0    0    0    0  0.00000000000E+00  0.00000000000E+00  0.74505805969E-08  0.10566000000E+00  0.10566000000E+00 0. -1.
     999900   -1    0    0    0    0 -0.00000000000E+00 -0.00000000000E+00 -0.74505805969E-08  0.93827000000E+00  0.93827000000E+00 0.  1.
     999902    2    1    2    0    0  0.15942955975E-01 -0.16731805932E-01  0.21033111313E-03  0.10208177648E+01  0.10205560904E+01 0.  0.
     999903    2    3    3    0    0 -0.19126823255E-01 -0.12238554903E+00 -0.43092139441E-01  0.13274811284E+00  0.20520014688E-01 0.  0.
         14    1    1    2    0    0 -0.15942955975E-01  0.16731805932E-01 -0.21033111313E-03  0.23112235161E-01  0.00000000000E+00 0.  1.
     999901    1    3    3    0    0  0.35069779230E-01  0.10565374309E+00  0.43302470554E-01  0.88806965200E+00  0.88000000000E+00 0.  1.
        -11    1    4    4    0    0 -0.89112957480E-02 -0.10281774858E+00 -0.38787782360E-01  0.11025268158E+00  0.51100000000E-03 0.  1.
         11    1    4    4    0    0 -0.10215527507E-01 -0.19567800448E-01 -0.43043570815E-02  0.22495431258E-01  0.51100000000E-03 0. -1.
</event>
<event>
 8    1  0.1099478E+005  0.1043930E+01  0.7957747E-01            NaN
         13   -1    0    0    0    0  0.00000000000E+00  0.00000000000E+00  0.74505805969E-08  0.10566000000E+00  0.10566000000E+00 0.  1.
     999900   -1    0    0    0    0 -0.00000000000E+00 -0.00000000000E+00 -0.74505805969E-08  0.93827000000E+00  0.93827000000E+00 0.  1.
     999902    2    1    2    0    0  0.69588582248E-02 -0.62361383795E-02  0.20632632971E-01  0.10212800403E+01  0.10210288439E+01 0.  0.
     999903    2    3    3    0    0  0.12267229148E+00 -0.24592432628E-01 -0.36219480009E-01  0.13169659010E+00  0.19464384731E-01 0.  0.
         14    1    1    2    0    0 -0.69588582248E-02  0.62361383795E-02 -0.20632632971E-01  0.22649959669E-01  0.00000000000E+00 0. -1.
     999901    1    3    3    0    0 -0.11571343325E+00  0.18356294249E-01  0.56852112980E-01  0.88958345023E+00  0.88000000000E+00 0. -1.
        -11    1    4    4    0    0  0.58765439736E-01 -0.21640290389E-01 -0.18951767287E-01  0.65430189360E-01  0.51100000000E-03 0.  1.
         11    1    4    4    0    0  0.63906851742E-01 -0.29521422398E-02 -0.17267712722E-01  0.66266400740E-01  0.51100000000E-03 0. -1.
</event>
<event>
 8    1  0.1099478E+005  0.1043930E+01  0.7957747E-01            NaN
         13   -1    0    0    0    0  0.00000000000E+00  0.00000000000E+00  0.74505805969E-08  0.10566000000E+00  0.10566000000E+00 0. -1.
     999900   -1    0    0    0    0 -0.00000000000E+00 -0.00000000000E+00 -0.74505805969E-08  0.93827000000E+00  0.93827000000E+00 0. -1.
     999902    2    1    2    0    0  0.14124716165E-01 -0.74116807779E-02 -0.17538708760E-01  0.10202224712E+01  0.10199469808E+01 0.  0.
     999903    2    3    3    0    0  0.94366217739E-01  0.73655747009E-01  0.47688407937E-01  0.13046677257E+00  0.20426511578E-01 0.  0.
         14    1    1    2    0    0 -0.14124716165E-01  0.74116807779E-02  0.17538708760E-01  0.23707528839E-01  0.00000000000E+00 0. -1.
     999901    1    3    3    0    0 -0.80241501574E-01 -0.81067427787E-01 -0.65227116697E-01  0.88975569859E+00  0.88000000000E+00 0. -1.
        -11    1    4    4    0    0  0.58003249875E-01  0.57396849200E-01  0.31911108327E-01  0.87620518430E-01  0.51100000000E-03 0.  1.
         11    1    4    4    0    0  0.36362967864E-01  0.16258897809E-01  0.15777299610E-01  0.42846254140E-01  0.51100000000E-03 0. -1.
</event>
<event>
 8    1  0.1099478E+005  0.1043930E+01  0.7957747E-01            NaN
         13   -1    0    0    0    0  0.00000000000E+00  0.00000000000E+00  0.74505805969E-08  0.10566000000E+00  0.10566000000E+00 0.  1.
     999900   -1    0    0    0    0 -0.00000000000E+00 -0.00000000000E+00 -0.74505805969E-08  0.93827000000E+00  0.93827000000E+00 0.  1.
     999902    2    1    2    0    0  0.44769618456E-02  0.12978313691E-01 -0.18013185175E-01  0.10212814978E+01  0.10210303340E+01 0.  0.
     999903    2    3    3    0    0  0.42460486341E-01 -0.11965758162E+00 -0.37279399590E-02  0.13041725609E+00  0.29562364739E-01 0.  0.
         14    1    1    2    0    0 -0.44769618456E-02 -0.12978313691E-01  0.18013185175E-01  0.22648502242E-01  0.00000000000E+00 0.  1.
     999901    1    3    3    0    0 -0.37983524496E-01  0.13263589531E+00 -0.14285245216E-01  0.89086424167E+00  0.88000000000E+00 0.  1.
        -11    1    4    4    0    0  0.25659124262E-01 -0.69331135611E-01 -0.16708059738E-01  0.75793254345E-01  0.51100000000E-03 0. -1.
         11    1    4    4    0    0  0.16801362079E-01 -0.50326446010E-01  0.12980119779E-01  0.54624001741E-01  0.51100000000E-03 0.  1.
</event>
<event>
 8    1  0.1099478E+005  0.1043930E+01  0.7957747E-01            NaN
         13   -1    0    0    0    0  0.00000000000E+00  0.00000000000E+00  0.74505805969E-08  0.10566000000E+00  0.10566000000E+00 0. -1.
     999900   -1    0    0    0    0 -0.00000000000E+00 -0.00000000000E+00 -0.74505805969E-08  0.93827000000E+00  0.93827000000E+00 0.  1.
     999902    2    1    2    0    0  0.12395354075E-01  0.19053765224E-01 -0.50042925643E-02  0.10206548262E+01  0.10203894063E+01 0.  0.
     999903    2    3    3    0    0  0.40198394614E-01  0.11914810844E+00 -0.42179452729E-01  0.13376482222E+00  0.17370629125E-01 0.  0.
         14    1    1    2    0    0 -0.12395354075E-01 -0.19053765224E-01  0.50042925643E-02  0.23275173811E-01  0.00000000000E+00 0.  1.
     999901    1    3    3    0    0 -0.27803040539E-01 -0.10009434322E+00  0.37175160165E-01  0.88689000397E+00  0.88000000000E+00 0.  1.
        -11    1    4    4    0    0  0.27994823279E-01  0.55949223508E-01 -0.21540228693E-01  0.66168484302E-01  0.51100000000E-03 0. -1.
         11    1    4    4    0    0  0.12203571335E-01  0.63198884933E-01 -0.20639224036E-01  0.67596337918E-01  0.51100000000E-03 0.  1.
</event>
<event>
 8    1  0.1116424E+005  0.1043930E+01  0.7957747E-01            NaN
         13   -1    0    0    0    0  0.00000000000E+00  0.00000000000E+00  0.74505805969E-08  0.10566000000E+00  0.10566000000E+00 0. -1.
     999900   -1    0    0    0    0 -0.00000000000E+00 -0.00000000000E+00 -0.74505805969E-08  0.93827000000E+00  0.93827000000E+00 0.  1.
     999902    2    1    2    0    0  0.12669767830E-01  0.56614417318E-02 -0.19040939875E-01  0.10203687536E+01  0.10200966920E+01 0.  0.
     999903    2    3    3    0    0  0.40375677976E-01 -0.82325672146E-01 -0.93540458357E-01  0.13241631801E+00  0.19404954497E-01 0.  0.
         14    1    1    2    0    0 -0.12669767830E-01 -0.56614417318E-02  0.19040939875E-01  0.23561246374E-01  0.00000000000E+00 0. -1.
     999901    1    3    3    0    0 -0.27705910145E-01  0.87987113877E-01  0.74499518482E-01  0.88795243562E+00  0.88000000000E+00 0.  1.
        -11    1    4    4    0    0  0.19984367404E-01 -0.59320845115E-01 -0.56998590674E-01  0.84660723276E-01  0.51100000000E-03 0.  1.
         11    1    4    4    0    0  0.20391310572E-01 -0.23004827031E-01 -0.36541867683E-01  0.47755594733E-01  0.51100000000E-03 0. -1.
</event>
<event>
 8    1  0.1099478E+005  0.1043930E+01  0.7957747E-01            NaN
         13   -1    0    0    0    0  0.00000000000E+00  0.00000000000E+00  0.74505805969E-08  0.10566000000E+00  0.10566000000E+00 0.  1.
     999900   -1    0    0    0    0 -0.00000000000E+00 -0.00000000000E+00 -0.74505805969E-08  0.93827000000E+00  0.93827000000E+00 0. -1.
     999902    2    1    2    0    0 -0.26939059675E-01  0.10615049425E-01  0.67041913708E-02  0.10142089907E+01  0.10137734157E+01 0.  0.
     999903    2    3    3    0    0 -0.67161180520E-01 -0.79225945842E-01  0.69236597848E-01  0.12651561726E+00  0.20618444774E-01 0.  0.
         14    1    1    2    0    0  0.26939059675E-01 -0.10615049425E-01 -0.67041913708E-02  0.29721009277E-01  0.00000000000E+00 0.  1.
     999901    1    3    3    0    0  0.40222120845E-01  0.89840995267E-01 -0.62532406477E-01  0.88769337347E+00  0.88000000000E+00 0. -1.
        -11    1    4    4    0    0 -0.29906436278E-01 -0.43941797984E-01  0.45532307360E-01  0.69990918522E-01  0.51100000000E-03 0.  1.
         11    1    4    4    0    0 -0.37254744242E-01 -0.35284147858E-01  0.23704290488E-01  0.56524698736E-01  0.51100000000E-03 0. -1.
</event>
<event>
 8    1  0.1099478E+005  0.1043930E+01  0.7957747E-01            NaN
         13   -1    0    0    0    0  0.00000000000E+00  0.00000000000E+00  0.74505805969E-08  0.10566000000E+00  0.10566000000E+00 0.  1.
     999900   -1    0    0    0    0 -0.00000000000E+00 -0.00000000000E+00 -0.74505805969E-08  0.93827000000E+00  0.93827000000E+00 0.  1.
     999902    2    1    2    0    0  0.46124506939E-02  0.13389427809E-01 -0.18426770384E-01  0.10206900055E+01  0.10204253966E+01 0.  0.
     999903    2    3    3    0    0  0.10948762439E+00  0.25329650826E-01  0.63369907052E-01  0.13061581339E+00  0.20386625072E-01 0.  0.
         14    1    1    2    0    0 -0.46124506939E-02 -0.13389427809E-01  0.18426770384E-01  0.23239994519E-01  0.00000000000E+00 0.  1.
     999901    1    3    3    0    0 -0.10487517370E+00 -0.11940223016E-01 -0.81796677437E-01  0.89007419209E+00  0.88000000000E+00 0.  1.
        -11    1    4    4    0    0  0.79418217427E-01  0.88679627143E-02  0.43345392197E-01  0.90911925332E-01  0.51100000000E-03 0.  1.
         11    1    4    4    0    0  0.30069406966E-01  0.16461688111E-01  0.20024514856E-01  0.39703888059E-01  0.51100000000E-03 0. -1.
</event>
<event>
 8    1  0.1099478E+005  0.1043930E+01  0.7957747E-01            NaN
         13   -1    0    0    0    0  0.00000000000E+00  0.00000000000E+00  0.74505805969E-08  0.10566000000E+00  0.10566000000E+00 0. -1.
     999900   -1    0    0    0    0 -0.00000000000E+00 -0.00000000000E+00 -0.74505805969E-08  0.93827000000E+00  0.93827000000E+00 0. -1.
     999902    2    1    2    0    0 -0.12111958509E-01 -0.20076156586E-01 -0.14579795489E-02  0.10204379310E+01  0.10201674832E+01 0.  0.
     999903    2    3    3    0    0  0.55842504377E-01 -0.85732664488E-01 -0.80885842887E-01  0.13182250712E+00  0.19135797577E-01 0.  0.
         14    1    1    2    0    0  0.12111958509E-01  0.20076156586E-01  0.14579795489E-02  0.23492069014E-01  0.00000000000E+00 0.  1.
     999901    1    3    3    0    0 -0.67954462886E-01  0.65656507902E-01  0.79427863338E-01  0.88861542386E+00  0.88000000000E+00 0.  1.
        -11    1    4    4    0    0  0.28658979138E-01 -0.54377410467E-01 -0.57576908840E-01  0.84223520509E-01  0.51100000000E-03 0.  1.
         11    1    4    4    0    0  0.27183525239E-01 -0.31355254021E-01 -0.23308934047E-01  0.47598986613E-01  0.51100000000E-03 0. -1.
</event>
<event>
 8    1  0.1099478E+005  0.1043930E+01  0.7957747E-01            NaN
         13   -1    0    0    0    0  0.00000000000E+00  0.00000000000E+00  0.74505805969E-08  0.10566000000E+00  0.10566000000E+00 0. -1.
     999900   -1    0    0    0    0 -0.00000000000E+00 -0.00000000000E+00 -0.74505805969E-08  0.93827000000E+00  0.93827000000E+00 0. -1.
     999902    2    1    2    0    0  0.11725783265E-01  0.10878811662E-01  0.17897772395E-01  0.10199264004E+01  0.10196439033E+01 0.  0.
     999903    2    3    3    0    0  0.37578503805E-01 -0.10040255514E+00  0.71867200561E-01  0.13090187604E+00  0.21853823644E-01 0.  0.
         14    1    1    2    0    0 -0.11725783265E-01 -0.10878811662E-01 -0.17897772395E-01  0.24003599585E-01  0.00000000000E+00 0.  1.
     999901    1    3    3    0    0 -0.25852720540E-01  0.11128136680E+00 -0.53969428166E-01  0.88902452437E+00  0.88000000000E+00 0. -1.
        -11    1    4    4    0    0  0.14849276424E-01 -0.21022530298E-01  0.25347762965E-01  0.36127800913E-01  0.51100000000E-03 0.  1.
         11    1    4    4    0    0  0.22729227381E-01 -0.79380024844E-01  0.46519437595E-01  0.94774075130E-01  0.51100000000E-03 0. -1.
</event>
<event>
 8    1  0.1099478E+005  0.1043930E+01  0.7957747E-01            NaN
         13   -1    0    0    0    0  0.00000000000E+00  0.00000000000E+00  0.74505805969E-08  0.10566000000E+00  0.10566000000E+00 0. -1.
     999900   -1    0    0    0    0 -0.00000000000E+00 -0.00000000000E+00 -0.74505805969E-08  0.93827000000E+00  0.93827000000E+00 0. -1.
     999902    2    1    2    0    0 -0.18257881386E-01  0.12638225001E-01 -0.71920678562E-02  0.10205890316E+01  0.10203220916E+01 0.  0.
     999903    2    3    3    0    0  0.43202022424E-01  0.11013199608E+00 -0.54867051529E-01  0.13179475891E+00  0.19078622342E-01 0.  0.
         14    1    1    2    0    0  0.18257881386E-01 -0.12638225001E-01  0.71920678562E-02  0.23340968359E-01  0.00000000000E+00 0. -1.
     999901    1    3    3    0    0 -0.61459903810E-01 -0.97493771077E-01  0.47674983672E-01  0.88879427273E+00  0.88000000000E+00 0.  1.
        -11    1    4    4    0    0  0.22823262539E-01  0.52865090384E-01 -0.36961986371E-01  0.68425643232E-01  0.51100000000E-03 0.  1.
         11    1    4    4    0    0  0.20378759884E-01  0.57266905694E-01 -0.17905065157E-01  0.63369115675E-01  0.51100000000E-03 0. -1.
</event>
<event>
 8    1  0.1099478E+005  0.1043930E+01  0.7957747E-01            NaN
         13   -1    0    0    0    0  0.00000000000E+00  0.00000000000E+00  0.74505805969E-08  0.10566000000E+00  0.10566000000E+00 0. -1.
     999900   -1    0    0    0    0 -0.00000000000E+00 -0.00000000000E+00 -0.74505805969E-08  0.93827000000E+00  0.93827000000E+00 0. -1.
     999902    2    1    2    0    0  0.65798669611E-02  0.27913271222E-01 -0.18914878335E-01  0.10095756992E+01  0.10089910180E+01 0.  0.
     999903    2    3    3    0    0  0.30823442535E-02  0.10413077580E+00  0.61122540788E-01  0.12265556238E+00  0.21347193671E-01 0.  0.
         14    1    1    2    0    0 -0.65798669611E-02 -0.27913271222E-01  0.18914878335E-01  0.34354300778E-01  0.00000000000E+00 0. -1.
     999901    1    3    3    0    0  0.34975227076E-02 -0.76217504573E-01 -0.80037419123E-01  0.88692013684E+00  0.88000000000E+00 0. -1.
        -11    1    4    4    0    0 -0.39905318114E-02  0.10082367496E-01  0.12462607763E-01  0.16527437542E-01  0.51100000000E-03 0. -1.
         11    1    4    4    0    0  0.70728760649E-02  0.94048408300E-01  0.48659933025E-01  0.10612812484E+00  0.51100000000E-03 0.  1.
</event>
<event>
 8    1  0.1099478E+005  0.1043930E+01  0.7957747E-01            NaN
         13   -1    0    0    0    0  0.00000000000E+00  0.00000000000E+00  0.74505805969E-08  0.10566000000E+00  0.10566000000E+00 0.  1.
     999900   -1    0    0    0    0 -0.00000000000E+00 -0.00000000000E+00 -0.74505805969E-08  0.93827000000E+00  0.93827000000E+00 0. -1.
     999902    2    1    2    0    0  0.38094820068E-02 -0.36303720778E-03 -0.22885982725E-01  0.10207262901E+01  0.10204625163E+01 0.  0.
     999903    2    3    3    0    0 -0.21575977429E-01  0.61094040360E-01  0.10918167643E+00  0.12839044493E+00  0.19117094721E-01 0.  0.
         14    1    1    2    0    0 -0.38094820068E-02  0.36303720778E-03  0.22885982725E-01  0.23203709929E-01  0.00000000000E+00 0.  1.
     999901    1    3    3    0    0  0.25385459436E-01 -0.61457077568E-01 -0.13206765916E+00  0.89233584514E+00  0.88000000000E+00 0. -1.
        -11    1    4    4    0    0 -0.20232657168E-01  0.32098711746E-01  0.70025383255E-01  0.79646111850E-01  0.51100000000E-03 0. -1.
         11    1    4    4    0    0 -0.13433202611E-02  0.28995328615E-01  0.39156293176E-01  0.48744333077E-01  0.51100000000E-03 0.  1.
</event>
<event>
 8    1  0.1099478E+005  0.1043930E+01  0.7957747E-01            NaN
         13   -1    0    0    0    0  0.00000000000E+00  0.00000000000E+00  0.74505805969E-08  0.10566000000E+00  0.10566000000E+00 0. -1.
     999900   -1    0    0    0    0 -0.00000000000E+00 -0.00000000000E+00 -0.74505805969E-08  0.93827000000E+00  0.93827000000E+00 0.  1.
     999902    2    1    2    0    0 -0.11030915311E-02  0.38661053789E-02  0.23068424241E-01  0.10205138565E+01  0.10202451742E+01 0.  0.
     999903    2    3    3    0    0  0.67864470525E-01 -0.10008221547E+00  0.47428333904E-01  0.13138215461E+00  0.19743036258E-01 0.  0.
         14    1    1    2    0    0  0.11030915311E-02 -0.38661053789E-02 -0.23068424241E-01  0.23416143548E-01  0.00000000000E+00 0.  1.
     999901    1    3    3    0    0 -0.68967562057E-01  0.10394832084E+00 -0.24359909664E-01  0.88913170184E+00  0.88000000000E+00 0.  1.
        -11    1    4    4    0    0  0.53485081767E-01 -0.67114474939E-01  0.26760799251E-01  0.89896652972E-01  0.51100000000E-03 0. -1.
         11    1    4    4    0    0  0.14379388758E-01 -0.32967740526E-01  0.20667534653E-01  0.41485501637E-01  0.51100000000E-03 0.  1.
</event>
<event>
 8    1  0.1099478E+005  0.1043930E+01  0.7957747E-01            NaN
         13   -1    0    0    0    0  0.00000000000E+00  0.00000000000E+00  0.74505805969E-08  0.10566000000E+00  0.10566000000E+00 0. -1.
     999900   -1    0    0    0    0 -0.00000000000E+00 -0.00000000000E+00 -0.74505805969E-08  0.93827000000E+00  0.93827000000E+00 0.  1.
     999902    2    1    2    0    0  0.17822406079E-01  0.16043118510E-01  0.31314699102E-02  0.10197468258E+01  0.10194600349E+01 0.  0.
     999903    2    3    3    0    0  0.10981553608E+00  0.73021749076E-01  0.40194212952E-02  0.13311833046E+00  0.17683505165E-01 0.  0.
         14    1    1    2    0    0 -0.17822406079E-01 -0.16043118510E-01 -0.31314699102E-02  0.24183174187E-01  0.00000000000E+00 0.  1.
     999901    1    3    3    0    0 -0.91993130002E-01 -0.56978630566E-01 -0.88795138505E-03  0.88662849535E+00  0.88000000000E+00 0. -1.
        -11    1    4    4    0    0  0.95697462995E-01  0.56094825833E-01  0.16074941100E-02  0.11093907818E+00  0.51100000000E-03 0.  1.
         11    1    4    4    0    0  0.14118073086E-01  0.16926923243E-01  0.24119271852E-02  0.22179252284E-01  0.51100000000E-03 0. -1.
</event>
<event>
 8    1  0.1099478E+005  0.1043930E+01  0.7957747E-01            NaN
         13   -1    0    0    0    0  0.00000000000E+00  0.00000000000E+00  0.74505805969E-08  0.10566000000E+00  0.10566000000E+00 0. -1.
     999900   -1    0    0    0    0 -0.00000000000E+00 -0.00000000000E+00 -0.74505805969E-08  0.93827000000E+00  0.93827000000E+00 0.  1.
     999902    2    1    2    0    0  0.13773887302E-01 -0.21089707019E-01 -0.34482745103E-02  0.10185058715E+01  0.10181885012E+01 0.  0.
     999903    2    3    3    0    0  0.91348345614E-01  0.65445144435E-02 -0.90447709148E-01  0.13038969192E+00  0.20816646069E-01 0.  0.
         14    1    1    2    0    0 -0.13773887302E-01  0.21089707019E-01  0.34482745103E-02  0.25424128513E-01  0.00000000000E+00 0. -1.
     999901    1    3    3    0    0 -0.77574458312E-01 -0.27634221463E-01  0.86999434638E-01  0.88811617957E+00  0.88000000000E+00 0. -1.
        -11    1    4    4    0    0  0.46029574748E-01  0.95780739012E-02 -0.34464432413E-01  0.58296822158E-01  0.51100000000E-03 0.  1.
         11    1    4    4    0    0  0.45318770866E-01 -0.30335594577E-02 -0.55983276736E-01  0.72092869764E-01  0.51100000000E-03 0. -1.
</event>
<event>
 8    1  0.1099478E+005  0.1043930E+01  0.7957747E-01            NaN
         13   -1    0    0    0    0  0.00000000000E+00  0.00000000000E+00  0.74505805969E-08  0.10566000000E+00  0.10566000000E+00 0.  1.
     999900   -1    0    0    0    0 -0.00000000000E+00 -0.00000000000E+00 -0.74505805969E-08  0.93827000000E+00  0.93827000000E+00 0. -1.
     999902    2    1    2    0    0 -0.91765240637E-02 -0.19743560710E-01 -0.72605433765E-02  0.10209793513E+01  0.10207213643E+01 0.  0.
     999903    2    3    3    0    0 -0.11139341190E+00 -0.67767220264E-01 -0.21451132183E-01  0.13364855799E+00  0.20022428003E-01 0.  0.
         14    1    1    2    0    0  0.91765240637E-02  0.19743560710E-01  0.72605433765E-02  0.22950648651E-01  0.00000000000E+00 0.  1.
     999901    1    3    3    0    0  0.10221688784E+00  0.48023659554E-01  0.14190588806E-01  0.88733079336E+00  0.88000000000E+00 0.  1.
        -11    1    4    4    0    0 -0.28281358849E-01 -0.14856169577E-01  0.31274731311E-02  0.32102698360E-01  0.51100000000E-03 0. -1.
         11    1    4    4    0    0 -0.83112053052E-01 -0.52911050687E-01 -0.24578605314E-01  0.10154585963E+00  0.51100000000E-03 0.  1.
</event>
<event>
 8    1  0.1099478E+005  0.1043930E+01  0.7957747E-01            NaN
         13   -1    0    0    0    0  0.00000000000E+00  0.00000000000E+00  0.74505805969E-08  0.10566000000E+00  0.10566000000E+00 0. -1.
     999900   -1    0    0    0    0 -0.00000000000E+00 -0.00000000000E+00 -0.74505805969E-08  0.93827000000E+00  0.93827000000E+00 0.  1.
     999902    2    1    2    0    0  0.15364273914E-01  0.14065659169E-01  0.11186131374E-01  0.10202861167E+01  0.10200121209E+01 0.  0.
     999903    2    3    3    0    0  0.80802640402E-01  0.91700866631E-01  0.52556514076E-01  0.13348235388E+00  0.10827556927E-01 0.  0.
         14    1    1    2    0    0 -0.15364273914E-01 -0.14065659169E-01 -0.11186131374E-01  0.23643883265E-01  0.00000000000E+00 0.  1.
     999901    1    3    3    0    0 -0.65438366488E-01 -0.77635207462E-01 -0.41370382702E-01  0.88680376285E+00  0.88000000000E+00 0. -1.
        -11    1    4    4    0    0  0.40906066386E-01  0.38629126165E-01  0.25757007831E-01  0.61880531905E-01  0.51100000000E-03 0. -1.
         11    1    4    4    0    0  0.39896574016E-01  0.53071740466E-01  0.26799506245E-01  0.71601821976E-01  0.51100000000E-03 0.  1.
</event>
<event>
 8    1  0.1099478E+005  0.1043930E+01  0.7957747E-01            NaN
         13   -1    0    0    0    0  0.00000000000E+00  0.00000000000E+00  0.74505805969E-08  0.10566000000E+00  0.10566000000E+00 0.  1.
     999900   -1    0    0    0    0 -0.00000000000E+00 -0.00000000000E+00 -0.74505805969E-08  0.93827000000E+00  0.93827000000E+00 0.  1.
     999902    2    1    2    0    0  0.13758719004E-01  0.12653196963E-01  0.14591570982E-01  0.10202167192E+01  0.10199410936E+01 0.  0.
     999903    2    3    3    0    0 -0.41033017523E-01  0.12170924865E+00 -0.17717558618E-01  0.13120646243E+00  0.20109056813E-01 0.  0.
         14    1    1    2    0    0 -0.13758719004E-01 -0.12653196963E-01 -0.14591570982E-01  0.23713280788E-01  0.00000000000E+00 0. -1.
     999901    1    3    3    0    0  0.54791736527E-01 -0.10905605169E+00  0.32309129601E-01  0.88901025678E+00  0.88000000000E+00 0. -1.
        -11    1    4    4    0    0 -0.36680780799E-01  0.93287270528E-01 -0.68887810817E-02  0.10047741512E+00  0.51100000000E-03 0. -1.
         11    1    4    4    0    0 -0.43522367237E-02  0.28421978126E-01 -0.10828777536E-01  0.30729047317E-01  0.51100000000E-03 0.  1.
</event>
<event>
 7    1  0.1099478E+005  0.1043930E+01  0.7957747E-01            NaN
         13   -1    0    0    0    0  0.00000000000E+00  0.00000000000E+00  0.74505805969E-08  0.10566000000E+00  0.10566000000E+00 0. -1.
     999900   -1    0    0    0    0 -0.00000000000E+00 -0.00000000000E+00 -0.74505805969E-08  0.93827000000E+00  0.93827000000E+00 0. -1.
     999903    2    1    2    0    0 -0.80330213446E-01 -0.98268160794E-02 -0.70269759477E-01  0.10898741841E+00  0.19771412879E-01 0.  0.
         14    1    1    2    0    0 -0.15553212914E-01 -0.29453413963E-01  0.34774507189E-01  0.48152594699E-01  0.00000000000E+00 0. -1.
     999901    1    1    2    0    0  0.95883426360E-01  0.39280230042E-01  0.35495252288E-01  0.88678998690E+00  0.88000000000E+00 0.  1.
        -11    1    3    3    0    0 -0.43935506885E-01  0.10193564885E-02 -0.47459531882E-01  0.64684125876E-01  0.51100000000E-03 0.  1.
         11    1    3    3    0    0 -0.36394706561E-01 -0.10846172568E-01 -0.22810227595E-01  0.44303292530E-01  0.51100000000E-03 0. -1.
</event>
<event>
 8    1  0.1099478E+005  0.1043930E+01  0.7957747E-01            NaN
         13   -1    0    0    0    0  0.00000000000E+00  0.00000000000E+00  0.74505805969E-08  0.10566000000E+00  0.10566000000E+00 0.  1.
     999900   -1    0    0    0    0 -0.00000000000E+00 -0.00000000000E+00 -0.74505805969E-08  0.93827000000E+00  0.93827000000E+00 0.  1.
     999902    2    1    2    0    0  0.14835785593E-01  0.12690459316E-01 -0.12293701159E-01  0.10208587326E+01  0.10205979956E+01 0.  0.
     999903    2    3    3    0    0 -0.31840645819E-01 -0.12329804023E+00  0.29920234192E-02  0.12905986814E+00  0.20766894567E-01 0.  0.
         14    1    1    2    0    0 -0.14835785593E-01 -0.12690459316E-01  0.12293701159E-01  0.23071267412E-01  0.00000000000E+00 0.  1.
     999901    1    3    3    0    0  0.46676431412E-01  0.13598849954E+00 -0.15285724578E-01  0.89179886445E+00  0.88000000000E+00 0.  1.
        -11    1    4    4    0    0 -0.68834032051E-02 -0.48610266794E-01 -0.73132757436E-02  0.49639544725E-01  0.51100000000E-03 0. -1.
         11    1    4    4    0    0 -0.24957242614E-01 -0.74687773433E-01  0.10305299163E-01  0.79420323413E-01  0.51100000000E-03 0.  1.
</event>
<event>
 8    1  0.1099478E+005  0.1043930E+01  0.7957747E-01            NaN
         13   -1    0    0    0    0  0.00000000000E+00  0.00000000000E+00  0.74505805969E-08  0.10566000000E+00  0.10566000000E+00 0. -1.
     999900   -1    0    0    0    0 -0.00000000000E+00 -0.00000000000E+00 -0.74505805969E-08  0.93827000000E+00  0.93827000000E+00 0. -1.
     999902    2    1    2    0    0  0.14312960296E-01 -0.18319270095E-01  0.59636714765E-02  0.10199295444E+01  0.10196471222E+01 0.  0.
     999903    2    3    3    0    0 -0.10963231338E+00 -0.53661999177E-01  0.40089078621E-01  0.12988680234E+00  0.19094316029E-01 0.  0.
         14    1    1    2    0    0 -0.14312960296E-01  0.18319270095E-01 -0.59636714765E-02  0.24000455552E-01  0.00000000000E+00 0.  1.
     999901    1    3    3    0    0  0.12394527368E+00  0.35342729082E-01 -0.34125407145E-01  0.89004274211E+00  0.88000000000E+00 0. -1.
        -11    1    4    4    0    0 -0.89704804649E-02  0.39747179788E-03  0.53372287638E-02  0.10458232904E-01  0.51100000000E-03 0.  1.
         11    1    4    4    0    0 -0.10066183292E+00 -0.54059470975E-01  0.34751849857E-01  0.11942856944E+00  0.51100000000E-03 0. -1.
</event>
<event>
 8    1  0.1209699E+005  0.1043930E+01  0.7957747E-01            NaN
         13   -1    0    0    0    0  0.00000000000E+00  0.00000000000E+00  0.74505805969E-08  0.10566000000E+00  0.10566000000E+00 0.  1.
     999900   -1    0    0    0    0 -0.00000000000E+00 -0.00000000000E+00 -0.74505805969E-08  0.93827000000E+00  0.93827000000E+00 0.  1.
     999902    2    1    2    0    0  0.82218901679E-03  0.14253305394E-01 -0.19049949816E-01  0.10201238391E+01  0.10198460245E+01 0.  0.
     999903    2    3    3    0    0 -0.12585767897E+00 -0.14676195433E-01  0.20757186756E-01  0.12969174561E+00  0.18263132524E-01 0.  0.
         14    1    1    2    0    0 -0.82218901679E-03 -0.14253305394E-01  0.19049949816E-01  0.23806160913E-01  0.00000000000E+00 0.  1.
     999901    1    3    3    0    0  0.12667986799E+00  0.28929500827E-01 -0.39807136573E-01  0.89043209348E+00  0.88000000000E+00 0.  1.
        -11    1    4    4    0    0 -0.56668836849E-01 -0.36440812489E-02  0.18000667701E-01  0.59572825656E-01  0.51100000000E-03 0. -1.
         11    1    4    4    0    0 -0.69188842120E-01 -0.11032114184E-01  0.27565190558E-02  0.70118919954E-01  0.51100000000E-03 0.  1.
</event>
<event>
 8    1  0.1119946E+005  0.1043930E+01  0.7957747E-01            NaN
         13   -1    0    0    0    0  0.00000000000E+00  0.00000000000E+00  0.74505805969E-08  0.10566000000E+00  0.10566000000E+00 0.  1.
     999900   -1    0    0    0    0 -0.00000000000E+00 -0.00000000000E+00 -0.74505805969E-08  0.93827000000E+00  0.93827000000E+00 0.  1.
     999902    2    1    2    0    0  0.11550976592E-01  0.28816288635E-02 -0.19170987634E-01  0.10213633075E+01  0.10211139751E+01 0.  0.
     999903    2    3    3    0    0  0.90318097250E-01 -0.55759238182E-01  0.73901427116E-01  0.13102321235E+00  0.20957335489E-01 0.  0.
         14    1    1    2    0    0 -0.11550976592E-01 -0.28816288635E-02  0.19170987634E-01  0.22566692535E-01  0.00000000000E+00 0.  1.
     999901    1    3    3    0    0 -0.78767120659E-01  0.58640867046E-01 -0.93072414750E-01  0.89034009512E+00  0.88000000000E+00 0.  1.
        -11    1    4    4    0    0  0.50562370564E-01 -0.43144983866E-01  0.44525942527E-01  0.80005397498E-01  0.51100000000E-03 0.  1.
         11    1    4    4    0    0  0.39755726686E-01 -0.12614254316E-01  0.29375484589E-01  0.51017814850E-01  0.51100000000E-03 0. -1.
</event>
<event>
 8    1  0.1099478E+005  0.1043930E+01  0.7957747E-01            NaN
         13   -1    0    0    0    0  0.00000000000E+00  0.00000000000E+00  0.74505805969E-08  0.10566000000E+00  0.10566000000E+00 0. -1.
     999900   -1    0    0    0    0 -0.00000000000E+00 -0.00000000000E+00 -0.74505805969E-08  0.93827000000E+00  0.93827000000E+00 0.  1.
     999902    2    1    2    0    0 -0.45343147092E-02  0.16259228176E-01 -0.11740305073E-01  0.10233689379E+01  0.10231623653E+01 0.  0.
     999903    2    3    3    0    0 -0.50909883300E-01 -0.54216418535E-01 -0.10974942508E+00  0.13391781630E+00  0.18915838861E-01 0.  0.
         14    1    1    2    0    0  0.45343147092E-02 -0.16259228176E-01  0.11740305073E-01  0.20561062083E-01  0.00000000000E+00 0.  1.
     999901    1    3    3    0    0  0.46375568591E-01  0.70475646711E-01  0.98009120011E-01  0.88945112162E+00  0.88000000000E+00 0. -1.
        -11    1    4    4    0    0 -0.18201158646E-01 -0.30290440140E-01 -0.61235798630E-01  0.70702737533E-01  0.51100000000E-03 0. -1.
         11    1    4    4    0    0 -0.32708724654E-01 -0.23925978395E-01 -0.48513626454E-01  0.63215078766E-01  0.51100000000E-03 0.  1.
</event>
<event>
 8    1  0.1099478E+005  0.1043930E+01  0.7957747E-01            NaN
         13   -1    0    0    0    0  0.00000000000E+00  0.00000000000E+00  0.74505805969E-08  0.10566000000E+00  0.10566000000E+00 0. -1.
     999900   -1    0    0    0    0 -0.00000000000E+00 -0.00000000000E+00 -0.74505805969E-08  0.93827000000E+00  0.93827000000E+00 0. -1.
     999902    2    1    2    0    0  0.13406647172E-01  0.13444295325E-01  0.13933552820E-01  0.10203793915E+01  0.10201075784E+01 0.  0.
     999903    2    3    3    0    0  0.82376244606E-01 -0.30180731536E-01  0.97435529654E-01  0.13266742897E+00  0.20254432562E-01 0.  0.
         14    1    1    2    0    0 -0.13406647172E-01 -0.13444295325E-01 -0.13933552820E-01  0.23550608472E-01  0.00000000000E+00 0.  1.
     999901    1    3    3    0    0 -0.68969597434E-01  0.43625026861E-01 -0.83501976834E-01  0.88771196256E+00  0.88000000000E+00 0. -1.
        -11    1    4    4    0    0  0.81277775330E-02 -0.11300415892E-02  0.19547862961E-01  0.21206551557E-01  0.51100000000E-03 0. -1.
         11    1    4    4    0    0  0.74248467073E-01 -0.29050689947E-01  0.77887666693E-01  0.11146087741E+00  0.51100000000E-03 0.  1.
</event>
<event>
 8    1  0.1099478E+005  0.1043930E+01  0.7957747E-01            NaN
         13   -1    0    0    0    0  0.00000000000E+00  0.00000000000E+00  0.74505805969E-08  0.10566000000E+00  0.10566000000E+00 0.  1.
     999900   -1    0    0    0    0 -0.00000000000E+00 -0.00000000000E+00 -0.74505805969E-08  0.93827000000E+00  0.93827000000E+00 0.  1.
     999902    2    1    2    0    0 -0.27897110756E-02 -0.79124926102E-02 -0.19007162191E-01  0.10231535171E+01  0.10229425484E+01 0.  0.
     999903    2    3    3    0    0  0.34286269713E-01 -0.11876024537E+00 -0.47737781917E-01  0.13496023793E+00  0.25609096609E-01 0.  0.
         14    1    1    2    0    0  0.27897110756E-02  0.79124926102E-02  0.19007162191E-01  0.20776482902E-01  0.00000000000E+00 0.  1.
     999901    1    3    3    0    0 -0.37075980789E-01  0.11084775276E+00  0.28730619725E-01  0.88819327916E+00  0.88000000000E+00 0. -1.
        -11    1    4    4    0    0  0.18654784241E-01 -0.10003890665E+00 -0.40341669743E-01  0.10946915208E+00  0.51100000000E-03 0.  1.
         11    1    4    4    0    0  0.15631485472E-01 -0.18721338718E-01 -0.73961121739E-02  0.25491085849E-01  0.51100000000E-03 0. -1.
</event>
<event>
 8    1  0.1099478E+005  0.1043930E+01  0.7957747E-01            NaN
         13   -1    0    0    0    0  0.00000000000E+00  0.00000000000E+00  0.74505805969E-08  0.10566000000E+00  0.10566000000E+00 0. -1.
     999900   -1    0    0    0    0 -0.00000000000E+00 -0.00000000000E+00 -0.74505805969E-08  0.93827000000E+00  0.93827000000E+00 0. -1.
     999902    2    1    2    0    0  0.12654549218E-01 -0.17404637054E-01 -0.95654492307E-02  0.10203809697E+01  0.10201091935E+01 0.  0.
     999903    2    3    3    0    0 -0.12049335935E+00 -0.14477130428E-01 -0.42273996681E-01  0.12975939751E+00  0.17949192047E-01 0.  0.
         14    1    1    2    0    0 -0.12654549218E-01  0.17404637054E-01  0.95654492307E-02  0.23549030253E-01  0.00000000000E+00 0.  1.
     999901    1    3    3    0    0  0.13314790857E+00 -0.29275066260E-02  0.32708547450E-01  0.89062157223E+00  0.88000000000E+00 0.  1.
        -11    1    4    4    0    0 -0.57558118708E-01  0.15324623559E-02 -0.16587494955E-01  0.59922379625E-01  0.51100000000E-03 0.  1.
         11    1    4    4    0    0 -0.62935240641E-01 -0.16009592784E-01 -0.25686501725E-01  0.69837017888E-01  0.51100000000E-03 0. -1.
</event>
<event>
 8    1  0.1099478E+005  0.1043930E+01  0.7957747E-01            NaN
         13   -1    0    0    0    0  0.00000000000E+00  0.00000000000E+00  0.74505805969E-08  0.10566000000E+00  0.10566000000E+00 0.  1.
     999900   -1    0    0    0    0 -0.00000000000E+00 -0.00000000000E+00 -0.74505805969E-08  0.93827000000E+00  0.93827000000E+00 0. -1.
     999902    2    1    2    0    0 -0.12394760007E-01 -0.20652825870E-01 -0.24098764399E-02  0.10197230424E+01  0.10194356804E+01 0.  0.
     999903    2    3    3    0    0 -0.21282396262E-01  0.86083875386E-01 -0.90992060479E-01  0.12881422731E+00  0.21217353611E-01 0.  0.
         14    1    1    2    0    0  0.12394760007E-01  0.20652825870E-01  0.24098764399E-02  0.24206957605E-01  0.00000000000E+00 0. -1.
     999901    1    3    3    0    0  0.88876362550E-02 -0.10673670126E+00  0.88582184039E-01  0.89090881509E+00  0.88000000000E+00 0. -1.
        -11    1    4    4    0    0 -0.16335557749E-01  0.43860990188E-01 -0.60512021567E-01  0.76502305733E-01  0.51100000000E-03 0.  1.
         11    1    4    4    0    0 -0.49468385135E-02  0.42222885198E-01 -0.30480038911E-01  0.52311921574E-01  0.51100000000E-03 0. -1.
</event>
<event>
 8    1  0.1099478E+005  0.1043930E+01  0.7957747E-01            NaN
         13   -1    0    0    0    0  0.00000000000E+00  0.00000000000E+00  0.74505805969E-08  0.10566000000E+00  0.10566000000E+00 0. -1.
     999900   -1    0    0    0    0 -0.00000000000E+00 -0.00000000000E+00 -0.74505805969E-08  0.93827000000E+00  0.93827000000E+00 0.  1.
     999902    2    1    2    0    0  0.22727936889E-01 -0.38073527586E-02  0.23171887057E-02  0.10207691621E+01  0.10205063732E+01 0.  0.
     999903    2    3    3    0    0 -0.87874277380E-01 -0.89544941074E-02  0.91341002925E-01  0.12937442214E+00  0.24341131847E-01 0.  0.
         14    1    1    2    0    0 -0.22727936889E-01  0.38073527586E-02 -0.23171887057E-02  0.23160837933E-01  0.00000000000E+00 0.  1.
     999901    1    3    3    0    0  0.11060221427E+00  0.51471413488E-02 -0.89023814220E-01  0.89139473992E+00  0.88000000000E+00 0.  1.
        -11    1    4    4    0    0 -0.20916753862E-01  0.71811903300E-02  0.16038873426E-01  0.27323738185E-01  0.51100000000E-03 0.  1.
         11    1    4    4    0    0 -0.66957523519E-01 -0.16135684437E-01  0.75302129500E-01  0.10205068396E+00  0.51100000000E-03 0. -1.
</event>
<event>
 8    1  0.1099478E+005  0.1043930E+01  0.7957747E-01            NaN
         13   -1    0    0    0    0  0.00000000000E+00  0.00000000000E+00  0.74505805969E-08  0.10566000000E+00  0.10566000000E+00 0. -1.
     999900   -1    0    0    0    0 -0.00000000000E+00 -0.00000000000E+00 -0.74505805969E-08  0.93827000000E+00  0.93827000000E+00 0. -1.
     999902    2    1    2    0    0  0.46417722053E-02  0.18843340597E-01  0.26092937412E-02  0.10243487348E+01  0.10241615617E+01 0.  0.
     999903    2    3    3    0    0 -0.12710722844E+00  0.27525495771E-01  0.26235145976E-01  0.13418506450E+00  0.20086020283E-01 0.  0.
         14    1    1    2    0    0 -0.46417722053E-02 -0.18843340597E-01 -0.26092937412E-02  0.19581265227E-01  0.00000000000E+00 0.  1.
     999901    1    3    3    0    0  0.13174900064E+00 -0.86821551744E-02 -0.23625852235E-01  0.89016367028E+00  0.88000000000E+00 0. -1.
        -11    1    4    4    0    0 -0.64138622769E-01  0.11897441483E-01  0.31196115462E-02  0.65309303639E-01  0.51100000000E-03 0.  1.
         11    1    4    4    0    0 -0.62968605668E-01  0.15628054288E-01  0.23115534430E-01  0.68875760857E-01  0.51100000000E-03 0. -1.
</event>
<event>
 8    1  0.1099478E+005  0.1043930E+01  0.7957747E-01            NaN
         13   -1    0    0    0    0  0.00000000000E+00  0.00000000000E+00  0.74505805969E-08  0.10566000000E+00  0.10566000000E+00 0.  1.
     999900   -1    0    0    0    0 -0.00000000000E+00 -0.00000000000E+00 -0.74505805969E-08  0.93827000000E+00  0.93827000000E+00 0. -1.
     999902    2    1    2    0    0 -0.11538030866E-02  0.18503010856E-01  0.14737336373E-01  0.10202470577E+01  0.10199721452E+01 0.  0.
     999903    2    3    3    0    0 -0.87382886113E-02  0.10491151589E+00 -0.75733346371E-01  0.13136635784E+00  0.20947466807E-01 0.  0.
         14    1    1    2    0    0  0.11538030866E-02 -0.18503010856E-01 -0.14737336373E-01  0.23682942293E-01  0.00000000000E+00 0. -1.
     999901    1    3    3    0    0  0.75844855247E-02 -0.86408505031E-01  0.90470682744E-01  0.88888069987E+00  0.88000000000E+00 0.  1.
        -11    1    4    4    0    0 -0.10400647651E-01  0.21703620000E-01 -0.18504958196E-01  0.30363056360E-01  0.51100000000E-03 0. -1.
         11    1    4    4    0    0  0.16623590397E-02  0.83207895887E-01 -0.57228388175E-01  0.10100330148E+00  0.51100000000E-03 0.  1.
</event>
<event>
 8    1  0.1099478E+005  0.1043930E+01  0.7957747E-01            NaN
         13   -1    0    0    0    0  0.00000000000E+00  0.00000000000E+00  0.74505805969E-08  0.10566000000E+00  0.10566000000E+00 0.  1.
     999900   -1    0    0    0    0 -0.00000000000E+00 -0.00000000000E+00 -0.74505805969E-08  0.93827000000E+00  0.93827000000E+00 0.  1.
     999902    2    1    2    0    0 -0.20927190844E-01  0.52656053720E-03  0.11028099494E-01  0.10202689865E+01  0.10199945888E+01 0.  0.
     999903    2    3    3    0    0  0.18901225058E-01  0.12318876230E+00 -0.28445433354E-01  0.12999347954E+00  0.23588865570E-01 0.  0.
         14    1    1    2    0    0  0.20927190844E-01 -0.52656053720E-03 -0.11028099494E-01  0.23661013525E-01  0.00000000000E+00 0. -1.
     999901    1    3    3    0    0 -0.39828415901E-01 -0.12266220176E+00  0.39473532848E-01  0.89027550694E+00  0.88000000000E+00 0.  1.
        -11    1    4    4    0    0  0.35633408776E-02  0.91207761013E-01 -0.18255215418E-01  0.93086342060E-01  0.51100000000E-03 0. -1.
         11    1    4    4    0    0  0.15337884180E-01  0.31981001284E-01 -0.10190217936E-01  0.36907137479E-01  0.51100000000E-03 0.  1.
</event>
<event>
 8    1  0.1099478E+005  0.1043930E+01  0.7957747E-01            NaN
         13   -1    0    0    0    0  0.00000000000E+00  0.00000000000E+00  0.74505805969E-08  0.10566000000E+00  0.10566000000E+00 0. -1.
     999900   -1    0    0    0    0 -0.00000000000E+00 -0.00000000000E+00 -0.74505805969E-08  0.93827000000E+00  0.93827000000E+00 0.  1.
     999902    2    1    2    0    0 -0.20833894899E-01 -0.10748458669E-01  0.27340090683E-02  0.10203279800E+01  0.10200549649E+01 0.  0.
     999903    2    3    3    0    0 -0.90131485324E-01  0.74485902364E-01 -0.57221577072E-01  0.13147381616E+00  0.18417957435E-01 0.  0.
         14    1    1    2    0    0  0.20833894899E-01  0.10748458669E-01 -0.27340090683E-02  0.23602019956E-01  0.00000000000E+00 0. -1.
     999901    1    3    3    0    0  0.69297590425E-01 -0.85234361032E-01  0.59955586140E-01  0.88885416388E+00  0.88000000000E+00 0.  1.
        -11    1    4    4    0    0 -0.10027036206E-01  0.83926515376E-02 -0.13475984987E-01  0.18784071638E-01  0.51100000000E-03 0. -1.
         11    1    4    4    0    0 -0.80104449118E-01  0.66093250826E-01 -0.43745592085E-01  0.11268974453E+00  0.51100000000E-03 0.  1.
</event>
<event>
 8    1  0.1099478E+005  0.1043930E+01  0.7957747E-01            NaN
         13   -1    0    0    0    0  0.00000000000E+00  0.00000000000E+00  0.74505805969E-08  0.10566000000E+00  0.10566000000E+00 0.  1.
     999900   -1    0    0    0    0 -0.00000000000E+00 -0.00000000000E+00 -0.74505805969E-08  0.93827000000E+00  0.93827000000E+00 0. -1.
     999902    2    1    2    0    0 -0.68197155354E-02  0.88159503037E-02 -0.20734593204E-01  0.10203895485E+01  0.10201179725E+01 0.  0.
     999903    2    3    3    0    0  0.39123217054E-01 -0.10012543260E+00 -0.71957856475E-01  0.13100616626E+00  0.20711207711E-01 0.  0.
         14    1    1    2    0    0  0.68197155354E-02 -0.88159503037E-02  0.20734593204E-01  0.23540451463E-01  0.00000000000E+00 0.  1.
     999901    1    3    3    0    0 -0.45942932589E-01  0.10894138290E+00  0.51223263272E-01  0.88938338227E+00  0.88000000000E+00 0.  1.
        -11    1    4    4    0    0  0.11161812078E-01 -0.17133468235E-01 -0.22582263671E-01  0.30469025848E-01  0.51100000000E-03 0.  1.
         11    1    4    4    0    0  0.27961404976E-01 -0.82991964364E-01 -0.49375592805E-01  0.10053714042E+00  0.51100000000E-03 0. -1.
</event>
<event>
 8    1  0.1099478E+005  0.1043930E+01  0.7957747E-01            NaN
         13   -1    0    0    0    0  0.00000000000E+00  0.00000000000E+00  0.74505805969E-08  0.10566000000E+00  0.10566000000E+00 0. -1.
     999900   -1    0    0    0    0 -0.00000000000E+00 -0.00000000000E+00 -0.74505805969E-08  0.93827000000E+00  0.93827000000E+00 0. -1.
     999902    2    1    2    0    0  0.91206047145E-02  0.19534345180E-01 -0.17011164996E-02  0.10223043238E+01  0.10220755651E+01 0.  0.
     999903    2    3    3    0    0  0.11882204001E+00 -0.33469187369E-01  0.44415901510E-01  0.13271421670E+00  0.20035651067E-01 0.  0.
         14    1    1    2    0    0 -0.91206047145E-02 -0.19534345180E-01  0.17011164996E-02  0.21625676158E-01  0.00000000000E+00 0. -1.
     999901    1    3    3    0    0 -0.10970143529E+00  0.53003532548E-01 -0.46117018010E-01  0.88959010714E+00  0.88000000000E+00 0. -1.
        -11    1    4    4    0    0  0.34372966663E-01 -0.12305437964E-01  0.40088370997E-02  0.36732227493E-01  0.51100000000E-03 0. -1.
         11    1    4    4    0    0  0.84449073345E-01 -0.21163749405E-01  0.40407064410E-01  0.95981989211E-01  0.51100000000E-03 0.  1.
</event>
<event>
 8    1  0.1099478E+005  0.1043930E+01  0.7957747E-01            NaN
         13   -1    0    0    0    0  0.00000000000E+00  0.00000000000E+00  0.74505805969E-08  0.10566000000E+00  0.10566000000E+00 0. -1.
     999900   -1    0    0    0    0 -0.00000000000E+00 -0.00000000000E+00 -0.74505805969E-08  0.93827000000E+00  0.93827000000E+00 0. -1.
     999902    2    1    2    0    0 -0.13733055952E-02 -0.21717427595E-01  0.90725330626E-02  0.10203536668E+01  0.10200812526E+01 0.  0.
     999903    2    3    3    0    0  0.49036866862E-01  0.11584387320E+00 -0.18992842047E-01  0.12780004814E+00  0.12153476271E-01 0.  0.
         14    1    1    2    0    0  0.13733055952E-02  0.21717427595E-01 -0.90725330626E-02  0.23576333171E-01  0.00000000000E+00 0. -1.
     999901    1    3    3    0    0 -0.50410172457E-01 -0.13756130079E+00  0.28065375109E-01  0.89255361869E+00  0.88000000000E+00 0. -1.
        -11    1    4    4    0    0  0.83931123578E-02  0.14101849800E-01  0.91947908020E-03  0.16444241108E-01  0.51100000000E-03 0. -1.
         11    1    4    4    0    0  0.40643754504E-01  0.10174202340E+00 -0.19912321127E-01  0.11135580703E+00  0.51100000000E-03 0.  1.
</event>
<event>
 8    1  0.1099478E+005  0.1043930E+01  0.7957747E-01            NaN
         13   -1    0    0    0    0  0.00000000000E+00  0.00000000000E+00  0.74505805969E-08  0.10566000000E+00  0.10566000000E+00 0. -1.
     999900   -1    0    0    0    0 -0.00000000000E+00 -0.00000000000E+00 -0.74505805969E-08  0.93827000000E+00  0.93827000000E+00 0. -1.
     999902    2    1    2    0    0 -0.20949678374E-01 -0.10452338770E-01 -0.64999052582E-02  0.10196320746E+01  0.10193425226E+01 0.  0.
     999903    2    3    3    0    0 -0.10743156717E+00  0.12811556918E-01  0.72212609603E-01  0.13159154292E+00  0.19899637372E-01 0.  0.
         14    1    1    2    0    0  0.20949678374E-01  0.10452338770E-01  0.64999052582E-02  0.24297925387E-01  0.00000000000E+00 0.  1.
     999901    1    3    3    0    0  0.86481888795E-01 -0.23263895688E-01 -0.78712514861E-01  0.88804053169E+00  0.88000000000E+00 0. -1.
        -11    1    4    4    0    0 -0.60445927936E-01  0.13289659095E-02  0.49560658689E-01  0.78179257896E-01  0.51100000000E-03 0.  1.
         11    1    4    4    0    0 -0.46985639233E-01  0.11482591008E-01  0.22651950914E-01  0.53412285025E-01  0.51100000000E-03 0. -1.
</event>
<event>
 8    1  0.1099478E+005  0.1043930E+01  0.7957747E-01            NaN
         13   -1    0    0    0    0  0.00000000000E+00  0.00000000000E+00  0.74505805969E-08  0.10566000000E+00  0.10566000000E+00 0.  1.
     999900   -1    0    0    0    0 -0.00000000000E+00 -0.00000000000E+00 -0.74505805969E-08  0.93827000000E+00  0.93827000000E+00 0. -1.
     999902    2    1    2    0    0 -0.12514156077E-01  0.19861746265E-01 -0.16543707051E-02  0.10203964068E+01  0.10201249909E+01 0.  0.
     999903    2    3    3    0    0  0.11884680583E-01 -0.87933137116E-01 -0.91392943801E-01  0.12895484863E+00  0.20079854898E-01 0.  0.
         14    1    1    2    0    0  0.12514156077E-01 -0.19861746265E-01  0.16543707051E-02  0.23533593211E-01  0.00000000000E+00 0.  1.
     999901    1    3    3    0    0 -0.24398836660E-01  0.10779488338E+00  0.89738573096E-01  0.89144155816E+00  0.88000000000E+00 0.  1.
        -11    1    4    4    0    0  0.12786536728E-01 -0.25895876215E-01 -0.27156302334E-01  0.39646157492E-01  0.51100000000E-03 0.  1.
         11    1    4    4    0    0 -0.90185614554E-03 -0.62037260901E-01 -0.64236641467E-01  0.89308691137E-01  0.51100000000E-03 0. -1.
</event>
<event>
 8    1  0.1099478E+005  0.1043930E+01  0.7957747E-01            NaN
         13   -1    0    0    0    0  0.00000000000E+00  0.00000000000E+00  0.74505805969E-08  0.10566000000E+00  0.10566000000E+00 0. -1.
     999900   -1    0    0    0    0 -0.00000000000E+00 -0.00000000000E+00 -0.74505805969E-08  0.93827000000E+00  0.93827000000E+00 0. -1.
     999902    2    1    2    0    0  0.21947430807E-01  0.17261638706E-01 -0.17426600791E-01  0.10110158647E+01  0.10104799544E+01 0.  0.
     999903    2    3    3    0    0 -0.67250796297E-01  0.78069143916E-01 -0.64142165707E-01  0.12318918089E+00  0.21068840336E-01 0.  0.
         14    1    1    2    0    0 -0.21947430807E-01 -0.17261638706E-01  0.17426600791E-01  0.32914135337E-01  0.00000000000E+00 0. -1.
     999901    1    3    3    0    0  0.89198227104E-01 -0.60807505210E-01  0.46715564916E-01  0.88782668377E+00  0.88000000000E+00 0.  1.
        -11    1    4    4    0    0 -0.59558690764E-01  0.65170413525E-01 -0.62287686605E-01  0.10804831081E+00  0.51100000000E-03 0.  1.
         11    1    4    4    0    0 -0.76921055327E-02  0.12898730391E-01 -0.18544791020E-02  0.15140870086E-01  0.51100000000E-03 0. -1.
</event>
<event>
 8    1  0.1099478E+005  0.1043930E+01  0.7957747E-01            NaN
         13   -1    0    0    0    0  0.00000000000E+00  0.00000000000E+00  0.74505805969E-08  0.10566000000E+00  0.10566000000E+00 0. -1.
     999900   -1    0    0    0    0 -0.00000000000E+00 -0.00000000000E+00 -0.74505805969E-08  0.93827000000E+00  0.93827000000E+00 0.  1.
     999902    2    1    2    0    0  0.24464678969E-01 -0.12371175766E-01 -0.18853753472E-01  0.10106579317E+01  0.10101101051E+01 0.  0.
     999903    2    3    3    0    0  0.45867213616E-01  0.10159028332E+00 -0.47144658631E-01  0.12260069373E+00  0.19593986738E-01 0.  0.
         14    1    1    2    0    0 -0.24464678969E-01  0.12371175766E-01  0.18853753472E-01  0.33272068268E-01  0.00000000000E+00 0. -1.
     999901    1    3    3    0    0 -0.21402534647E-01 -0.11396145909E+00  0.28290905159E-01  0.88805723800E+00  0.88000000000E+00 0. -1.
        -11    1    4    4    0    0  0.31648370846E-01  0.57905979312E-01 -0.18801401210E-01  0.68618333016E-01  0.51100000000E-03 0.  1.
         11    1    4    4    0    0  0.14218842769E-01  0.43684304009E-01 -0.28343257421E-01  0.53982360718E-01  0.51100000000E-03 0. -1.
</event>
<event>
 8    1  0.1099478E+005  0.1043930E+01  0.7957747E-01            NaN
         13   -1    0    0    0    0  0.00000000000E+00  0.00000000000E+00  0.74505805969E-08  0.10566000000E+00  0.10566000000E+00 0. -1.
     999900   -1    0    0    0    0 -0.00000000000E+00 -0.00000000000E+00 -0.74505805969E-08  0.93827000000E+00  0.93827000000E+00 0. -1.
     999902    2    1    2    0    0 -0.13263518973E-01  0.17412380192E-01 -0.57423389254E-02  0.10213006744E+01  0.10210499406E+01 0.  0.
     999903    2    3    3    0    0 -0.63446837391E-01 -0.97015765621E-01 -0.57596621120E-01  0.13096307970E+00  0.19909734467E-01 0.  0.
         14    1    1    2    0    0  0.13263518973E-01 -0.17412380192E-01  0.57423389254E-02  0.22629325572E-01  0.00000000000E+00 0.  1.
     999901    1    3    3    0    0  0.50183318418E-01  0.11442814581E+00  0.51854282194E-01  0.89033759473E+00  0.88000000000E+00 0.  1.
        -11    1    4    4    0    0 -0.41206962822E-01 -0.66947331914E-01 -0.28668310075E-01  0.83678504761E-01  0.51100000000E-03 0.  1.
         11    1    4    4    0    0 -0.22239874569E-01 -0.30068433707E-01 -0.28928311045E-01  0.47284574941E-01  0.51100000000E-03 0. -1.
</event>
<event>
 7    1  0.2279558E+005  0.1043930E+01  0.7957747E-01            NaN
         13   -1    0    0    0    0  0.00000000000E+00  0.00000000000E+00  0.74505805969E-08  0.10566000000E+00  0.10566000000E+00 0. -1.
     999900   -1    0    0    0    0 -0.00000000000E+00 -0.00000000000E+00 -0.74505805969E-08  0.93827000000E+00  0.93827000000E+00 0.  1.
     999903    2    1    2    0    0 -0.63462676256E-01  0.45139687358E-01  0.45250580619E-01  0.92325376219E-01  0.20279482122E-01 0.  0.
         14    1    1    2    0    0  0.39242990833E-02  0.48592722887E-01  0.36450944202E-01  0.60871374012E-01  0.00000000000E+00 0. -1.
     999901    1    1    2    0    0  0.59538377173E-01 -0.93732410246E-01 -0.81701524821E-01  0.89073324977E+00  0.88000000000E+00 0.  1.
        -11    1    3    3    0    0 -0.26289903949E-01  0.31094945658E-01  0.23718495409E-01  0.47126243651E-01  0.51100000000E-03 0.  1.
         11    1    3    3    0    0 -0.37172772306E-01  0.14044741700E-01  0.21532085210E-01  0.45199132568E-01  0.51100000000E-03 0. -1.
</event>
<event>
 7    1  0.1099478E+005  0.1043930E+01  0.7957747E-01            NaN
         13   -1    0    0    0    0  0.00000000000E+00  0.00000000000E+00  0.74505805969E-08  0.10566000000E+00  0.10566000000E+00 0. -1.
     999900   -1    0    0    0    0 -0.00000000000E+00 -0.00000000000E+00 -0.74505805969E-08  0.93827000000E+00  0.93827000000E+00 0. -1.
     999902    2    1    2    0    0  0.19249710309E-01 -0.12839591898E-01 -0.56569205814E-02  0.10201096890E+01  0.10198315402E+01 0.  0.
         14    1    1    2    0    0 -0.19249710309E-01  0.12839591898E-01  0.56569205814E-02  0.23820311030E-01  0.00000000000E+00 0. -1.
     999901    1    3    3    0    0 -0.17338712553E-01 -0.12332804841E+00  0.51854519604E-01  0.89028047810E+00  0.88000000000E+00 0.  1.
        -11    1    3    3    0    0  0.26693108002E-01  0.80590694720E-01 -0.41666476400E-01  0.94571340621E-01  0.51100000000E-03 0.  1.
         11    1    3    3    0    0  0.98953148598E-02  0.29897761792E-01 -0.15844963785E-01  0.35257870252E-01  0.51100000000E-03 0. -1.
</event>
<event>
 8    1  0.1099478E+005  0.1043930E+01  0.7957747E-01            NaN
         13   -1    0    0    0    0  0.00000000000E+00  0.00000000000E+00  0.74505805969E-08  0.10566000000E+00  0.10566000000E+00 0. -1.
     999900   -1    0    0    0    0 -0.00000000000E+00 -0.00000000000E+00 -0.74505805969E-08  0.93827000000E+00  0.93827000000E+00 0. -1.
     999902    2    1    2    0    0  0.22308646016E-02  0.22560926930E-01  0.15689553463E-02  0.10212048201E+01  0.10209519336E+01 0.  0.
     999903    2    3    3    0    0  0.91566402835E-01 -0.91208584915E-02 -0.91344580406E-01  0.13125117015E+00  0.20382372513E-01 0.  0.
         14    1    1    2    0    0 -0.22308646016E-02 -0.22560926930E-01 -0.15689553463E-02  0.22725179904E-01  0.00000000000E+00 0. -1.
     999901    1    3    3    0    0 -0.89335538234E-01  0.31681785421E-01  0.92913535753E-01  0.88995364994E+00  0.88000000000E+00 0.  1.
        -11    1    4    4    0    0  0.11753814877E-01 -0.45794930249E-02 -0.49947123073E-02  0.13576899225E-01  0.51100000000E-03 0. -1.
         11    1    4    4    0    0  0.79812587958E-01 -0.45413654666E-02 -0.86349868099E-01  0.11767427093E+00  0.51100000000E-03 0.  1.
</event>
<event>
 8    1  0.1099478E+005  0.1043930E+01  0.7957747E-01            NaN
         13   -1    0    0    0    0  0.00000000000E+00  0.00000000000E+00  0.74505805969E-08  0.10566000000E+00  0.10566000000E+00 0. -1.
     999900   -1    0    0    0    0 -0.00000000000E+00 -0.00000000000E+00 -0.74505805969E-08  0.93827000000E+00  0.93827000000E+00 0.  1.
     999902    2    1    2    0    0  0.11267612424E-01  0.20096942925E-01  0.84619868769E-02  0.10193851140E+01  0.10190895737E+01 0.  0.
     999903    2    3    3    0    0 -0.10566186960E+00  0.64249674185E-01  0.35077120108E-01  0.13015492295E+00  0.20431551362E-01 0.  0.
         14    1    1    2    0    0 -0.11267612424E-01 -0.20096942925E-01 -0.84619868769E-02  0.24544885955E-01  0.00000000000E+00 0. -1.
     999901    1    3    3    0    0  0.11692948203E+00 -0.44152731260E-01 -0.26615133231E-01  0.88923019110E+00  0.88000000000E+00 0.  1.
        -11    1    4    4    0    0 -0.89893863210E-01  0.55970837478E-01  0.22267857496E-01  0.10821164396E+00  0.51100000000E-03 0. -1.
         11    1    4    4    0    0 -0.15768006394E-01  0.82788367066E-02  0.12809262612E-01  0.21943278983E-01  0.51100000000E-03 0.  1.
</event>
<event>
 8    1  0.1099478E+005  0.1043930E+01  0.7957747E-01            NaN
         13   -1    0    0    0    0  0.00000000000E+00  0.00000000000E+00  0.74505805969E-08  0.10566000000E+00  0.10566000000E+00 0.  1.
     999900   -1    0    0    0    0 -0.00000000000E+00 -0.00000000000E+00 -0.74505805969E-08  0.93827000000E+00  0.93827000000E+00 0. -1.
     999902    2    1    2    0    0  0.11476171466E-01 -0.32487296534E-02 -0.18288459457E-01  0.10220959783E+01  0.10218627424E+01 0.  0.
     999903    2    3    3    0    0  0.22724218321E-01  0.73925805982E-01 -0.10763085075E+00  0.13414074832E+00  0.20686358729E-01 0.  0.
         14    1    1    2    0    0 -0.11476171466E-01  0.32487296534E-02  0.18288459457E-01  0.21834021737E-01  0.00000000000E+00 0.  1.
     999901    1    3    3    0    0 -0.11248046855E-01 -0.77174535636E-01  0.89342391291E-01  0.88795522995E+00  0.88000000000E+00 0.  1.
        -11    1    4    4    0    0  0.11912127784E-01  0.63581132594E-01 -0.81844367316E-01  0.10432267631E+00  0.51100000000E-03 0.  1.
         11    1    4    4    0    0  0.10812090537E-01  0.10344673388E-01 -0.25786483433E-01  0.29818072005E-01  0.51100000000E-03 0. -1.
</event>
<event>
 8    1  0.1099478E+005  0.1043930E+01  0.7957747E-01            NaN
         13   -1    0    0    0    0  0.00000000000E+00  0.00000000000E+00  0.74505805969E-08  0.10566000000E+00  0.10566000000E+00 0. -1.
     999900   -1    0    0    0    0 -0.00000000000E+00 -0.00000000000E+00 -0.74505805969E-08  0.93827000000E+00  0.93827000000E+00 0. -1.
     999902    2    1    2    0    0 -0.11628334809E-01 -0.21220708452E-01 -0.10024282662E-02  0.10197113811E+01  0.10194237388E+01 0.  0.
     999903    2    3    3    0    0 -0.81495573744E-01 -0.67078134289E-01 -0.77463100838E-01  0.13245123380E+00  0.20044767521E-01 0.  0.
         14    1    1    2    0    0  0.11628334809E-01  0.21220708452E-01  0.10024282662E-02  0.24218618872E-01  0.00000000000E+00 0.  1.
     999901    1    3    3    0    0  0.69867238935E-01  0.45857425837E-01  0.76460672571E-01  0.88726014732E+00  0.88000000000E+00 0. -1.
        -11    1    4    4    0    0 -0.59645448530E-01 -0.42547681674E-01 -0.62693634783E-01  0.96429444204E-01  0.51100000000E-03 0.  1.
         11    1    4    4    0    0 -0.21850125214E-01 -0.24530452615E-01 -0.14769466055E-01  0.36021789599E-01  0.51100000000E-03 0. -1.
</event>
<event>
 8    1  0.1099478E+005  0.1043930E+01  0.7957747E-01            NaN
         13   -1    0    0    0    0  0.00000000000E+00  0.00000000000E+00  0.74505805969E-08  0.10566000000E+00  0.10566000000E+00 0.  1.
     999900   -1    0    0    0    0 -0.00000000000E+00 -0.00000000000E+00 -0.74505805969E-08  0.93827000000E+00  0.93827000000E+00 0.  1.
     999902    2    1    2    0    0  0.13731444634E-01 -0.13527277802E-01 -0.67885980737E-02  0.10234941276E+01  0.10232900881E+01 0.  0.
     999903    2    3    3    0    0  0.16754003261E-01 -0.66111729224E-01  0.11335234218E+00  0.13377051552E+00  0.19857995288E-01 0.  0.
         14    1    1    2    0    0 -0.13731444634E-01  0.13527277802E-01  0.67885980737E-02  0.20435872388E-01  0.00000000000E+00 0. -1.
     999901    1    3    3    0    0 -0.30225586271E-02  0.52584451421E-01 -0.12014094026E+00  0.88972361209E+00  0.88000000000E+00 0.  1.
        -11    1    4    4    0    0  0.12731526704E-01 -0.51478272563E-01  0.10145782853E+00  0.11448168591E+00  0.51100000000E-03 0.  1.
         11    1    4    4    0    0  0.40224765563E-02 -0.14633456661E-01  0.11894513658E-01  0.19288829608E-01  0.51100000000E-03 0. -1.
</event>
<event>
 8    1  0.1099478E+005  0.1043930E+01  0.7957747E-01            NaN
         13   -1    0    0    0    0  0.00000000000E+00  0.00000000000E+00  0.74505805969E-08  0.10566000000E+00  0.10566000000E+00 0.  1.
     999900   -1    0    0    0    0 -0.00000000000E+00 -0.00000000000E+00 -0.74505805969E-08  0.93827000000E+00  0.93827000000E+00 0.  1.
     999902    2    1    2    0    0 -0.26189464689E-02  0.16795730512E-01  0.17573579410E-01  0.10194803346E+01  0.10191871107E+01 0.  0.
     999903    2    3    3    0    0 -0.11983043918E+00 -0.23458087071E-01  0.40792723900E-01  0.13049325230E+00  0.21326663357E-01 0.  0.
         14    1    1    2    0    0  0.26189464689E-02 -0.16795730512E-01 -0.17573579410E-01  0.24449665382E-01  0.00000000000E+00 0. -1.
     999901    1    3    3    0    0  0.11721149271E+00  0.40253817583E-01 -0.23219144490E-01  0.88898708232E+00  0.88000000000E+00 0. -1.
        -11    1    4    4    0    0 -0.71070561995E-01 -0.22182963678E-01  0.31468212631E-01  0.80830799743E-01  0.51100000000E-03 0.  1.
         11    1    4    4    0    0 -0.48759877185E-01 -0.12751233931E-02  0.93245112685E-02  0.49662452559E-01  0.51100000000E-03 0. -1.
</event>
<event>
 8    1  0.1099478E+005  0.1043930E+01  0.7957747E-01            NaN
         13   -1    0    0    0    0  0.00000000000E+00  0.00000000000E+00  0.74505805969E-08  0.10566000000E+00  0.10566000000E+00 0.  1.
     999900   -1    0    0    0    0 -0.00000000000E+00 -0.00000000000E+00 -0.74505805969E-08  0.93827000000E+00  0.93827000000E+00 0.  1.
     999902    2    1    2    0    0 -0.18205722662E-01  0.35284604638E-05  0.66495488109E-02  0.10245479245E+01  0.10243645761E+01 0.  0.
     999903    2    3    3    0    0 -0.23882109021E-01  0.42589532178E-02 -0.13044919901E+00  0.13390411433E+00  0.18022888171E-01 0.  0.
         14    1    1    2    0    0  0.18205722662E-01 -0.35284604638E-05 -0.66495488109E-02  0.19382075469E-01  0.00000000000E+00 0. -1.
     999901    1    3    3    0    0  0.56763863592E-02 -0.42554247573E-02  0.13709874782E+00  0.89064381020E+00  0.88000000000E+00 0. -1.
        -11    1    4    4    0    0 -0.13385428876E-01 -0.77375486515E-03 -0.10571119215E+00  0.10655930588E+00  0.51100000000E-03 0.  1.
         11    1    4    4    0    0 -0.10496680145E-01  0.50327080830E-02 -0.24738006860E-01  0.27344808449E-01  0.51100000000E-03 0. -1.
</event>
<event>
 8    1  0.1099478E+005  0.1043930E+01  0.7957747E-01            NaN
         13   -1    0    0    0    0  0.00000000000E+00  0.00000000000E+00  0.74505805969E-08  0.10566000000E+00  0.10566000000E+00 0. -1.
     999900   -1    0    0    0    0 -0.00000000000E+00 -0.00000000000E+00 -0.74505805969E-08  0.93827000000E+00  0.93827000000E+00 0. -1.
     999902    2    1    2    0    0 -0.15576326795E-01 -0.80445525723E-02 -0.16106931622E-01  0.10201230676E+01  0.10198452349E+01 0.  0.
     999903    2    3    3    0    0  0.18015760825E-01 -0.42158436364E-01 -0.12256029680E+00  0.13241562462E+00  0.20272392501E-01 0.  0.
         14    1    1    2    0    0  0.15576326795E-01  0.80445525723E-02  0.16106931622E-01  0.23806932368E-01  0.00000000000E+00 0. -1.
     999901    1    3    3    0    0 -0.33592087620E-01  0.34113883791E-01  0.10645336518E+00  0.88770744301E+00  0.88000000000E+00 0.  1.
        -11    1    4    4    0    0  0.52512281699E-02 -0.33056022182E-01 -0.70499046864E-01  0.78042634050E-01  0.51100000000E-03 0. -1.
         11    1    4    4    0    0  0.12764532655E-01 -0.91024141814E-02 -0.52061249935E-01  0.54372990571E-01  0.51100000000E-03 0.  1.
</event>
<event>
 8    1  0.1099478E+005  0.1043930E+01  0.7957747E-01            NaN
         13   -1    0    0    0    0  0.00000000000E+00  0.00000000000E+00  0.74505805969E-08  0.10566000000E+00  0.10566000000E+00 0.  1.
     999900   -1    0    0    0    0 -0.00000000000E+00 -0.00000000000E+00 -0.74505805969E-08  0.93827000000E+00  0.93827000000E+00 0. -1.
     999902    2    1    2    0    0  0.15787171688E-01  0.14784258976E-01  0.93448101655E-02  0.10203687059E+01  0.10200966432E+01 0.  0.
     999903    2    3    3    0    0 -0.10204232092E+00 -0.57237744896E-01  0.49586696228E-01  0.12869030659E+00  0.20336171439E-01 0.  0.
         14    1    1    2    0    0 -0.15787171688E-01 -0.14784258976E-01 -0.93448101655E-02  0.23561294116E-01  0.00000000000E+00 0. -1.
     999901    1    3    3    0    0  0.11782949261E+00  0.72022003872E-01 -0.40241886062E-01  0.89167839929E+00  0.88000000000E+00 0. -1.
        -11    1    4    4    0    0 -0.26787190988E-01 -0.63526408297E-02  0.15928306034E-01  0.31810088033E-01  0.51100000000E-03 0.  1.
         11    1    4    4    0    0 -0.75255129930E-01 -0.50885104067E-01  0.33658390194E-01  0.96880218560E-01  0.51100000000E-03 0. -1.
</event>
<event>
 8    1  0.1099478E+005  0.1043930E+01  0.7957747E-01            NaN
         13   -1    0    0    0    0  0.00000000000E+00  0.00000000000E+00  0.74505805969E-08  0.10566000000E+00  0.10566000000E+00 0. -1.
     999900   -1    0    0    0    0 -0.00000000000E+00 -0.00000000000E+00 -0.74505805969E-08  0.93827000000E+00  0.93827000000E+00 0. -1.
     999902    2    1    2    0    0 -0.12931220358E-01 -0.16582498821E-02  0.19743232353E-01  0.10202707211E+01  0.10199963642E+01 0.  0.
     999903    2    3    3    0    0  0.64070523809E-01 -0.48514804625E-01  0.10229513962E+00  0.13182284831E+00  0.21313128808E-01 0.  0.
         14    1    1    2    0    0  0.12931220358E-01  0.16582498821E-02 -0.19743232353E-01  0.23659278864E-01  0.00000000000E+00 0.  1.
     999901    1    3    3    0    0 -0.77001744168E-01  0.46856554743E-01 -0.82551907264E-01  0.88844787282E+00  0.88000000000E+00 0. -1.
        -11    1    4    4    0    0  0.27212110821E-01 -0.16089585014E-01  0.25235072749E-01  0.40452981829E-01  0.51100000000E-03 0.  1.
         11    1    4    4    0    0  0.36858412989E-01 -0.32425219611E-01  0.77060066868E-01  0.91369866486E-01  0.51100000000E-03 0. -1.
</event>
<event>
 8    1  0.1099478E+005  0.1043930E+01  0.7957747E-01            NaN
         13   -1    0    0    0    0  0.00000000000E+00  0.00000000000E+00  0.74505805969E-08  0.10566000000E+00  0.10566000000E+00 0.  1.
     999900   -1    0    0    0    0 -0.00000000000E+00 -0.00000000000E+00 -0.74505805969E-08  0.93827000000E+00  0.93827000000E+00 0.  1.
     999902    2    1    2    0    0  0.98105562768E-02 -0.69829023558E-02  0.20739342774E-01  0.10199481677E+01  0.10196661888E+01 0.  0.
     999903    2    3    3    0    0  0.90026684422E-01 -0.70707723576E-01  0.64616213294E-01  0.13291904769E+00  0.19693454163E-01 0.  0.
         14    1    1    2    0    0 -0.98105562768E-02  0.69829023558E-02 -0.20739342774E-01  0.23981832259E-01  0.00000000000E+00 0. -1.
     999901    1    3    3    0    0 -0.80216128145E-01  0.63724821220E-01 -0.43876870520E-01  0.88702912005E+00  0.88000000000E+00 0. -1.
        -11    1    4    4    0    0  0.14971820936E-01 -0.37815772567E-02  0.64122105203E-02  0.16728219076E-01  0.51100000000E-03 0.  1.
         11    1    4    4    0    0  0.75054863486E-01 -0.66926146319E-01  0.58204002774E-01  0.11619082861E+00  0.51100000000E-03 0. -1.
</event>
<event>
 8    1  0.1099478E+005  0.1043930E+01  0.7957747E-01            NaN
         13   -1    0    0    0    0  0.00000000000E+00  0.00000000000E+00  0.74505805969E-08  0.10566000000E+00  0.10566000000E+00 0.  1.
     999900   -1    0    0    0    0 -0.00000000000E+00 -0.00000000000E+00 -0.74505805969E-08  0.93827000000E+00  0.93827000000E+00 0. -1.
     999902    2    1    2    0    0  0.92549993196E-02  0.22944233265E-01 -0.23376387146E-02  0.10190792976E+01  0.10187762549E+01 0.  0.
     999903    2    3    3    0    0 -0.47504322434E-01 -0.93198255516E-01 -0.69369466060E-01  0.12711295065E+00  0.20074957531E-01 0.  0.
         14    1    1    2    0    0 -0.92549993196E-02 -0.22944233265E-01  0.23376387146E-02  0.24850702350E-01  0.00000000000E+00 0. -1.
     999901    1    3    3    0    0  0.56759321754E-01  0.11614248878E+00  0.67031827345E-01  0.89196634700E+00  0.88000000000E+00 0.  1.
        -11    1    4    4    0    0 -0.23172255781E-01 -0.66324150400E-01 -0.46103634691E-01  0.84033639794E-01  0.51100000000E-03 0.  1.
         11    1    4    4    0    0 -0.24332066653E-01 -0.26874105116E-01 -0.23265831369E-01  0.43079310855E-01  0.51100000000E-03 0. -1.
</event>
<event>
 8    1  0.1099478E+005  0.1043930E+01  0.7957747E-01            NaN
         13   -1    0    0    0    0  0.00000000000E+00  0.00000000000E+00  0.74505805969E-08  0.10566000000E+00  0.10566000000E+00 0.  1.
     999900   -1    0    0    0    0 -0.00000000000E+00 -0.00000000000E+00 -0.74505805969E-08  0.93827000000E+00  0.93827000000E+00 0.  1.
     999902    2    1    2    0    0  0.24835976505E-04  0.42928505133E-02  0.23255571442E-01  0.10202815162E+01  0.10200074125E+01 0.  0.
     999903    2    3    3    0    0 -0.99910321420E-01  0.33400873555E-01  0.77469668419E-01  0.13249016629E+00  0.21316752984E-01 0.  0.
         14    1    1    2    0    0 -0.24835976505E-04 -0.42928505133E-02 -0.23255571442E-01  0.23648483787E-01  0.00000000000E+00 0. -1.
     999901    1    3    3    0    0  0.99935157396E-01 -0.29108023042E-01 -0.54214096977E-01  0.88779134992E+00  0.88000000000E+00 0.  1.
        -11    1    4    4    0    0 -0.72534398228E-01  0.14753599002E-01  0.48616406500E-01  0.88559153744E-01  0.51100000000E-03 0. -1.
         11    1    4    4    0    0 -0.27375923192E-01  0.18647274553E-01  0.28853261919E-01  0.43931012545E-01  0.51100000000E-03 0.  1.
</event>
<event>
 8    1  0.1099478E+005  0.1043930E+01  0.7957747E-01            NaN
         13   -1    0    0    0    0  0.00000000000E+00  0.00000000000E+00  0.74505805969E-08  0.10566000000E+00  0.10566000000E+00 0. -1.
     999900   -1    0    0    0    0 -0.00000000000E+00 -0.00000000000E+00 -0.74505805969E-08  0.93827000000E+00  0.93827000000E+00 0. -1.
     999902    2    1    2    0    0  0.23996741596E-01  0.56379244864E-02 -0.34584451583E-04  0.10192798277E+01  0.10189817153E+01 0.  0.
     999903    2    3    3    0    0  0.43391840854E-01  0.11212429885E+00  0.48749019995E-01  0.13130721668E+00  0.20258528046E-01 0.  0.
         14    1    1    2    0    0 -0.23996741596E-01 -0.56379244864E-02  0.34584451583E-04  0.24650172329E-01  0.00000000000E+00 0.  1.
     999901    1    3    3    0    0 -0.19395099257E-01 -0.10648637436E+00 -0.48783604447E-01  0.88797261099E+00  0.88000000000E+00 0. -1.
        -11    1    4    4    0    0  0.59510899509E-02  0.76045556878E-02 -0.85058755513E-03  0.97071807957E-02  0.51100000000E-03 0.  1.
         11    1    4    4    0    0  0.37440750903E-01  0.10451974316E+00  0.49599607550E-01  0.12160003589E+00  0.51100000000E-03 0. -1.
</event>
<event>
 8    1  0.1099478E+005  0.1043930E+01  0.7957747E-01            NaN
         13   -1    0    0    0    0  0.00000000000E+00  0.00000000000E+00  0.74505805969E-08  0.10566000000E+00  0.10566000000E+00 0. -1.
     999900   -1    0    0    0    0 -0.00000000000E+00 -0.00000000000E+00 -0.74505805969E-08  0.93827000000E+00  0.93827000000E+00 0.  1.
     999902    2    1    2    0    0 -0.85993044246E-02 -0.18502707254E-01 -0.43640213904E-02  0.10230651277E+01  0.10228523416E+01 0.  0.
     999903    2    3    3    0    0  0.10378995290E+00 -0.12113185885E-01  0.78523861957E-01  0.13203057601E+00  0.18627734973E-01 0.  0.
         14    1    1    2    0    0  0.85993044246E-02  0.18502707254E-01  0.43640213904E-02  0.20864872274E-01  0.00000000000E+00 0. -1.
     999901    1    3    3    0    0 -0.11238925732E+00 -0.63895213688E-02 -0.82887883347E-01  0.89103455172E+00  0.88000000000E+00 0. -1.
        -11    1    4    4    0    0  0.72572535231E-01 -0.11491712022E-01  0.64605261733E-01  0.97841367937E-01  0.51100000000E-03 0. -1.
         11    1    4    4    0    0  0.31217417667E-01 -0.62147386366E-03  0.13918600223E-01  0.34189208074E-01  0.51100000000E-03 0.  1.
</event>
<event>
 8    1  0.1099478E+005  0.1043930E+01  0.7957747E-01            NaN
         13   -1    0    0    0    0  0.00000000000E+00  0.00000000000E+00  0.74505805969E-08  0.10566000000E+00  0.10566000000E+00 0.  1.
     999900   -1    0    0    0    0 -0.00000000000E+00 -0.00000000000E+00 -0.74505805969E-08  0.93827000000E+00  0.93827000000E+00 0. -1.
     999902    2    1    2    0    0  0.21335338361E-01 -0.75401719014E-02 -0.49207195479E-02  0.10207726181E+01  0.10205099086E+01 0.  0.
     999903    2    3    3    0    0 -0.49331443932E-01  0.25501147208E-01 -0.11617857543E+00  0.13034360163E+00  0.20201317466E-01 0.  0.
         14    1    1    2    0    0 -0.21335338361E-01  0.75401719014E-02  0.49207195479E-02  0.23157381894E-01  0.00000000000E+00 0.  1.
     999901    1    3    3    0    0  0.70666782293E-01 -0.33041319109E-01  0.11125785588E+00  0.89042901648E+00  0.88000000000E+00 0.  1.
        -11    1    4    4    0    0 -0.17680314860E-01  0.66863684100E-02 -0.20838688858E-01  0.28139174302E-01  0.51100000000E-03 0.  1.
         11    1    4    4    0    0 -0.31651129072E-01  0.18814778798E-01 -0.95339886573E-01  0.10220442733E+00  0.51100000000E-03 0. -1.
</event>
<event>
 8    1  0.1099478E+005  0.1043930E+01  0.7957747E-01            NaN
         13   -1    0    0    0    0  0.00000000000E+00  0.00000000000E+00  0.74505805969E-08  0.10566000000E+00  0.10566000000E+00 0.  1.
     999900   -1    0    0    0    0 -0.00000000000E+00 -0.00000000000E+00 -0.74505805969E-08  0.93827000000E+00  0.93827000000E+00 0. -1.
     999902    2    1    2    0    0  0.17068240990E-01 -0.14255937716E-01 -0.61302510831E-02  0.10208619141E+01  0.10206012497E+01 0.  0.
     999903    2    3    3    0    0 -0.50611947592E-01  0.11219320289E+00 -0.32251193887E-01  0.12886847421E+00  0.20446518612E-01 0.  0.
         14    1    1    2    0    0 -0.17068240990E-01  0.14255937716E-01  0.61302510831E-02  0.23068085941E-01  0.00000000000E+00 0. -1.
     999901    1    3    3    0    0  0.67680188582E-01 -0.12644914061E+00  0.26120942804E-01  0.89199343985E+00  0.88000000000E+00 0.  1.
        -11    1    4    4    0    0 -0.14686351777E-01  0.57295278901E-01 -0.14579980073E-01  0.60920233525E-01  0.51100000000E-03 0. -1.
         11    1    4    4    0    0 -0.35925595815E-01  0.54897923989E-01 -0.17671213814E-01  0.67948240681E-01  0.51100000000E-03 0.  1.
</event>
<event>
 8    1  0.1099478E+005  0.1043930E+01  0.7957747E-01            NaN
         13   -1    0    0    0    0  0.00000000000E+00  0.00000000000E+00  0.74505805969E-08  0.10566000000E+00  0.10566000000E+00 0. -1.
     999900   -1    0    0    0    0 -0.00000000000E+00 -0.00000000000E+00 -0.74505805969E-08  0.93827000000E+00  0.93827000000E+00 0.  1.
     999902    2    1    2    0    0 -0.11599867792E-01  0.19563695141E-01  0.80574292643E-02  0.10198008213E+01  0.10195153249E+01 0.  0.
     999903    2    3    3    0    0  0.11054429113E+00 -0.60527362840E-01  0.24516981350E-02  0.12774409809E+00  0.20710910625E-01 0.  0.
         14    1    1    2    0    0  0.11599867792E-01 -0.19563695141E-01 -0.80574292643E-02  0.24129178741E-01  0.00000000000E+00 0.  1.
     999901    1    3    3    0    0 -0.12214415893E+00  0.80091057981E-01  0.56057311292E-02  0.89205672317E+00  0.88000000000E+00 0.  1.
        -11    1    4    4    0    0  0.42310385059E-01 -0.31194853664E-01  0.83858504464E-02  0.53234116764E-01  0.51100000000E-03 0. -1.
         11    1    4    4    0    0  0.68233906074E-01 -0.29332509175E-01 -0.59341523113E-02  0.74509981327E-01  0.51100000000E-03 0.  1.
</event>
<event>
 8    1  0.1099478E+005  0.1043930E+01  0.7957747E-01            NaN
         13   -1    0    0    0    0  0.00000000000E+00  0.00000000000E+00  0.74505805969E-08  0.10566000000E+00  0.10566000000E+00 0.  1.
     999900   -1    0    0    0    0 -0.00000000000E+00 -0.00000000000E+00 -0.74505805969E-08  0.93827000000E+00  0.93827000000E+00 0.  1.
     999902    2    1    2    0    0  0.17720977084E-01  0.43075878421E-02 -0.15557509425E-01  0.10199586746E+01  0.10196769456E+01 0.  0.
     999903    2    3    3    0    0 -0.92063083130E-01 -0.83651619835E-01 -0.26077907049E-01  0.12872355363E+00  0.20408117161E-01 0.  0.
         14    1    1    2    0    0 -0.17720977084E-01 -0.43075878421E-02  0.15557509425E-01  0.23971325398E-01  0.00000000000E+00 0. -1.
     999901    1    3    3    0    0  0.10978406021E+00  0.87959207677E-01  0.10520397625E-01  0.89123512097E+00  0.88000000000E+00 0.  1.
        -11    1    4    4    0    0 -0.63609461926E-01 -0.44511785810E-01 -0.17280375989E-01  0.79538262728E-01  0.51100000000E-03 0.  1.
         11    1    4    4    0    0 -0.28453621204E-01 -0.39139834025E-01 -0.87975310607E-02  0.49185290899E-01  0.51100000000E-03 0. -1.
</event>
<event>
 8    1  0.1099478E+005  0.1043930E+01  0.7957747E-01            NaN
         13   -1    0    0    0    0  0.00000000000E+00  0.00000000000E+00  0.74505805969E-08  0.10566000000E+00  0.10566000000E+00 0.  1.
     999900   -1    0    0    0    0 -0.00000000000E+00 -0.00000000000E+00 -0.74505805969E-08  0.93827000000E+00  0.93827000000E+00 0. -1.
     999902    2    1    2    0    0 -0.36374788812E-02  0.21635105238E-01 -0.21535525413E-02  0.10218857985E+01  0.10216480012E+01 0.  0.
     999903    2    3    3    0    0  0.34136908028E-01  0.10391169025E+00 -0.75266814839E-01  0.13422488921E+00  0.19704304315E-01 0.  0.
         14    1    1    2    0    0  0.36374788812E-02 -0.21635105238E-01  0.21535525413E-02  0.22044201501E-01  0.00000000000E+00 0. -1.
     999901    1    3    3    0    0 -0.37774386909E-01 -0.82276585011E-01  0.73113262298E-01  0.88766090928E+00  0.88000000000E+00 0.  1.
        -11    1    4    4    0    0  0.30067583525E-01  0.83794038090E-01 -0.69372491568E-01  0.11286409573E+00  0.51100000000E-03 0.  1.
         11    1    4    4    0    0  0.40693245026E-02  0.20117652159E-01 -0.58943232710E-02  0.21360793481E-01  0.51100000000E-03 0. -1.
</event>
<event>
 8    1  0.1099478E+005  0.1043930E+01  0.7957747E-01            NaN
         13   -1    0    0    0    0  0.00000000000E+00  0.00000000000E+00  0.74505805969E-08  0.10566000000E+00  0.10566000000E+00 0. -1.
     999900   -1    0    0    0    0 -0.00000000000E+00 -0.00000000000E+00 -0.74505805969E-08  0.93827000000E+00  0.93827000000E+00 0.  1.
     999902    2    1    2    0    0 -0.14002076110E-01  0.11081291377E-01  0.18558944863E-01  0.10181756297E+01  0.10178498540E+01 0.  0.
     999903    2    3    3    0    0  0.50831097384E-01 -0.11001034791E+00  0.34198313276E-01  0.12738322106E+00  0.19258329836E-01 0.  0.
         14    1    1    2    0    0  0.14002076110E-01 -0.11081291377E-01 -0.18558944863E-01  0.25754370278E-01  0.00000000000E+00 0. -1.
     999901    1    3    3    0    0 -0.64833173493E-01  0.12109163928E+00 -0.15639368413E-01  0.89079240866E+00  0.88000000000E+00 0.  1.
        -11    1    4    4    0    0  0.11927535455E-01 -0.47581127369E-01  0.11293817987E-01  0.50339261312E-01  0.51100000000E-03 0. -1.
         11    1    4    4    0    0  0.38903561929E-01 -0.62429220539E-01  0.22904495289E-01  0.77043959746E-01  0.51100000000E-03 0.  1.
</event>
<event>
 8    1  0.1099478E+005  0.1043930E+01  0.7957747E-01            NaN
         13   -1    0    0    0    0  0.00000000000E+00  0.00000000000E+00  0.74505805969E-08  0.10566000000E+00  0.10566000000E+00 0.  1.
     999900   -1    0    0    0    0 -0.00000000000E+00 -0.00000000000E+00 -0.74505805969E-08  0.93827000000E+00  0.93827000000E+00 0. -1.
     999902    2    1    2    0    0  0.94168386708E-02 -0.20877272618E-01  0.89292081390E-02  0.10193481343E+01  0.10190516919E+01 0.  0.
     999903    2    3    3    0    0 -0.34784980318E-01  0.80908058046E-01 -0.89270706896E-01  0.12695961038E+00  0.19833679578E-01 0.  0.
         14    1    1    2    0    0 -0.94168386708E-02  0.20877272618E-01 -0.89292081390E-02  0.24581865684E-01  0.00000000000E+00 0.  1.
     999901    1    3    3    0    0  0.44201818988E-01 -0.10178533066E+00  0.98199915035E-01  0.89238852394E+00  0.88000000000E+00 0.  1.
        -11    1    4    4    0    0 -0.10192688764E-01  0.26580266613E-01 -0.42566922832E-01  0.51211380745E-01  0.51100000000E-03 0.  1.
         11    1    4    4    0    0 -0.24592291554E-01  0.54327791433E-01 -0.46703784064E-01  0.75748229635E-01  0.51100000000E-03 0. -1.
</event>
<event>
 8    1  0.1099478E+005  0.1043930E+01  0.7957747E-01            NaN
         13   -1    0    0    0    0  0.00000000000E+00  0.00000000000E+00  0.74505805969E-08  0.10566000000E+00  0.10566000000E+00 0.  1.
     999900   -1    0    0    0    0 -0.00000000000E+00 -0.00000000000E+00 -0.74505805969E-08  0.93827000000E+00  0.93827000000E+00 0.  1.
     999902    2    1    2    0    0 -0.30242282570E-02 -0.17646942504E-01  0.13906423526E-01  0.10212595533E+01  0.10210078972E+01 0.  0.
     999903    2    3    3    0    0 -0.22147879722E-01  0.12485823780E+00 -0.14259294837E-01  0.12914591252E+00  0.19880420221E-01 0.  0.
         14    1    1    2    0    0  0.30242282570E-02  0.17646942504E-01 -0.13906423526E-01  0.22670446655E-01  0.00000000000E+00 0.  1.
     999901    1    3    3    0    0  0.19123651465E-01 -0.14250518030E+00  0.28165718362E-01  0.89211364083E+00  0.88000000000E+00 0.  1.
        -11    1    4    4    0    0 -0.35203108785E-02  0.73572554854E-01 -0.11079970532E-01  0.74487182015E-01  0.51100000000E-03 0. -1.
         11    1    4    4    0    0 -0.18627568843E-01  0.51285682945E-01 -0.31793243050E-02  0.54658730503E-01  0.51100000000E-03 0.  1.
</event>
<event>
 8    1  0.1099478E+005  0.1043930E+01  0.7957747E-01            NaN
         13   -1    0    0    0    0  0.00000000000E+00  0.00000000000E+00  0.74505805969E-08  0.10566000000E+00  0.10566000000E+00 0.  1.
     999900   -1    0    0    0    0 -0.00000000000E+00 -0.00000000000E+00 -0.74505805969E-08  0.93827000000E+00  0.93827000000E+00 0.  1.
     999902    2    1    2    0    0 -0.17198387550E-01  0.26247484934E-02  0.16128276715E-01  0.10202066961E+01  0.10199308347E+01 0.  0.
     999903    2    3    3    0    0  0.21098236876E-01 -0.11839145359E+00  0.46768983697E-01  0.13057171165E+00  0.19999054069E-01 0.  0.
         14    1    1    2    0    0  0.17198387550E-01 -0.26247484934E-02 -0.16128276715E-01  0.23723303918E-01  0.00000000000E+00 0.  1.
     999901    1    3    3    0    0 -0.38296624426E-01  0.12101620208E+00 -0.30640706982E-01  0.88963498444E+00  0.88000000000E+00 0.  1.
        -11    1    4    4    0    0  0.14542316844E-01 -0.69942976334E-01  0.37933720340E-01  0.80887126155E-01  0.51100000000E-03 0.  1.
         11    1    4    4    0    0  0.65559200329E-02 -0.48448477256E-01  0.88352633567E-02  0.49684585491E-01  0.51100000000E-03 0. -1.
</event>
<event>
 8    1  0.1099478E+005  0.1043930E+01  0.7957747E-01            NaN
         13   -1    0    0    0    0  0.00000000000E+00  0.00000000000E+00  0.74505805969E-08  0.10566000000E+00  0.10566000000E+00 0. -1.
     999900   -1    0    0    0    0 -0.00000000000E+00 -0.00000000000E+00 -0.74505805969E-08  0.93827000000E+00  0.93827000000E+00 0.  1.
     999902    2    1    2    0    0  0.19422681413E-01 -0.16109443940E-02 -0.12052297870E-01  0.10210150796E+01  0.10207579043E+01 0.  0.
     999903    2    3    3    0    0 -0.50808819257E-01  0.21017975021E-01 -0.11790506785E+00  0.13160553351E+00  0.19877626540E-01 0.  0.
         14    1    1    2    0    0 -0.19422681413E-01  0.16109443940E-02  0.12052297870E-01  0.22914920446E-01  0.00000000000E+00 0. -1.
     999901    1    3    3    0    0  0.70231500669E-01 -0.22628919415E-01  0.10585276998E+00  0.88940954604E+00  0.88000000000E+00 0. -1.
        -11    1    4    4    0    0 -0.29689656383E-01  0.25609004600E-02 -0.70179643160E-01  0.76246162804E-01  0.51100000000E-03 0.  1.
         11    1    4    4    0    0 -0.21119162874E-01  0.18457074561E-01 -0.47725424693E-01  0.55359370706E-01  0.51100000000E-03 0. -1.
</event>
<event>
 8    1  0.1099478E+005  0.1043930E+01  0.7957747E-01            NaN
         13   -1    0    0    0    0  0.00000000000E+00  0.00000000000E+00  0.74505805969E-08  0.10566000000E+00  0.10566000000E+00 0. -1.
     999900   -1    0    0    0    0 -0.00000000000E+00 -0.00000000000E+00 -0.74505805969E-08  0.93827000000E+00  0.93827000000E+00 0. -1.
     999902    2    1    2    0    0  0.21580623897E-01  0.84446111608E-02 -0.25401816038E-02  0.10206171858E+01  0.10203508968E+01 0.  0.
     999903    2    3    3    0    0  0.83241152308E-02  0.72999637423E-02  0.12886816506E+00  0.13076034400E+00  0.19201125821E-01 0.  0.
         14    1    1    2    0    0 -0.21580623897E-01 -0.84446111608E-02  0.25401816038E-02  0.23312814245E-01  0.00000000000E+00 0. -1.
     999901    1    3    3    0    0  0.13256508666E-01  0.11446474185E-02 -0.13140834666E+00  0.88985684175E+00  0.88000000000E+00 0. -1.
        -11    1    4    4    0    0  0.80579197819E-02  0.12499143167E-01  0.65144890697E-01  0.66822724848E-01  0.51100000000E-03 0. -1.
         11    1    4    4    0    0  0.26619544894E-03 -0.51991794249E-02  0.63723274363E-01  0.63937619155E-01  0.51100000000E-03 0.  1.
</event>
<event>
 8    1  0.1099478E+005  0.1043930E+01  0.7957747E-01            NaN
         13   -1    0    0    0    0  0.00000000000E+00  0.00000000000E+00  0.74505805969E-08  0.10566000000E+00  0.10566000000E+00 0. -1.
     999900   -1    0    0    0    0 -0.00000000000E+00 -0.00000000000E+00 -0.74505805969E-08  0.93827000000E+00  0.93827000000E+00 0.  1.
     999902    2    1    2    0    0 -0.18701231184E-01 -0.10898650488E-01  0.10985029622E-01  0.10196568151E+01  0.10193678595E+01 0.  0.
     999903    2    3    3    0    0 -0.67976161168E-01  0.35519986341E-01  0.10559127728E+00  0.13200088474E+00  0.19806257039E-01 0.  0.
         14    1    1    2    0    0  0.18701231184E-01  0.10898650488E-01 -0.10985029622E-01  0.24273184918E-01  0.00000000000E+00 0. -1.
     999901    1    3    3    0    0  0.49274929984E-01 -0.46418636828E-01 -0.94606247662E-01  0.88765593034E+00  0.88000000000E+00 0.  1.
        -11    1    4    4    0    0 -0.20035592778E-01  0.19197401778E-01  0.46731810539E-01  0.54351526660E-01  0.51100000000E-03 0.  1.
         11    1    4    4    0    0 -0.47940568390E-01  0.16322584562E-01  0.58859466744E-01  0.77649358083E-01  0.51100000000E-03 0. -1.
</event>
<event>
 8    1  0.1099478E+005  0.1043930E+01  0.7957747E-01            NaN
         13   -1    0    0    0    0  0.00000000000E+00  0.00000000000E+00  0.74505805969E-08  0.10566000000E+00  0.10566000000E+00 0.  1.
     999900   -1    0    0    0    0 -0.00000000000E+00 -0.00000000000E+00 -0.74505805969E-08  0.93827000000E+00  0.93827000000E+00 0. -1.
     999902    2    1    2    0    0  0.26925684558E-02 -0.16134655279E-01 -0.17996735046E-01  0.10196100597E+01  0.10193199764E+01 0.  0.
     999903    2    3    3    0    0  0.41683724105E-01  0.17967121219E-01  0.11762345173E+00  0.12771540420E+00  0.20386215226E-01 0.  0.
         14    1    1    2    0    0 -0.26925684558E-02  0.16134655279E-01  0.17996735046E-01  0.24319940341E-01  0.00000000000E+00 0.  1.
     999901    1    3    3    0    0 -0.38991155649E-01 -0.34101776498E-01 -0.13562018678E+00  0.89189465546E+00  0.88000000000E+00 0. -1.
        -11    1    4    4    0    0  0.28772081846E-01  0.15369006938E-02  0.65678328044E-01  0.71722372055E-01  0.51100000000E-03 0.  1.
         11    1    4    4    0    0  0.12911642259E-01  0.16430220525E-01  0.51945123690E-01  0.55993032143E-01  0.51100000000E-03 0. -1.
</event>
<event>
 8    1  0.1099478E+005  0.1043930E+01  0.7957747E-01            NaN
         13   -1    0    0    0    0  0.00000000000E+00  0.00000000000E+00  0.74505805969E-08  0.10566000000E+00  0.10566000000E+00 0. -1.
     999900   -1    0    0    0    0 -0.00000000000E+00 -0.00000000000E+00 -0.74505805969E-08  0.93827000000E+00  0.93827000000E+00 0. -1.
     999902    2    1    2    0    0  0.16387761140E-01 -0.15778558262E-01 -0.16336748634E-03  0.10211803120E+01  0.10209268736E+01 0.  0.
     999903    2    3    3    0    0 -0.51778804594E-01 -0.11965047743E+00 -0.11203468354E-01  0.13238453111E+00  0.20071497657E-01 0.  0.
         14    1    1    2    0    0 -0.16387761140E-01  0.15778558262E-01  0.16336748634E-03  0.22749688018E-01  0.00000000000E+00 0.  1.
     999901    1    3    3    0    0  0.68166565733E-01  0.10387191917E+00  0.11040100868E-01  0.88879578088E+00  0.88000000000E+00 0. -1.
        -11    1    4    4    0    0 -0.72798806348E-02 -0.38603129639E-01 -0.63425181359E-02  0.39795564292E-01  0.51100000000E-03 0.  1.
         11    1    4    4    0    0 -0.44498923959E-01 -0.81047347792E-01 -0.48609502184E-02  0.92588966814E-01  0.51100000000E-03 0. -1.
</event>
<event>
 8    1  0.1099478E+005  0.1043930E+01  0.7957747E-01            NaN
         13   -1    0    0    0    0  0.00000000000E+00  0.00000000000E+00  0.74505805969E-08  0.10566000000E+00  0.10566000000E+00 0.  1.
     999900   -1    0    0    0    0 -0.00000000000E+00 -0.00000000000E+00 -0.74505805969E-08  0.93827000000E+00  0.93827000000E+00 0. -1.
     999902    2    1    2    0    0  0.16885773962E-01 -0.24121269643E-02 -0.16583610719E-01  0.10201400050E+01  0.10198625721E+01 0.  0.
     999903    2    3    3    0    0  0.56963230740E-01 -0.84032489802E-01 -0.83393674195E-01  0.13293559180E+00  0.20275543728E-01 0.  0.
         14    1    1    2    0    0 -0.16885773962E-01  0.24121269643E-02  0.16583610719E-01  0.23789995025E-01  0.00000000000E+00 0.  1.
     999901    1    3    3    0    0 -0.40077456777E-01  0.81620362838E-01  0.66810063476E-01  0.88720441317E+00  0.88000000000E+00 0.  1.
        -11    1    4    4    0    0  0.16558169633E-01 -0.42130929897E-01 -0.34598782382E-01  0.56978286205E-01  0.51100000000E-03 0.  1.
         11    1    4    4    0    0  0.40405061107E-01 -0.41901559905E-01 -0.48794891813E-01  0.75957305597E-01  0.51100000000E-03 0. -1.
</event>
<event>
 8    1  0.1099478E+005  0.1043930E+01  0.7957747E-01            NaN
         13   -1    0    0    0    0  0.00000000000E+00  0.00000000000E+00  0.74505805969E-08  0.10566000000E+00  0.10566000000E+00 0.  1.
     999900   -1    0    0    0    0 -0.00000000000E+00 -0.00000000000E+00 -0.74505805969E-08  0.93827000000E+00  0.93827000000E+00 0.  1.
     999902    2    1    2    0    0 -0.13347870179E-02 -0.17265112070E-01  0.15262176862E-01  0.10208475436E+01  0.10205865507E+01 0.  0.
     999903    2    3    3    0    0  0.12469615039E+00  0.29931741905E-01  0.14648373200E-01  0.13061627198E+00  0.20024898838E-01 0.  0.
         14    1    1    2    0    0  0.13347870179E-02  0.17265112070E-01 -0.15262176862E-01  0.23082456407E-01  0.00000000000E+00 0. -1.
     999901    1    3    3    0    0 -0.12603093740E+00 -0.47196853976E-01  0.61380366243E-03  0.89023127162E+00  0.88000000000E+00 0. -1.
        -11    1    4    4    0    0  0.64476484514E-01  0.52383983180E-02  0.82423634095E-02  0.65213921426E-01  0.51100000000E-03 0.  1.
         11    1    4    4    0    0  0.60219665871E-01  0.24693343587E-01  0.64060097903E-02  0.65402350551E-01  0.51100000000E-03 0. -1.
</event>
<event>
 8    1  0.1099478E+005  0.1043930E+01  0.7957747E-01            NaN
         13   -1    0    0    0    0  0.00000000000E+00  0.00000000000E+00  0.74505805969E-08  0.10566000000E+00  0.10566000000E+00 0. -1.
     999900   -1    0    0    0    0 -0.00000000000E+00 -0.00000000000E+00 -0.74505805969E-08  0.93827000000E+00  0.93827000000E+00 0. -1.
     999902    2    1    2    0    0  0.35394561195E-02 -0.15056737156E-01  0.17737059136E-01  0.10203962721E+01  0.10201248530E+01 0.  0.
     999903    2    3    3    0    0  0.12022831231E+00  0.22970410522E-01 -0.39383405827E-01  0.13004516120E+00  0.19447479390E-01 0.  0.
         14    1    1    2    0    0 -0.35394561195E-02  0.15056737156E-01 -0.17737059136E-01  0.23533727928E-01  0.00000000000E+00 0.  1.
     999901    1    3    3    0    0 -0.11668885619E+00 -0.38027147679E-01  0.57120464962E-01  0.89035111088E+00  0.88000000000E+00 0.  1.
        -11    1    4    4    0    0  0.10978906332E+00  0.17392437339E-01 -0.40113387137E-01  0.11817563306E+00  0.51100000000E-03 0.  1.
         11    1    4    4    0    0  0.10439248994E-01  0.55779731832E-02  0.72998131024E-03  0.11869528133E-01  0.51100000000E-03 0. -1.
</event>
<event>
 8    1  0.1099478E+005  0.1043930E+01  0.7957747E-01            NaN
         13   -1    0    0    0    0  0.00000000000E+00  0.00000000000E+00  0.74505805969E-08  0.10566000000E+00  0.10566000000E+00 0.  1.
     999900   -1    0    0    0    0 -0.00000000000E+00 -0.00000000000E+00 -0.74505805969E-08  0.93827000000E+00  0.93827000000E+00 0.  1.
     999902    2    1    2    0    0 -0.95824945919E-02 -0.10966241875E-01  0.19174949098E-01  0.10198517663E+01  0.10195674887E+01 0.  0.
     999903    2    3    3    0    0  0.82130182097E-01  0.94216355738E-01 -0.25009840122E-01  0.12776046523E+00  0.86692487412E-02 0.  0.
         14    1    1    2    0    0  0.95824945919E-02  0.10966241875E-01 -0.19174949098E-01  0.24078233664E-01  0.00000000000E+00 0. -1.
     999901    1    3    3    0    0 -0.91712676689E-01 -0.10518259761E+00  0.44184789220E-01  0.89209130110E+00  0.88000000000E+00 0. -1.
        -11    1    4    4    0    0  0.54329572144E-01  0.59132876557E-01 -0.12423788085E-01  0.81258914161E-01  0.51100000000E-03 0. -1.
         11    1    4    4    0    0  0.27800609953E-01  0.35083479180E-01 -0.12586052037E-01  0.46501551071E-01  0.51100000000E-03 0.  1.
</event>
<event>
 8    1  0.1099478E+005  0.1043930E+01  0.7957747E-01            NaN
         13   -1    0    0    0    0  0.00000000000E+00  0.00000000000E+00  0.74505805969E-08  0.10566000000E+00  0.10566000000E+00 0.  1.
     999900   -1    0    0    0    0 -0.00000000000E+00 -0.00000000000E+00 -0.74505805969E-08  0.93827000000E+00  0.93827000000E+00 0. -1.
     999902    2    1    2    0    0 -0.12896373092E-01  0.13232465899E-01 -0.15290828596E-01  0.10199461715E+01  0.10196641450E+01 0.  0.
     999903    2    3    3    0    0 -0.17985204223E-01 -0.90012945677E-01  0.86987979865E-01  0.12801205624E+00  0.19859001532E-01 0.  0.
         14    1    1    2    0    0  0.12896373092E-01 -0.13232465899E-01  0.15290828596E-01  0.23983828549E-01  0.00000000000E+00 0.  1.
     999901    1    3    3    0    0  0.50888311305E-02  0.10324541158E+00 -0.10227880846E+00  0.89193411521E+00  0.88000000000E+00 0. -1.
        -11    1    4    4    0    0  0.21979213344E-03 -0.12638750808E-01  0.21829215167E-01  0.25230182052E-01  0.51100000000E-03 0.  1.
         11    1    4    4    0    0 -0.18204996356E-01 -0.77374194869E-01  0.65158764697E-01  0.10278187419E+00  0.51100000000E-03 0. -1.
</event>
<event>
 8    1  0.1099478E+005  0.1043930E+01  0.7957747E-01            NaN
         13   -1    0    0    0    0  0.00000000000E+00  0.00000000000E+00  0.74505805969E-08  0.10566000000E+00  0.10566000000E+00 0. -1.
     999900   -1    0    0    0    0 -0.00000000000E+00 -0.00000000000E+00 -0.74505805969E-08  0.93827000000E+00  0.93827000000E+00 0.  1.
     999902    2    1    2    0    0  0.14330265138E-01 -0.17002932133E-01 -0.82646254601E-02  0.10202074320E+01  0.10199315879E+01 0.  0.
     999903    2    3    3    0    0 -0.37024761714E-01 -0.71848866996E-01  0.10041764500E+00  0.13034381811E+00  0.19305823605E-01 0.  0.
         14    1    1    2    0    0 -0.14330265138E-01  0.17002932133E-01  0.82646254601E-02  0.23722568032E-01  0.00000000000E+00 0. -1.
     999901    1    3    3    0    0  0.51355026852E-01  0.54845934863E-01 -0.10868227046E+00  0.88986361386E+00  0.88000000000E+00 0.  1.
        -11    1    4    4    0    0 -0.22659245279E-01 -0.51538549722E-01  0.55871170644E-01  0.79319054042E-01  0.51100000000E-03 0.  1.
         11    1    4    4    0    0 -0.14365516435E-01 -0.20310317273E-01  0.44546474351E-01  0.51024764069E-01  0.51100000000E-03 0. -1.
</event>
<event>
 8    1  0.1099478E+005  0.1043930E+01  0.7957747E-01            NaN
         13   -1    0    0    0    0  0.00000000000E+00  0.00000000000E+00  0.74505805969E-08  0.10566000000E+00  0.10566000000E+00 0.  1.
     999900   -1    0    0    0    0 -0.00000000000E+00 -0.00000000000E+00 -0.74505805969E-08  0.93827000000E+00  0.93827000000E+00 0. -1.
     999902    2    1    2    0    0 -0.45856658092E-02  0.25581405101E-01  0.10440860063E-01  0.10159219980E+01  0.10155358476E+01 0.  0.
     999903    2    3    3    0    0  0.16448568585E-01  0.10696053664E+00 -0.66695968307E-01  0.12855787185E+00  0.19174525240E-01 0.  0.
         14    1    1    2    0    0  0.45856658092E-02 -0.25581405101E-01 -0.10440860063E-01  0.28008002012E-01  0.00000000000E+00 0. -1.
     999901    1    3    3    0    0 -0.21034234395E-01 -0.81379131544E-01  0.77136828370E-01  0.88736412614E+00  0.88000000000E+00 0.  1.
        -11    1    4    4    0    0  0.12210850572E-01  0.43508076686E-01 -0.36826759648E-01  0.58296903484E-01  0.51100000000E-03 0. -1.
         11    1    4    4    0    0  0.42377180131E-02  0.63452459958E-01 -0.29869208659E-01  0.70260968365E-01  0.51100000000E-03 0.  1.
</event>
<event>
 8    1  0.1099478E+005  0.1043930E+01  0.7957747E-01            NaN
         13   -1    0    0    0    0  0.00000000000E+00  0.00000000000E+00  0.74505805969E-08  0.10566000000E+00  0.10566000000E+00 0.  1.
     999900   -1    0    0    0    0 -0.00000000000E+00 -0.00000000000E+00 -0.74505805969E-08  0.93827000000E+00  0.93827000000E+00 0.  1.
     999902    2    1    2    0    0  0.94392434428E-02 -0.99538648645E-02 -0.18981009598E-01  0.10205108312E+01  0.10202420787E+01 0.  0.
     999903    2    3    3    0    0  0.95835758742E-01 -0.84984671221E-01 -0.29943449428E-01  0.13303454708E+00  0.19866896035E-01 0.  0.
         14    1    1    2    0    0 -0.94392434428E-02  0.99538648645E-02  0.18981009598E-01  0.23419168813E-01  0.00000000000E+00 0.  1.
     999901    1    3    3    0    0 -0.86396515299E-01  0.75030806357E-01  0.10962439829E-01  0.88747628410E+00  0.88000000000E+00 0. -1.
        -11    1    4    4    0    0  0.61460836673E-01 -0.45849071944E-01 -0.10327654572E-01  0.77372433157E-01  0.51100000000E-03 0.  1.
         11    1    4    4    0    0  0.34374922068E-01 -0.39135599277E-01 -0.19615794856E-01  0.55662113927E-01  0.51100000000E-03 0. -1.
</event>
<event>
 8    1  0.1099478E+005  0.1043930E+01  0.7957747E-01            NaN
         13   -1    0    0    0    0  0.00000000000E+00  0.00000000000E+00  0.74505805969E-08  0.10566000000E+00  0.10566000000E+00 0. -1.
     999900   -1    0    0    0    0 -0.00000000000E+00 -0.00000000000E+00 -0.74505805969E-08  0.93827000000E+00  0.93827000000E+00 0.  1.
     999902    2    1    2    0    0  0.11285861543E-01  0.20774639354E-01 -0.50986021009E-02  0.10197442179E+01  0.10194573645E+01 0.  0.
     999903    2    3    3    0    0 -0.12561213543E+00 -0.18816323202E-01  0.35655517768E-02  0.12823786716E+00  0.17314006729E-01 0.  0.
         14    1    1    2    0    0 -0.11285861543E-01 -0.20774639354E-01  0.50986021009E-02  0.24185782072E-01  0.00000000000E+00 0. -1.
     999901    1    3    3    0    0  0.13689799697E+00  0.39590962555E-01 -0.86641538776E-02  0.89150635076E+00  0.88000000000E+00 0. -1.
        -11    1    4    4    0    0 -0.11018227442E+00 -0.14341350929E-01  0.84625512478E-02  0.11143466174E+00  0.51100000000E-03 0. -1.
         11    1    4    4    0    0 -0.15429861012E-01 -0.44749722730E-02 -0.48969994711E-02  0.16803205423E-01  0.51100000000E-03 0.  1.
</event>
<event>
 8    1  0.1099478E+005  0.1043930E+01  0.7957747E-01            NaN
         13   -1    0    0    0    0  0.00000000000E+00  0.00000000000E+00  0.74505805969E-08  0.10566000000E+00  0.10566000000E+00 0. -1.
     999900   -1    0    0    0    0 -0.00000000000E+00 -0.00000000000E+00 -0.74505805969E-08  0.93827000000E+00  0.93827000000E+00 0. -1.
     999902    2    1    2    0    0 -0.23367471169E-01 -0.99187022140E-02 -0.56385924978E-03  0.10185383222E+01  0.10182217718E+01 0.  0.
     999903    2    3    3    0    0  0.39452343336E-01 -0.11355008657E+00  0.42912122341E-01  0.12917003300E+00  0.19832741296E-01 0.  0.
         14    1    1    2    0    0  0.23367471169E-01  0.99187022140E-02  0.56385924978E-03  0.25391677765E-01  0.00000000000E+00 0. -1.
     999901    1    3    3    0    0 -0.62819814505E-01  0.10363138436E+00 -0.43475981591E-01  0.88936828923E+00  0.88000000000E+00 0.  1.
        -11    1    4    4    0    0  0.14321837975E-01 -0.64225148086E-01  0.16551893967E-01  0.67854336667E-01  0.51100000000E-03 0.  1.
         11    1    4    4    0    0  0.25130505361E-01 -0.49324938484E-01  0.26360228374E-01  0.61315696335E-01  0.51100000000E-03 0. -1.
</event>
<event>
 8    1  0.1099478E+005  0.1043930E+01  0.7957747E-01            NaN
         13   -1    0    0    0    0  0.00000000000E+00  0.00000000000E+00  0.74505805969E-08  0.10566000000E+00  0.10566000000E+00 0. -1.
     999900   -1    0    0    0    0 -0.00000000000E+00 -0.00000000000E+00 -0.74505805969E-08  0.93827000000E+00  0.93827000000E+00 0.  1.
     999902    2    1    2    0    0  0.23038583303E-02 -0.20303270931E-01 -0.14331566221E-01  0.10189715472E+01  0.10186658381E+01 0.  0.
     999903    2    3    3    0    0 -0.10991491870E+00  0.59236481918E-01 -0.25223392150E-01  0.12822003415E+00  0.14625577059E-01 0.  0.
         14    1    1    2    0    0 -0.23038583303E-02  0.20303270931E-01  0.14331566221E-01  0.24958452757E-01  0.00000000000E+00 0. -1.
     999901    1    3    3    0    0  0.11221877703E+00 -0.79539752849E-01  0.10891825929E-01  0.89075151309E+00  0.88000000000E+00 0.  1.
        -11    1    4    4    0    0 -0.83006334418E-01  0.44221991825E-01 -0.12504272942E-01  0.94880209092E-01  0.51100000000E-03 0. -1.
         11    1    4    4    0    0 -0.26908584279E-01  0.15014490094E-01 -0.12719119208E-01  0.33339825061E-01  0.51100000000E-03 0.  1.
</event>
<event>
 8    1  0.1099478E+005  0.1043930E+01  0.7957747E-01            NaN
         13   -1    0    0    0    0  0.00000000000E+00  0.00000000000E+00  0.74505805969E-08  0.10566000000E+00  0.10566000000E+00 0. -1.
     999900   -1    0    0    0    0 -0.00000000000E+00 -0.00000000000E+00 -0.74505805969E-08  0.93827000000E+00  0.93827000000E+00 0. -1.
     999902    2    1    2    0    0 -0.19649997149E-01 -0.93295437926E-03  0.12795052238E-01  0.10204628708E+01  0.10201930036E+01 0.  0.
     999903    2    3    3    0    0  0.61994042902E-02  0.40846366779E-01 -0.12098020325E+00  0.12899805252E+00  0.17246149805E-01 0.  0.
         14    1    1    2    0    0  0.19649997149E-01  0.93295437926E-03 -0.12795052238E-01  0.23467129215E-01  0.00000000000E+00 0.  1.
     999901    1    3    3    0    0 -0.25849401439E-01 -0.41779321159E-01  0.13377525548E+00  0.89146481827E+00  0.88000000000E+00 0.  1.
        -11    1    4    4    0    0  0.11157545486E-01  0.16591496154E-01 -0.52939891754E-01  0.56592065042E-01  0.51100000000E-03 0. -1.
         11    1    4    4    0    0 -0.49581411953E-02  0.24254870626E-01 -0.68040311492E-01  0.72405987474E-01  0.51100000000E-03 0.  1.
</event>
<event>
 8    1  0.1099478E+005  0.1043930E+01  0.7957747E-01            NaN
         13   -1    0    0    0    0  0.00000000000E+00  0.00000000000E+00  0.74505805969E-08  0.10566000000E+00  0.10566000000E+00 0.  1.
     999900   -1    0    0    0    0 -0.00000000000E+00 -0.00000000000E+00 -0.74505805969E-08  0.93827000000E+00  0.93827000000E+00 0. -1.
     999902    2    1    2    0    0 -0.22992145959E-01  0.69194163350E-03  0.21029056799E-02  0.10208315202E+01  0.10205701606E+01 0.  0.
     999903    2    3    3    0    0 -0.73632102645E-01  0.26122778826E-01 -0.10543705940E+00  0.13247574864E+00  0.18131860596E-01 0.  0.
         14    1    1    2    0    0  0.22992145959E-01 -0.69194163350E-03 -0.21029056799E-02  0.23098479849E-01  0.00000000000E+00 0. -1.
     999901    1    3    3    0    0  0.50639956686E-01 -0.25430837193E-01  0.10753996508E+00  0.88835577151E+00  0.88000000000E+00 0.  1.
        -11    1    4    4    0    0 -0.27540135869E-01  0.19539162019E-02 -0.29430997856E-01  0.40357423456E-01  0.51100000000E-03 0. -1.
         11    1    4    4    0    0 -0.46091966776E-01  0.24168862624E-01 -0.76006061543E-01  0.92118325181E-01  0.51100000000E-03 0.  1.
</event>
<event>
 8    1  0.1099478E+005  0.1043930E+01  0.7957747E-01            NaN
         13   -1    0    0    0    0  0.00000000000E+00  0.00000000000E+00  0.74505805969E-08  0.10566000000E+00  0.10566000000E+00 0. -1.
     999900   -1    0    0    0    0 -0.00000000000E+00 -0.00000000000E+00 -0.74505805969E-08  0.93827000000E+00  0.93827000000E+00 0. -1.
     999902    2    1    2    0    0  0.15334565679E-02 -0.14752803066E-01  0.18537482696E-01  0.10201890027E+01  0.10199127248E+01 0.  0.
     999903    2    3    3    0    0 -0.12479114015E+00 -0.29509615855E-01  0.18503672409E-01  0.13104578118E+00  0.19671420474E-01 0.  0.
         14    1    1    2    0    0 -0.15334565679E-02  0.14752803066E-01 -0.18537482696E-01  0.23740997284E-01  0.00000000000E+00 0.  1.
     999901    1    3    3    0    0  0.12632459672E+00  0.14756812789E-01  0.33810286702E-04  0.88914322154E+00  0.88000000000E+00 0. -1.
        -11    1    4    4    0    0 -0.96958967716E-01 -0.31073254657E-01  0.15762504687E-01  0.10303060832E+00  0.51100000000E-03 0.  1.
         11    1    4    4    0    0 -0.27832172438E-01  0.15636388022E-02  0.27411677217E-02  0.28015172861E-01  0.51100000000E-03 0. -1.
</event>
<event>
 8    1  0.1099478E+005  0.1043930E+01  0.7957747E-01            NaN
         13   -1    0    0    0    0  0.00000000000E+00  0.00000000000E+00  0.74505805969E-08  0.10566000000E+00  0.10566000000E+00 0. -1.
     999900   -1    0    0    0    0 -0.00000000000E+00 -0.00000000000E+00 -0.74505805969E-08  0.93827000000E+00  0.93827000000E+00 0. -1.
     999902    2    1    2    0    0  0.69822706869E-02 -0.22528687785E-01  0.23671620370E-02  0.10202256263E+01  0.10199502102E+01 0.  0.
     999903    2    3    3    0    0  0.11166745909E+00  0.57974810728E-01  0.26115900947E-01  0.13005496593E+00  0.20038806964E-01 0.  0.
         14    1    1    2    0    0 -0.69822706869E-02  0.22528687785E-01 -0.23671620370E-02  0.23704373718E-01  0.00000000000E+00 0. -1.
     999901    1    3    3    0    0 -0.10468518840E+00 -0.80503498513E-01 -0.23748738910E-01  0.89017066035E+00  0.88000000000E+00 0.  1.
        -11    1    4    4    0    0  0.70136322808E-01  0.31815535439E-01  0.68394986860E-02  0.77319932331E-01  0.51100000000E-03 0. -1.
         11    1    4    4    0    0  0.41531136277E-01  0.26159275289E-01  0.19276402261E-01  0.52735033604E-01  0.51100000000E-03 0.  1.
</event>
<event>
 8    1  0.1099478E+005  0.1043930E+01  0.7957747E-01            NaN
         13   -1    0    0    0    0  0.00000000000E+00  0.00000000000E+00  0.74505805969E-08  0.10566000000E+00  0.10566000000E+00 0.  1.
     999900   -1    0    0    0    0 -0.00000000000E+00 -0.00000000000E+00 -0.74505805969E-08  0.93827000000E+00  0.93827000000E+00 0. -1.
     999902    2    1    2    0    0 -0.89924416487E-02 -0.32382454141E-02  0.74681701376E-02  0.10318005398E+01  0.10317292426E+01 0.  0.
     999903    2    3    3    0    0 -0.86431247217E-01 -0.10570858898E-01 -0.10875649885E+00  0.14075693281E+00  0.20060771123E-01 0.  0.
         14    1    1    2    0    0  0.89924416487E-02  0.32382454141E-02 -0.74681701376E-02  0.12129460226E-01  0.00000000000E+00 0.  1.
     999901    1    3    3    0    0  0.77438805568E-01  0.73326134841E-02  0.11622466899E+00  0.89104360696E+00  0.88000000000E+00 0.  1.
        -11    1    4    4    0    0 -0.45162079377E-01 -0.30622147609E-02 -0.41057733630E-01  0.61114557879E-01  0.51100000000E-03 0.  1.
         11    1    4    4    0    0 -0.41269167840E-01 -0.75086441373E-02 -0.67698765223E-01  0.79642374931E-01  0.51100000000E-03 0. -1.
</event>
<event>
 8    1  0.1099478E+005  0.1043930E+01  0.7957747E-01            NaN
         13   -1    0    0    0    0  0.00000000000E+00  0.00000000000E+00  0.74505805969E-08  0.10566000000E+00  0.10566000000E+00 0.  1.
     999900   -1    0    0    0    0 -0.00000000000E+00 -0.00000000000E+00 -0.74505805969E-08  0.93827000000E+00  0.93827000000E+00 0.  1.
     999902    2    1    2    0    0 -0.20572192933E-01  0.98102750617E-02 -0.33958411898E-02  0.10208868154E+01  0.10206267200E+01 0.  0.
     999903    2    3    3    0    0  0.40764489434E-01 -0.32809554894E-01 -0.11799791432E+00  0.13031830391E+00  0.17920436898E-01 0.  0.
         14    1    1    2    0    0  0.20572192933E-01 -0.98102750617E-02  0.33958411898E-02  0.23043184594E-01  0.00000000000E+00 0. -1.
     999901    1    3    3    0    0 -0.61336682367E-01  0.42619829955E-01  0.11460207313E+00  0.89056851150E+00  0.88000000000E+00 0. -1.
        -11    1    4    4    0    0  0.39990155232E-01 -0.33604897779E-01 -0.10513347274E+00  0.11739595343E+00  0.51100000000E-03 0.  1.
         11    1    4    4    0    0  0.77433420243E-03  0.79534288537E-03 -0.12864441574E-01  0.12922350474E-01  0.51100000000E-03 0. -1.
</event>
<event>
 8    1  0.1099478E+005  0.1043930E+01  0.7957747E-01            NaN
         13   -1    0    0    0    0  0.00000000000E+00  0.00000000000E+00  0.74505805969E-08  0.10566000000E+00  0.10566000000E+00 0.  1.
     999900   -1    0    0    0    0 -0.00000000000E+00 -0.00000000000E+00 -0.74505805969E-08  0.93827000000E+00  0.93827000000E+00 0.  1.
     999902    2    1    2    0    0 -0.25221324830E-02 -0.75945426038E-02 -0.22319175545E-01  0.10202195840E+01  0.10199440258E+01 0.  0.
     999903    2    3    3    0    0 -0.29475319681E-01  0.10947715094E+00  0.56984750767E-01  0.12852380155E+00  0.20422161892E-01 0.  0.
         14    1    1    2    0    0  0.25221324830E-02  0.75945426038E-02  0.22319175545E-01  0.23710415995E-01  0.00000000000E+00 0.  1.
     999901    1    3    3    0    0  0.26953187198E-01 -0.11707169354E+00 -0.79303926313E-01  0.89169578246E+00  0.88000000000E+00 0.  1.
        -11    1    4    4    0    0 -0.23180079032E-01  0.88963712620E-01  0.36695437862E-01  0.98988254394E-01  0.51100000000E-03 0.  1.
         11    1    4    4    0    0 -0.62952406497E-02  0.20513438315E-01  0.20289312905E-01  0.29535547151E-01  0.51100000000E-03 0. -1.
</event>
<event>
 8    1  0.1099478E+005  0.1043930E+01  0.7957747E-01            NaN
         13   -1    0    0    0    0  0.00000000000E+00  0.00000000000E+00  0.74505805969E-08  0.10566000000E+00  0.10566000000E+00 0. -1.
     999900   -1    0    0    0    0 -0.00000000000E+00 -0.00000000000E+00 -0.74505805969E-08  0.93827000000E+00  0.93827000000E+00 0. -1.
     999902    2    1    2    0    0  0.17134204457E-03  0.36204302061E-02  0.24163448823E-01  0.10194962297E+01  0.10192033915E+01 0.  0.
     999903    2    3    3    0    0 -0.20059996663E-01  0.10327741748E+00 -0.71155750306E-01  0.12852677347E+00  0.19681520984E-01 0.  0.
         14    1    1    2    0    0 -0.17134204457E-03 -0.36204302061E-02 -0.24163448823E-01  0.24433770319E-01  0.00000000000E+00 0.  1.
     999901    1    3    3    0    0  0.20231338708E-01 -0.99656987279E-01  0.95319199130E-01  0.89096945621E+00  0.88000000000E+00 0. -1.
        -11    1    4    4    0    0 -0.13860191095E-01  0.78641527074E-01 -0.43361344476E-01  0.90868377302E-01  0.51100000000E-03 0.  1.
         11    1    4    4    0    0 -0.61998055686E-02  0.24635890411E-01 -0.27794405830E-01  0.37658396167E-01  0.51100000000E-03 0. -1.
</event>
<event>
 8    1  0.1099478E+005  0.1043930E+01  0.7957747E-01            NaN
         13   -1    0    0    0    0  0.00000000000E+00  0.00000000000E+00  0.74505805969E-08  0.10566000000E+00  0.10566000000E+00 0. -1.
     999900   -1    0    0    0    0 -0.00000000000E+00 -0.00000000000E+00 -0.74505805969E-08  0.93827000000E+00  0.93827000000E+00 0.  1.
     999902    2    1    2    0    0  0.21438123737E-01 -0.30219660208E-02  0.88760922191E-02  0.10205310590E+01  0.10202627759E+01 0.  0.
     999903    2    3    3    0    0  0.91243326234E-01  0.81170302246E-01  0.48142733722E-01  0.13289207072E+00  0.20703069866E-01 0.  0.
         14    1    1    2    0    0 -0.21438123737E-01  0.30219660208E-02 -0.88760922191E-02  0.23398941024E-01  0.00000000000E+00 0. -1.
     999901    1    3    3    0    0 -0.69805202497E-01 -0.84192268267E-01 -0.39266641503E-01  0.88763898825E+00  0.88000000000E+00 0.  1.
        -11    1    4    4    0    0  0.64055518526E-01  0.68362998302E-01  0.38959190845E-01  0.10146274520E+00  0.51100000000E-03 0.  1.
         11    1    4    4    0    0  0.27187807708E-01  0.12807303944E-01  0.91835428763E-02  0.31429325526E-01  0.51100000000E-03 0. -1.
</event>
<event>
 8    1  0.1099478E+005  0.1043930E+01  0.7957747E-01            NaN
         13   -1    0    0    0    0  0.00000000000E+00  0.00000000000E+00  0.74505805969E-08  0.10566000000E+00  0.10566000000E+00 0. -1.
     999900   -1    0    0    0    0 -0.00000000000E+00 -0.00000000000E+00 -0.74505805969E-08  0.93827000000E+00  0.93827000000E+00 0.  1.
     999902    2    1    2    0    0  0.86325436801E-02  0.22370629644E-01 -0.87043603859E-03  0.10199357603E+01  0.10196534860E+01 0.  0.
     999903    2    3    3    0    0 -0.59436506707E-01 -0.29708551049E-01  0.10897355330E+00  0.12897485279E+00  0.18546724729E-01 0.  0.
         14    1    1    2    0    0 -0.86325436801E-02 -0.22370629644E-01  0.87043603859E-03  0.23994239725E-01  0.00000000000E+00 0.  1.
     999901    1    3    3    0    0  0.68069050387E-01  0.52079180693E-01 -0.10984398933E+00  0.89096090749E+00  0.88000000000E+00 0.  1.
        -11    1    4    4    0    0 -0.19489685380E-01 -0.18119007616E-02  0.39887070430E-01  0.44433887171E-01  0.51100000000E-03 0.  1.
         11    1    4    4    0    0 -0.39946821327E-01 -0.27896650287E-01  0.69086482866E-01  0.84540965615E-01  0.51100000000E-03 0. -1.
</event>
<event>
 8    1  0.1099478E+005  0.1043930E+01  0.7957747E-01            NaN
         13   -1    0    0    0    0  0.00000000000E+00  0.00000000000E+00  0.74505805969E-08  0.10566000000E+00  0.10566000000E+00 0. -1.
     999900   -1    0    0    0    0 -0.00000000000E+00 -0.00000000000E+00 -0.74505805969E-08  0.93827000000E+00  0.93827000000E+00 0. -1.
     999902    2    1    2    0    0  0.40006821437E-02  0.23066709033E-01  0.71901240285E-03  0.10205078843E+01  0.10202390634E+01 0.  0.
     999903    2    3    3    0    0  0.77453452384E-01  0.21432190844E-01  0.10230412908E+00  0.13162233657E+00  0.19998214057E-01 0.  0.
         14    1    1    2    0    0 -0.40006821437E-02 -0.23066709033E-01 -0.71901240285E-03  0.23422115662E-01  0.00000000000E+00 0. -1.
     999901    1    3    3    0    0 -0.73452770240E-01  0.16345181890E-02 -0.10158511668E+00  0.88888554777E+00  0.88000000000E+00 0. -1.
        -11    1    4    4    0    0  0.52900595050E-01  0.14317466107E-01  0.83517469354E-01  0.99894402249E-01  0.51100000000E-03 0. -1.
         11    1    4    4    0    0  0.24552857333E-01  0.71147247371E-02  0.18786659728E-01  0.31727934318E-01  0.51100000000E-03 0.  1.
</event>
<event>
 8    1  0.1099478E+005  0.1043930E+01  0.7957747E-01            NaN
         13   -1    0    0    0    0  0.00000000000E+00  0.00000000000E+00  0.74505805969E-08  0.10566000000E+00  0.10566000000E+00 0.  1.
     999900   -1    0    0    0    0 -0.00000000000E+00 -0.00000000000E+00 -0.74505805969E-08  0.93827000000E+00  0.93827000000E+00 0.  1.
     999902    2    1    2    0    0 -0.15074547237E-01 -0.24355111560E-02 -0.17964813491E-01  0.10203522942E+01  0.10200798478E+01 0.  0.
     999903    2    3    3    0    0  0.99036600554E-01  0.48504942846E-01  0.61811742602E-01  0.12795071258E+00  0.19741215667E-01 0.  0.
         14    1    1    2    0    0  0.15074547237E-01  0.24355111560E-02  0.17964813491E-01  0.23577705842E-01  0.00000000000E+00 0.  1.
     999901    1    3    3    0    0 -0.11411114779E+00 -0.50940454002E-01 -0.79776556093E-01  0.89240158158E+00  0.88000000000E+00 0.  1.
        -11    1    4    4    0    0  0.35155047634E-01  0.15972947149E-01  0.32601040587E-01  0.50538118120E-01  0.51100000000E-03 0.  1.
         11    1    4    4    0    0  0.63881552921E-01  0.32531995697E-01  0.29210702014E-01  0.77412594458E-01  0.51100000000E-03 0. -1.
</event>
<event>
 8    1  0.1099478E+005  0.1043930E+01  0.7957747E-01            NaN
         13   -1    0    0    0    0  0.00000000000E+00  0.00000000000E+00  0.74505805969E-08  0.10566000000E+00  0.10566000000E+00 0. -1.
     999900   -1    0    0    0    0 -0.00000000000E+00 -0.00000000000E+00 -0.74505805969E-08  0.93827000000E+00  0.93827000000E+00 0.  1.
     999902    2    1    2    0    0 -0.17159443523E-01 -0.46889114478E-02  0.15786890085E-01  0.10201464281E+01  0.10198691468E+01 0.  0.
     999903    2    3    3    0    0 -0.10235253334E+00  0.29582054631E-01 -0.70568760854E-01  0.13116405478E+00  0.29545223296E-01 0.  0.
         14    1    1    2    0    0  0.17159443523E-01  0.46889114478E-02 -0.15786890085E-01  0.23783571875E-01  0.00000000000E+00 0.  1.
     999901    1    3    3    0    0  0.85193089821E-01 -0.34270966079E-01  0.86355650939E-01  0.88898237335E+00  0.88000000000E+00 0.  1.
        -11    1    4    4    0    0 -0.87131098438E-01  0.34237153570E-01 -0.66171249824E-01  0.11464251578E+00  0.51100000000E-03 0. -1.
         11    1    4    4    0    0 -0.15221434906E-01 -0.46550989390E-02 -0.43975110301E-02  0.16521539002E-01  0.51100000000E-03 0.  1.
</event>
<event>
 8    1  0.1099478E+005  0.1043930E+01  0.7957747E-01            NaN
         13   -1    0    0    0    0  0.00000000000E+00  0.00000000000E+00  0.74505805969E-08  0.10566000000E+00  0.10566000000E+00 0.  1.
     999900   -1    0    0    0    0 -0.00000000000E+00 -0.00000000000E+00 -0.74505805969E-08  0.93827000000E+00  0.93827000000E+00 0. -1.
     999902    2    1    2    0    0 -0.13527241549E-02 -0.24050854147E-01  0.55490313876E-03  0.10198347439E+01  0.10195500594E+01 0.  0.
     999903    2    3    3    0    0 -0.41779471254E-01 -0.16105348396E-01  0.12186119092E+00  0.13055825801E+00  0.13798638266E-01 0.  0.
         14    1    1    2    0    0  0.13527241549E-02  0.24050854147E-01 -0.55490313876E-03  0.24095256075E-01  0.00000000000E+00 0.  1.
     999901    1    3    3    0    0  0.40426747099E-01 -0.79455057515E-02 -0.12130628778E+00  0.88927648591E+00  0.88000000000E+00 0. -1.
        -11    1    4    4    0    0 -0.32530168851E-01 -0.13032558809E-01  0.76312705036E-01  0.83975886691E-01  0.51100000000E-03 0.  1.
         11    1    4    4    0    0 -0.92493024030E-02 -0.30727895869E-02  0.45548485881E-01  0.46582371321E-01  0.51100000000E-03 0. -1.
</event>
<event>
 8    1  0.1099478E+005  0.1043930E+01  0.7957747E-01            NaN
         13   -1    0    0    0    0  0.00000000000E+00  0.00000000000E+00  0.74505805969E-08  0.10566000000E+00  0.10566000000E+00 0.  1.
     999900   -1    0    0    0    0 -0.00000000000E+00 -0.00000000000E+00 -0.74505805969E-08  0.93827000000E+00  0.93827000000E+00 0.  1.
     999902    2    1    2    0    0 -0.52904915275E-02 -0.22821933457E-01 -0.45123862058E-02  0.10200722638E+01  0.10197932299E+01 0.  0.
     999903    2    3    3    0    0  0.83433881614E-01  0.56229396273E-01 -0.78173061688E-01  0.12903521506E+00  0.20398567214E-01 0.  0.
         14    1    1    2    0    0  0.52904915275E-02  0.22821933457E-01  0.45123862058E-02  0.23857736200E-01  0.00000000000E+00 0.  1.
     999901    1    3    3    0    0 -0.88724373141E-01 -0.79051329731E-01  0.73660675482E-01  0.89103704874E+00  0.88000000000E+00 0. -1.
        -11    1    4    4    0    0  0.24059254979E-01  0.12701684598E-01 -0.32537193372E-01  0.42415924077E-01  0.51100000000E-03 0. -1.
         11    1    4    4    0    0  0.59374626635E-01  0.43527711675E-01 -0.45635868316E-01  0.86619290979E-01  0.51100000000E-03 0.  1.
</event>
<event>
 8    1  0.1099478E+005  0.1043930E+01  0.7957747E-01            NaN
         13   -1    0    0    0    0  0.00000000000E+00  0.00000000000E+00  0.74505805969E-08  0.10566000000E+00  0.10566000000E+00 0. -1.
     999900   -1    0    0    0    0 -0.00000000000E+00 -0.00000000000E+00 -0.74505805969E-08  0.93827000000E+00  0.93827000000E+00 0.  1.
     999902    2    1    2    0    0 -0.23624219722E-01  0.43924372356E-03 -0.25753960946E-02  0.10201617574E+01  0.10198848375E+01 0.  0.
     999903    2    3    3    0    0 -0.48894458155E-01 -0.56107046604E-01  0.10623538573E+00  0.13129964538E+00  0.20370836448E-01 0.  0.
         14    1    1    2    0    0  0.23624219722E-01 -0.43924372356E-03  0.25753960946E-02  0.23768242627E-01  0.00000000000E+00 0.  1.
     999901    1    3    3    0    0  0.25270238433E-01  0.56546290328E-01 -0.10881078183E+00  0.88886211200E+00  0.88000000000E+00 0.  1.
        -11    1    4    4    0    0 -0.22682904813E-01 -0.41076193713E-01  0.65850162300E-01  0.80859587289E-01  0.51100000000E-03 0.  1.
         11    1    4    4    0    0 -0.26211553342E-01 -0.15030852892E-01  0.40385223433E-01  0.50440058088E-01  0.51100000000E-03 0. -1.
</event>
<event>
 8    1  0.1099478E+005  0.1043930E+01  0.7957747E-01            NaN
         13   -1    0    0    0    0  0.00000000000E+00  0.00000000000E+00  0.74505805969E-08  0.10566000000E+00  0.10566000000E+00 0.  1.
     999900   -1    0    0    0    0 -0.00000000000E+00 -0.00000000000E+00 -0.74505805969E-08  0.93827000000E+00  0.93827000000E+00 0. -1.
     999902    2    1    2    0    0  0.15199061867E-01 -0.16329298827E-01  0.43951113830E-02  0.10211929271E+01  0.10209397729E+01 0.  0.
     999903    2    3    3    0    0  0.54334925840E-01  0.11609671734E+00 -0.10616726124E-01  0.13029808429E+00  0.20836121345E-01 0.  0.
         14    1    1    2    0    0 -0.15199061867E-01  0.16329298827E-01 -0.43951113830E-02  0.22737072940E-01  0.00000000000E+00 0.  1.
     999901    1    3    3    0    0 -0.39135863972E-01 -0.13242601617E+00  0.15011837507E-01  0.89089484277E+00  0.88000000000E+00 0. -1.
        -11    1    4    4    0    0  0.38996226685E-01  0.98626247145E-01 -0.40492271940E-02  0.10613434733E+00  0.51100000000E-03 0. -1.
         11    1    4    4    0    0  0.15338699154E-01  0.17470470197E-01 -0.65674989298E-02  0.24163736960E-01  0.51100000000E-03 0.  1.
</event>
<event>
 8    1  0.1099478E+005  0.1043930E+01  0.7957747E-01            NaN
         13   -1    0    0    0    0  0.00000000000E+00  0.00000000000E+00  0.74505805969E-08  0.10566000000E+00  0.10566000000E+00 0.  1.
     999900   -1    0    0    0    0 -0.00000000000E+00 -0.00000000000E+00 -0.74505805969E-08  0.93827000000E+00  0.93827000000E+00 0.  1.
     999902    2    1    2    0    0 -0.21761558345E-01  0.60965475870E-03 -0.14164542263E-01  0.10179574884E+01  0.10176260988E+01 0.  0.
     999903    2    3    3    0    0 -0.95215025828E-01  0.48817413478E-01  0.69874994289E-01  0.12959830228E+00  0.21544468543E-01 0.  0.
         14    1    1    2    0    0  0.21761558345E-01 -0.60965475870E-03  0.14164542263E-01  0.25972511585E-01  0.00000000000E+00 0.  1.
     999901    1    3    3    0    0  0.73453467484E-01 -0.48207758720E-01 -0.84039536552E-01  0.88835918613E+00  0.88000000000E+00 0.  1.
        -11    1    4    4    0    0 -0.87706088844E-01  0.39709189621E-01  0.56021592365E-01  0.11139056375E+00  0.51100000000E-03 0. -1.
         11    1    4    4    0    0 -0.75089369838E-02  0.91082238571E-02  0.13853401924E-01  0.18207738529E-01  0.51100000000E-03 0.  1.
</event>
<event>
 8    1  0.1392159E+005  0.1043930E+01  0.7957747E-01            NaN
         13   -1    0    0    0    0  0.00000000000E+00  0.00000000000E+00  0.74505805969E-08  0.10566000000E+00  0.10566000000E+00 0. -1.
     999900   -1    0    0    0    0 -0.00000000000E+00 -0.00000000000E+00 -0.74505805969E-08  0.93827000000E+00  0.93827000000E+00 0.  1.
     999902    2    1    2    0    0 -0.16973624710E-01  0.12018388457E-01 -0.24293504704E-01  0.10119500068E+01  0.10114445591E+01 0.  0.
     999903    2    3    3    0    0 -0.33488929526E-01  0.61656329986E-01 -0.10373136074E+00  0.12682456169E+00  0.20031545606E-01 0.  0.
         14    1    1    2    0    0  0.16973624710E-01 -0.12018388457E-01  0.24293504704E-01  0.31979993241E-01  0.00000000000E+00 0. -1.
     999901    1    3    3    0    0  0.16515304815E-01 -0.49637941529E-01  0.79437856036E-01  0.88512544507E+00  0.88000000000E+00 0. -1.
        -11    1    4    4    0    0 -0.22854352719E-01  0.24569684158E-01 -0.38857828362E-01  0.51343770448E-01  0.51100000000E-03 0. -1.
         11    1    4    4    0    0 -0.10634576807E-01  0.37086645828E-01 -0.64873532378E-01  0.75480791244E-01  0.51100000000E-03 0.  1.
</event>
<event>
 8    1  0.1099478E+005  0.1043930E+01  0.7957747E-01            NaN
         13   -1    0    0    0    0  0.00000000000E+00  0.00000000000E+00  0.74505805969E-08  0.10566000000E+00  0.10566000000E+00 0. -1.
     999900   -1    0    0    0    0 -0.00000000000E+00 -0.00000000000E+00 -0.74505805969E-08  0.93827000000E+00  0.93827000000E+00 0.  1.
     999902    2    1    2    0    0 -0.17875187546E-01  0.37160464397E-02  0.15475618592E-01  0.10199962142E+01  0.10197153774E+01 0.  0.
     999903    2    3    3    0    0  0.74865056317E-01 -0.13603465471E-01 -0.99939782976E-01  0.12745969774E+00  0.21637546011E-01 0.  0.
         14    1    1    2    0    0  0.17875187546E-01 -0.37160464397E-02 -0.15475618592E-01  0.23933785780E-01  0.00000000000E+00 0. -1.
     999901    1    3    3    0    0 -0.92740243864E-01  0.17319511910E-01  0.11541540157E+00  0.89253651648E+00  0.88000000000E+00 0. -1.
        -11    1    4    4    0    0  0.48618032527E-01 -0.12401627019E-01 -0.80154447883E-01  0.94564845878E-01  0.51100000000E-03 0. -1.
         11    1    4    4    0    0  0.26247023790E-01 -0.12018384516E-02 -0.19785335093E-01  0.32894851866E-01  0.51100000000E-03 0.  1.
</event>
<event>
 8    1  0.1099478E+005  0.1043930E+01  0.7957747E-01            NaN
         13   -1    0    0    0    0  0.00000000000E+00  0.00000000000E+00  0.74505805969E-08  0.10566000000E+00  0.10566000000E+00 0. -1.
     999900   -1    0    0    0    0 -0.00000000000E+00 -0.00000000000E+00 -0.74505805969E-08  0.93827000000E+00  0.93827000000E+00 0. -1.
     999902    2    1    2    0    0 -0.57474782817E-02  0.20281858336E-01  0.11031532205E-01  0.10201375225E+01  0.10198600310E+01 0.  0.
     999903    2    3    3    0    0  0.73973588060E-01  0.10266243432E+00  0.33354373305E-01  0.13242117309E+00  0.20277714712E-01 0.  0.
         14    1    1    2    0    0  0.57474782817E-02 -0.20281858336E-01 -0.11031532205E-01  0.23792477528E-01  0.00000000000E+00 0.  1.
     999901    1    3    3    0    0 -0.79721066342E-01 -0.82380575984E-01 -0.22322841100E-01  0.88771634938E+00  0.88000000000E+00 0.  1.
        -11    1    4    4    0    0  0.23287763973E-01  0.39642364323E-01  0.21222516545E-01  0.50640826706E-01  0.51100000000E-03 0. -1.
         11    1    4    4    0    0  0.50685824087E-01  0.63020069997E-01  0.12131856760E-01  0.81780346387E-01  0.51100000000E-03 0.  1.
</event>
<event>
 8    1  0.1099478E+005  0.1043930E+01  0.7957747E-01            NaN
         13   -1    0    0    0    0  0.00000000000E+00  0.00000000000E+00  0.74505805969E-08  0.10566000000E+00  0.10566000000E+00 0.  1.
     999900   -1    0    0    0    0 -0.00000000000E+00 -0.00000000000E+00 -0.74505805969E-08  0.93827000000E+00  0.93827000000E+00 0.  1.
     999902    2    1    2    0    0 -0.20910332860E-01  0.58991314308E-02 -0.40391374905E-02  0.10218312126E+01  0.10215922233E+01 0.  0.
     999903    2    3    3    0    0 -0.11189775843E+00 -0.70947316701E-01 -0.48325380962E-02  0.13380828629E+00  0.18074124263E-01 0.  0.
         14    1    1    2    0    0  0.20910332860E-01 -0.58991314308E-02  0.40391374905E-02  0.22098787379E-01  0.00000000000E+00 0. -1.
     999901    1    3    3    0    0  0.90987425567E-01  0.76846448132E-01  0.79340060571E-03  0.88802292633E+00  0.88000000000E+00 0.  1.
        -11    1    4    4    0    0 -0.84121044214E-01 -0.48023270179E-01 -0.10166573750E-01  0.97397150375E-01  0.51100000000E-03 0.  1.
         11    1    4    4    0    0 -0.27776714213E-01 -0.22924046522E-01  0.53340356534E-02  0.36411135917E-01  0.51100000000E-03 0. -1.
</event>
<event>
 8    1  0.1099478E+005  0.1043930E+01  0.7957747E-01            NaN
         13   -1    0    0    0    0  0.00000000000E+00  0.00000000000E+00  0.74505805969E-08  0.10566000000E+00  0.10566000000E+00 0. -1.
     999900   -1    0    0    0    0 -0.00000000000E+00 -0.00000000000E+00 -0.74505805969E-08  0.93827000000E+00  0.93827000000E+00 0. -1.
     999902    2    1    2    0    0 -0.17995975769E-01 -0.88492150098E-02  0.14288272288E-01  0.10193064650E+01  0.10190090044E+01 0.  0.
     999903    2    3    3    0    0  0.11527488047E+00 -0.34038414250E-02 -0.49701032630E-01  0.12695821217E+00  0.18663086242E-01 0.  0.
         14    1    1    2    0    0  0.17995975769E-01  0.88492150098E-02 -0.14288272288E-01  0.24623534984E-01  0.00000000000E+00 0.  1.
     999901    1    3    3    0    0 -0.13327085624E+00 -0.54453735848E-02  0.63989304918E-01  0.89234825285E+00  0.88000000000E+00 0.  1.
        -11    1    4    4    0    0  0.70330127965E-01  0.38572847035E-02 -0.22609539123E-01  0.73977414967E-01  0.51100000000E-03 0.  1.
         11    1    4    4    0    0  0.44944752507E-01 -0.72611261285E-02 -0.27091493508E-01  0.52980797201E-01  0.51100000000E-03 0. -1.
</event>
<event>
 8    1  0.1099478E+005  0.1043930E+01  0.7957747E-01            NaN
         13   -1    0    0    0    0  0.00000000000E+00  0.00000000000E+00  0.74505805969E-08  0.10566000000E+00  0.10566000000E+00 0.  1.
     999900   -1    0    0    0    0 -0.00000000000E+00 -0.00000000000E+00 -0.74505805969E-08  0.93827000000E+00  0.93827000000E+00 0. -1.
     999902    2    1    2    0    0 -0.20742414090E-02 -0.21694770738E-01 -0.98560743609E-02  0.10200112259E+01  0.10197307454E+01 0.  0.
     999903    2    3    3    0    0 -0.11906582790E+00  0.33843377642E-01 -0.35477350212E-01  0.13016406650E+00  0.19026198901E-01 0.  0.
         14    1    1    2    0    0  0.20742414090E-02  0.21694770738E-01  0.98560743609E-02  0.23918774145E-01  0.00000000000E+00 0.  1.
     999901    1    3    3    0    0  0.11699158650E+00 -0.55538148380E-01  0.25621275852E-01  0.88984715936E+00  0.88000000000E+00 0. -1.
        -11    1    4    4    0    0 -0.52911633552E-02 -0.18861194325E-02 -0.37104414708E-02  0.67514704378E-02  0.51100000000E-03 0.  1.
         11    1    4    4    0    0 -0.11377466455E+00  0.35729497075E-01 -0.31766908742E-01  0.12341259606E+00  0.51100000000E-03 0. -1.
</event>
<event>
 8    1  0.1099478E+005  0.1043930E+01  0.7957747E-01            NaN
         13   -1    0    0    0    0  0.00000000000E+00  0.00000000000E+00  0.74505805969E-08  0.10566000000E+00  0.10566000000E+00 0. -1.
     999900   -1    0    0    0    0 -0.00000000000E+00 -0.00000000000E+00 -0.74505805969E-08  0.93827000000E+00  0.93827000000E+00 0. -1.
     999902    2    1    2    0    0  0.87413850947E-02 -0.90760531086E-02  0.19873521070E-01  0.10203982471E+01  0.10201268741E+01 0.  0.
     999903    2    3    3    0    0  0.97069716452E-01  0.58970180280E-02 -0.82524583377E-01  0.12994248811E+00  0.24848313440E-01 0.  0.
         14    1    1    2    0    0 -0.87413850947E-02  0.90760531086E-02 -0.19873521070E-01  0.23531752869E-01  0.00000000000E+00 0.  1.
     999901    1    3    3    0    0 -0.88328331357E-01 -0.14973071137E-01  0.10239810445E+00  0.89045575902E+00  0.88000000000E+00 0.  1.
        -11    1    4    4    0    0  0.90247097335E-01  0.12397776086E-02 -0.67202002069E-01  0.11252753365E+00  0.51100000000E-03 0.  1.
         11    1    4    4    0    0  0.68226191172E-02  0.46572404194E-02 -0.15322581308E-01  0.17414954461E-01  0.51100000000E-03 0. -1.
</event>
<event>
 8    1  0.1099478E+005  0.1043930E+01  0.7957747E-01            NaN
         13   -1    0    0    0    0  0.00000000000E+00  0.00000000000E+00  0.74505805969E-08  0.10566000000E+00  0.10566000000E+00 0. -1.
     999900   -1    0    0    0    0 -0.00000000000E+00 -0.00000000000E+00 -0.74505805969E-08  0.93827000000E+00  0.93827000000E+00 0. -1.
     999902    2    1    2    0    0  0.60440579372E-02  0.57011141845E-02  0.21760651112E-01  0.10206370982E+01  0.10203712691E+01 0.  0.
     999903    2    3    3    0    0 -0.12035695789E+00 -0.52362220133E-02 -0.41455306009E-01  0.12929367424E+00  0.22024905660E-01 0.  0.
         14    1    1    2    0    0 -0.60440579372E-02 -0.57011141845E-02 -0.21760651112E-01  0.23292901840E-01  0.00000000000E+00 0.  1.
     999901    1    3    3    0    0  0.12640101583E+00  0.10937336198E-01  0.63215957121E-01  0.89134342392E+00  0.88000000000E+00 0.  1.
        -11    1    4    4    0    0 -0.10800744917E+00 -0.72113132209E-02 -0.43402730471E-01  0.11662619881E+00  0.51100000000E-03 0. -1.
         11    1    4    4    0    0 -0.12349508716E-01  0.19750912077E-02  0.19474244624E-02  0.12667475433E-01  0.51100000000E-03 0.  1.
</event>
<event>
 8    1  0.1099478E+005  0.1043930E+01  0.7957747E-01            NaN
         13   -1    0    0    0    0  0.00000000000E+00  0.00000000000E+00  0.74505805969E-08  0.10566000000E+00  0.10566000000E+00 0. -1.
     999900   -1    0    0    0    0 -0.00000000000E+00 -0.00000000000E+00 -0.74505805969E-08  0.93827000000E+00  0.93827000000E+00 0.  1.
     999902    2    1    2    0    0  0.35039686852E-02  0.23838155531E-01 -0.13076793310E-02  0.10198002366E+01  0.10195147263E+01 0.  0.
     999903    2    3    3    0    0 -0.11992420186E-01  0.11601435429E-01 -0.12787401254E+00  0.13052586271E+00  0.20169935722E-01 0.  0.
         14    1    1    2    0    0 -0.35039686852E-02 -0.23838155531E-01  0.13076793310E-02  0.24129763382E-01  0.00000000000E+00 0.  1.
     999901    1    3    3    0    0  0.15496388871E-01  0.12236720102E-01  0.12656633321E+00  0.88927437391E+00  0.88000000000E+00 0. -1.
        -11    1    4    4    0    0 -0.12717150334E-02  0.14882369800E-01 -0.74676265255E-01  0.76157126412E-01  0.51100000000E-03 0.  1.
         11    1    4    4    0    0 -0.10720705152E-01 -0.32809343711E-02 -0.53197747286E-01  0.54368736298E-01  0.51100000000E-03 0. -1.
</event>
<event>
 8    1  0.1099478E+005  0.1043930E+01  0.7957747E-01            NaN
         13   -1    0    0    0    0  0.00000000000E+00  0.00000000000E+00  0.74505805969E-08  0.10566000000E+00  0.10566000000E+00 0.  1.
     999900   -1    0    0    0    0 -0.00000000000E+00 -0.00000000000E+00 -0.74505805969E-08  0.93827000000E+00  0.93827000000E+00 0. -1.
     999902    2    1    2    0    0  0.93641098551E-02 -0.18671086112E-01 -0.98176920690E-02  0.10208500718E+01  0.10205891367E+01 0.  0.
     999903    2    3    3    0    0  0.22027637796E-01  0.16461660094E-01  0.12579075414E+00  0.12967987170E+00  0.15406239556E-01 0.  0.
         14    1    1    2    0    0 -0.93641098551E-02  0.18671086112E-01  0.98176920690E-02  0.23079928240E-01  0.00000000000E+00 0.  1.
     999901    1    3    3    0    0 -0.12663527941E-01 -0.35132746206E-01 -0.13560844621E+00  0.89117020006E+00  0.88000000000E+00 0. -1.
        -11    1    4    4    0    0  0.92293198866E-02 -0.14887924322E-02  0.32787758463E-01  0.34098314834E-01  0.51100000000E-03 0. -1.
         11    1    4    4    0    0  0.12798317909E-01  0.17950452526E-01  0.93002995675E-01  0.95581556864E-01  0.51100000000E-03 0.  1.
</event>
<event>
 8    1  0.1099478E+005  0.1043930E+01  0.7957747E-01            NaN
         13   -1    0    0    0    0  0.00000000000E+00  0.00000000000E+00  0.74505805969E-08  0.10566000000E+00  0.10566000000E+00 0.  1.
     999900   -1    0    0    0    0 -0.00000000000E+00 -0.00000000000E+00 -0.74505805969E-08  0.93827000000E+00  0.93827000000E+00 0.  1.
     999902    2    1    2    0    0  0.10715719180E-01 -0.89545731930E-02  0.22171633468E-01  0.10177270927E+01  0.10173897203E+01 0.  0.
     999903    2    3    3    0    0 -0.72378243464E-03  0.11292648822E+00 -0.52658133582E-01  0.12610758343E+00  0.19424931517E-01 0.  0.
         14    1    1    2    0    0 -0.10715719180E-01  0.89545731930E-02 -0.22171633468E-01  0.26202907267E-01  0.00000000000E+00 0. -1.
     999901    1    3    3    0    0  0.11439501615E-01 -0.12188106141E+00  0.74829767050E-01  0.89161950930E+00  0.88000000000E+00 0. -1.
        -11    1    4    4    0    0  0.36203835099E-02  0.80252109425E-01 -0.45668859264E-01  0.92408950169E-01  0.51100000000E-03 0. -1.
         11    1    4    4    0    0 -0.43441659446E-02  0.32674378794E-01 -0.69892743178E-02  0.33698633263E-01  0.51100000000E-03 0.  1.
</event>
<event>
 8    1  0.1099478E+005  0.1043930E+01  0.7957747E-01            NaN
         13   -1    0    0    0    0  0.00000000000E+00  0.00000000000E+00  0.74505805969E-08  0.10566000000E+00  0.10566000000E+00 0. -1.
     999900   -1    0    0    0    0 -0.00000000000E+00 -0.00000000000E+00 -0.74505805969E-08  0.93827000000E+00  0.93827000000E+00 0.  1.
     999902    2    1    2    0    0  0.16504135394E-01  0.38463942576E-02  0.79342002874E-02  0.10252181650E+01  0.10250473907E+01 0.  0.
     999903    2    3    3    0    0 -0.94716812831E-02 -0.24106098099E-01  0.13165319974E+00  0.13574502001E+00  0.20574954292E-01 0.  0.
         14    1    1    2    0    0 -0.16504135394E-01 -0.38463942576E-02 -0.79342002874E-02  0.18711834973E-01  0.00000000000E+00 0.  1.
     999901    1    3    3    0    0  0.25975816677E-01  0.27952492356E-01 -0.12371899945E+00  0.88947314502E+00  0.88000000000E+00 0.  1.
        -11    1    4    4    0    0 -0.15833985028E-01 -0.18778650444E-01  0.91567871903E-01  0.94806587747E-01  0.51100000000E-03 0. -1.
         11    1    4    4    0    0  0.63623037444E-02 -0.53274476548E-02  0.40085327835E-01  0.40938432263E-01  0.51100000000E-03 0.  1.
</event>
<event>
 8    1  0.1099478E+005  0.1043930E+01  0.7957747E-01            NaN
         13   -1    0    0    0    0  0.00000000000E+00  0.00000000000E+00  0.74505805969E-08  0.10566000000E+00  0.10566000000E+00 0. -1.
     999900   -1    0    0    0    0 -0.00000000000E+00 -0.00000000000E+00 -0.74505805969E-08  0.93827000000E+00  0.93827000000E+00 0. -1.
     999902    2    1    2    0    0  0.10251703886E-01  0.64510914328E-03 -0.25018211132E-01  0.10168851394E+01  0.10165254361E+01 0.  0.
     999903    2    3    3    0    0 -0.96593751477E-01  0.76169336185E-01  0.19871968547E-01  0.12607933088E+00  0.19208902681E-01 0.  0.
         14    1    1    2    0    0 -0.10251703886E-01 -0.64510914328E-03  0.25018211132E-01  0.27044860632E-01  0.00000000000E+00 0. -1.
     999901    1    3    3    0    0  0.10684545536E+00 -0.75524227041E-01 -0.44890179679E-01  0.89080580849E+00  0.88000000000E+00 0. -1.
        -11    1    4    4    0    0 -0.57224103023E-01  0.52057786361E-01  0.47938586696E-02  0.77510343113E-01  0.51100000000E-03 0.  1.
         11    1    4    4    0    0 -0.39369648455E-01  0.24111549824E-01  0.15078109877E-01  0.48568987768E-01  0.51100000000E-03 0. -1.
</event>
<event>
 8    1  0.1099478E+005  0.1043930E+01  0.7957747E-01            NaN
         13   -1    0    0    0    0  0.00000000000E+00  0.00000000000E+00  0.74505805969E-08  0.10566000000E+00  0.10566000000E+00 0. -1.
     999900   -1    0    0    0    0 -0.00000000000E+00 -0.00000000000E+00 -0.74505805969E-08  0.93827000000E+00  0.93827000000E+00 0. -1.
     999902    2    1    2    0    0 -0.21963668295E-01  0.15608402066E-02  0.92426085608E-02  0.10200497831E+01  0.10197702169E+01 0.  0.
     999903    2    3    3    0    0  0.84825920490E-01 -0.22274741847E-01  0.93005743507E-01  0.12932624908E+00  0.19585950697E-01 0.  0.
         14    1    1    2    0    0  0.21963668295E-01 -0.15608402066E-02 -0.92426085608E-02  0.23880216920E-01  0.00000000000E+00 0.  1.
     999901    1    3    3    0    0 -0.10678958878E+00  0.23835582054E-01 -0.83763134946E-01  0.89072353400E+00  0.88000000000E+00 0. -1.
        -11    1    4    4    0    0  0.74303146315E-02 -0.13088104981E-02  0.18014817345E-01  0.19537587503E-01  0.51100000000E-03 0.  1.
         11    1    4    4    0    0  0.77395605858E-01 -0.20965931349E-01  0.74990926162E-01  0.10978866158E+00  0.51100000000E-03 0. -1.
</event>
<event>
 8    1  0.1099478E+005  0.1043930E+01  0.7957747E-01            NaN
         13   -1    0    0    0    0  0.00000000000E+00  0.00000000000E+00  0.74505805969E-08  0.10566000000E+00  0.10566000000E+00 0. -1.
     999900   -1    0    0    0    0 -0.00000000000E+00 -0.00000000000E+00 -0.74505805969E-08  0.93827000000E+00  0.93827000000E+00 0.  1.
     999902    2    1    2    0    0 -0.44456926450E-02  0.52761750085E-02 -0.22690605830E-01  0.10202136386E+01  0.10199379405E+01 0.  0.
     999903    2    3    3    0    0 -0.37192798673E-01 -0.99054423270E-01 -0.76020656814E-01  0.13184359124E+00  0.20211611638E-01 0.  0.
         14    1    1    2    0    0  0.44456926450E-02 -0.52761750085E-02  0.22690605830E-01  0.23716361415E-01  0.00000000000E+00 0. -1.
     999901    1    3    3    0    0  0.32747106028E-01  0.10433059828E+00  0.53330050984E-01  0.88837004735E+00  0.88000000000E+00 0. -1.
        -11    1    4    4    0    0 -0.29595669820E-01 -0.51533392307E-01 -0.38383160031E-01  0.70746888905E-01  0.51100000000E-03 0.  1.
         11    1    4    4    0    0 -0.75971288530E-02 -0.47521030962E-01 -0.37637496784E-01  0.61096702330E-01  0.51100000000E-03 0. -1.
</event>
<event>
 8    1  0.1099478E+005  0.1043930E+01  0.7957747E-01            NaN
         13   -1    0    0    0    0  0.00000000000E+00  0.00000000000E+00  0.74505805969E-08  0.10566000000E+00  0.10566000000E+00 0. -1.
     999900   -1    0    0    0    0 -0.00000000000E+00 -0.00000000000E+00 -0.74505805969E-08  0.93827000000E+00  0.93827000000E+00 0. -1.
     999902    2    1    2    0    0  0.50814853079E-02 -0.19465944546E-01 -0.86632844444E-02  0.10220257313E+01  0.10217909759E+01 0.  0.
     999903    2    3    3    0    0  0.33527931239E-01 -0.63830674000E-01 -0.11167234789E+00  0.13445134193E+00  0.20198340254E-01 0.  0.
         14    1    1    2    0    0 -0.50814853079E-02  0.19465944546E-01  0.86632844444E-02  0.21904268702E-01  0.00000000000E+00 0. -1.
     999901    1    3    3    0    0 -0.28446445931E-01  0.44364729454E-01  0.10300906344E+00  0.88757438936E+00  0.88000000000E+00 0.  1.
        -11    1    4    4    0    0  0.30510625217E-01 -0.61085963831E-01 -0.11094821852E+00  0.13027724875E+00  0.51100000000E-03 0. -1.
         11    1    4    4    0    0  0.30173060226E-02 -0.27447101688E-02 -0.72412936250E-03  0.41740931804E-02  0.51100000000E-03 0.  1.
</event>
<event>
 8    1  0.1099478E+005  0.1043930E+01  0.7957747E-01            NaN
         13   -1    0    0    0    0  0.00000000000E+00  0.00000000000E+00  0.74505805969E-08  0.10566000000E+00  0.10566000000E+00 0.  1.
     999900   -1    0    0    0    0 -0.00000000000E+00 -0.00000000000E+00 -0.74505805969E-08  0.93827000000E+00  0.93827000000E+00 0. -1.
     999902    2    1    2    0    0  0.16876250692E-01 -0.14802256812E-01  0.59070812850E-02  0.10207177564E+01  0.10204537863E+01 0.  0.
     999903    2    3    3    0    0 -0.39156877424E-01 -0.10094228866E+00  0.73030168617E-01  0.13219914354E+00  0.20508567331E-01 0.  0.
         14    1    1    2    0    0 -0.16876250692E-01  0.14802256812E-01 -0.59070812850E-02  0.23212243611E-01  0.00000000000E+00 0.  1.
     999901    1    3    3    0    0  0.56033128117E-01  0.86140031847E-01 -0.67123087332E-01  0.88851861285E+00  0.88000000000E+00 0.  1.
        -11    1    4    4    0    0 -0.58541623083E-02 -0.41772411330E-01  0.25098406420E-01  0.49085605736E-01  0.51100000000E-03 0. -1.
         11    1    4    4    0    0 -0.33302715116E-01 -0.59169877329E-01  0.47931762198E-01  0.83113537800E-01  0.51100000000E-03 0.  1.
</event>
<event>
 8    1  0.1099478E+005  0.1043930E+01  0.7957747E-01            NaN
         13   -1    0    0    0    0  0.00000000000E+00  0.00000000000E+00  0.74505805969E-08  0.10566000000E+00  0.10566000000E+00 0. -1.
     999900   -1    0    0    0    0 -0.00000000000E+00 -0.00000000000E+00 -0.74505805969E-08  0.93827000000E+00  0.93827000000E+00 0.  1.
     999902    2    1    2    0    0 -0.91914546347E-02 -0.17532898220E-01  0.62844596404E-03  0.10241239327E+01  0.10239323948E+01 0.  0.
     999903    2    3    3    0    0  0.77340117849E-01  0.10302782511E+00 -0.16773192410E-01  0.13152916569E+00  0.20551274077E-01 0.  0.
         14    1    1    2    0    0  0.91914546347E-02  0.17532898220E-01 -0.62844596404E-03  0.19806067318E-01  0.00000000000E+00 0.  1.
     999901    1    3    3    0    0 -0.86531572484E-01 -0.12056072333E+00  0.17401638374E-01  0.89259476699E+00  0.88000000000E+00 0. -1.
        -11    1    4    4    0    0  0.22000324483E-01  0.21481923951E-01  0.33784151807E-02  0.30938037173E-01  0.51100000000E-03 0. -1.
         11    1    4    4    0    0  0.55339793366E-01  0.81545901163E-01 -0.20151607591E-01  0.10059112851E+00  0.51100000000E-03 0.  1.
</event>
<event>
 7    1  0.1099478E+005  0.1043930E+01  0.7957747E-01            NaN
         13   -1    0    0    0    0  0.00000000000E+00  0.00000000000E+00  0.74505805969E-08  0.10566000000E+00  0.10566000000E+00 0. -1.
     999900   -1    0    0    0    0 -0.00000000000E+00 -0.00000000000E+00 -0.74505805969E-08  0.93827000000E+00  0.93827000000E+00 0. -1.
     999903    2    1    2    0    0 -0.23591856795E-01  0.77241026823E-01  0.75370311601E-01  0.11157547107E+00  0.15673223754E-01 0.  0.
         14    1    1    2    0    0  0.36273678534E-01  0.11465862551E-01  0.19467514723E-01  0.42734411051E-01  0.00000000000E+00 0. -1.
     999901    1    1    2    0    0 -0.12681821739E-01 -0.88706889374E-01 -0.94837826325E-01  0.88962011787E+00  0.88000000000E+00 0. -1.
        -11    1    3    3    0    0 -0.95027635307E-02  0.38233414259E-01  0.26529926527E-01  0.47499416871E-01  0.51100000000E-03 0.  1.
         11    1    3    3    0    0 -0.14089093264E-01  0.39007612564E-01  0.48840385075E-01  0.64076054203E-01  0.51100000000E-03 0. -1.
</event>
<event>
 8    1  0.1099478E+005  0.1043930E+01  0.7957747E-01            NaN
         13   -1    0    0    0    0  0.00000000000E+00  0.00000000000E+00  0.74505805969E-08  0.10566000000E+00  0.10566000000E+00 0. -1.
     999900   -1    0    0    0    0 -0.00000000000E+00 -0.00000000000E+00 -0.74505805969E-08  0.93827000000E+00  0.93827000000E+00 0. -1.
     999902    2    1    2    0    0 -0.72001069367E-02 -0.18920919397E-01  0.11878197533E-01  0.10204580102E+01  0.10201880298E+01 0.  0.
     999903    2    3    3    0    0 -0.43699255766E-01  0.11948120358E+00  0.63292162420E-02  0.12887619859E+00  0.19586541898E-01 0.  0.
         14    1    1    2    0    0  0.72001069367E-02  0.18920919397E-01 -0.11878197533E-01  0.23471989847E-01  0.00000000000E+00 0.  1.
     999901    1    3    3    0    0  0.36499148830E-01 -0.13840212297E+00  0.55489812907E-02  0.89158181156E+00  0.88000000000E+00 0.  1.
        -11    1    4    4    0    0 -0.37881254612E-01  0.77834121706E-01  0.18555808238E-02  0.86584318753E-01  0.51100000000E-03 0.  1.
         11    1    4    4    0    0 -0.58180011547E-02  0.41647081870E-01  0.44736354182E-02  0.42291879842E-01  0.51100000000E-03 0. -1.
</event>
<event>
 8    1  0.1099478E+005  0.1043930E+01  0.7957747E-01            NaN
         13   -1    0    0    0    0  0.00000000000E+00  0.00000000000E+00  0.74505805969E-08  0.10566000000E+00  0.10566000000E+00 0.  1.
     999900   -1    0    0    0    0 -0.00000000000E+00 -0.00000000000E+00 -0.74505805969E-08  0.93827000000E+00  0.93827000000E+00 0. -1.
     999902    2    1    2    0    0  0.48845411412E-02  0.14165597685E-01 -0.18601157687E-01  0.10200443146E+01  0.10197646188E+01 0.  0.
     999903    2    3    3    0    0 -0.59021522519E-01 -0.34798409034E-01  0.10295142100E+00  0.12804852519E+00  0.33210846508E-01 0.  0.
         14    1    1    2    0    0 -0.48845411412E-02 -0.14165597685E-01  0.18601157687E-01  0.23885685405E-01  0.00000000000E+00 0.  1.
     999901    1    3    3    0    0  0.63906063660E-01  0.48964006719E-01 -0.12155257869E+00  0.89199578940E+00  0.88000000000E+00 0. -1.
        -11    1    4    4    0    0 -0.29257106651E-01 -0.24814521952E-01  0.81331204141E-01  0.89926440369E-01  0.51100000000E-03 0. -1.
         11    1    4    4    0    0 -0.29764415867E-01 -0.99838870814E-02  0.21620216861E-01  0.38122084824E-01  0.51100000000E-03 0.  1.
</event>
<event>
 8    1  0.1099478E+005  0.1043930E+01  0.7957747E-01            NaN
         13   -1    0    0    0    0  0.00000000000E+00  0.00000000000E+00  0.74505805969E-08  0.10566000000E+00  0.10566000000E+00 0. -1.
     999900   -1    0    0    0    0 -0.00000000000E+00 -0.00000000000E+00 -0.74505805969E-08  0.93827000000E+00  0.93827000000E+00 0. -1.
     999902    2    1    2    0    0  0.12780889776E-01 -0.23177767658E-02 -0.19451555317E-01  0.10205401253E+01  0.10202720525E+01 0.  0.
     999903    2    3    3    0    0 -0.57815777410E-01  0.56516780698E-01 -0.10224654966E+00  0.13188923457E+00  0.20089864613E-01 0.  0.
         14    1    1    2    0    0 -0.12780889776E-01  0.23177767658E-02  0.19451555317E-01  0.23389874666E-01  0.00000000000E+00 0. -1.
     999901    1    3    3    0    0  0.70596667186E-01 -0.58834557463E-01  0.82794994341E-01  0.88865089077E+00  0.88000000000E+00 0.  1.
        -11    1    4    4    0    0 -0.46738533736E-01  0.45897368943E-01 -0.68328121716E-01  0.94657553053E-01  0.51100000000E-03 0.  1.
         11    1    4    4    0    0 -0.11077243674E-01  0.10619411754E-01 -0.33918427943E-01  0.37231681516E-01  0.51100000000E-03 0. -1.
</event>
<event>
 8    1  0.1099478E+005  0.1043930E+01  0.7957747E-01            NaN
         13   -1    0    0    0    0  0.00000000000E+00  0.00000000000E+00  0.74505805969E-08  0.10566000000E+00  0.10566000000E+00 0. -1.
     999900   -1    0    0    0    0 -0.00000000000E+00 -0.00000000000E+00 -0.74505805969E-08  0.93827000000E+00  0.93827000000E+00 0.  1.
     999902    2    1    2    0    0  0.18765578379E-01  0.10699894129E-01 -0.11770262688E-02  0.10222962288E+01  0.10220672969E+01 0.  0.
     999903    2    3    3    0    0 -0.26101871940E-02  0.12990958965E+00  0.23536815293E-01  0.13365757960E+00  0.20665244967E-01 0.  0.
         14    1    1    2    0    0 -0.18765578379E-01 -0.10699894129E-01  0.11770262688E-02  0.21633771218E-01  0.00000000000E+00 0. -1.
     999901    1    3    3    0    0  0.21375765573E-01 -0.11920969552E+00 -0.24713841562E-01  0.88863864918E+00  0.88000000000E+00 0.  1.
        -11    1    4    4    0    0  0.15655493428E-02  0.31317189840E-01 -0.29038960856E-02  0.31494619503E-01  0.51100000000E-03 0. -1.
         11    1    4    4    0    0 -0.41757365368E-02  0.98592399810E-01  0.26440711379E-01  0.10216296009E+00  0.51100000000E-03 0.  1.
</event>
<event>
 8    1  0.1099478E+005  0.1043930E+01  0.7957747E-01            NaN
         13   -1    0    0    0    0  0.00000000000E+00  0.00000000000E+00  0.74505805969E-08  0.10566000000E+00  0.10566000000E+00 0.  1.
     999900   -1    0    0    0    0 -0.00000000000E+00 -0.00000000000E+00 -0.74505805969E-08  0.93827000000E+00  0.93827000000E+00 0. -1.
     999902    2    1    2    0    0 -0.10387170440E-01  0.12013840321E-01 -0.16945369548E-01  0.10207056331E+01  0.10204413840E+01 0.  0.
     999903    2    3    3    0    0 -0.91869884049E-02 -0.12080506576E+00  0.41054598234E-01  0.12885009630E+00  0.15446766988E-01 0.  0.
         14    1    1    2    0    0  0.10387170440E-01 -0.12013840321E-01  0.16945369548E-01  0.23224366905E-01  0.00000000000E+00 0.  1.
     999901    1    3    3    0    0 -0.12001820354E-02  0.13281890608E+00 -0.57999967783E-01  0.89185553680E+00  0.88000000000E+00 0. -1.
        -11    1    4    4    0    0 -0.10203480618E-01 -0.74885538162E-01  0.31783008604E-01  0.81990094520E-01  0.51100000000E-03 0. -1.
         11    1    4    4    0    0  0.10164922133E-02 -0.45919527600E-01  0.92715896303E-02  0.46860001779E-01  0.51100000000E-03 0.  1.
</event>
<event>
 8    1  0.1099478E+005  0.1043930E+01  0.7957747E-01            NaN
         13   -1    0    0    0    0  0.00000000000E+00  0.00000000000E+00  0.74505805969E-08  0.10566000000E+00  0.10566000000E+00 0. -1.
     999900   -1    0    0    0    0 -0.00000000000E+00 -0.00000000000E+00 -0.74505805969E-08  0.93827000000E+00  0.93827000000E+00 0. -1.
     999902    2    1    2    0    0 -0.18172072713E-01 -0.41767116709E-02  0.13057432218E-01  0.10211667471E+01  0.10209130030E+01 0.  0.
     999903    2    3    3    0    0  0.12761122017E-01  0.74537398780E-01  0.10660493880E+00  0.13217635923E+00  0.19680114593E-01 0.  0.
         14    1    1    2    0    0  0.18172072713E-01  0.41767116709E-02 -0.13057432218E-01  0.22763252913E-01  0.00000000000E+00 0. -1.
     999901    1    3    3    0    0 -0.30933194730E-01 -0.78714110451E-01 -0.93547506580E-01  0.88899038786E+00  0.88000000000E+00 0.  1.
        -11    1    4    4    0    0 -0.28755979674E-02  0.40564678510E-01  0.58303902482E-01  0.71087047849E-01  0.51100000000E-03 0.  1.
         11    1    4    4    0    0  0.15636719985E-01  0.33972720270E-01  0.48301036316E-01  0.61089311377E-01  0.51100000000E-03 0. -1.
</event>
<event>
 8    1  0.1099478E+005  0.1043930E+01  0.7957747E-01            NaN
         13   -1    0    0    0    0  0.00000000000E+00  0.00000000000E+00  0.74505805969E-08  0.10566000000E+00  0.10566000000E+00 0. -1.
     999900   -1    0    0    0    0 -0.00000000000E+00 -0.00000000000E+00 -0.74505805969E-08  0.93827000000E+00  0.93827000000E+00 0. -1.
     999902    2    1    2    0    0 -0.10311968336E-01 -0.12274005328E-01  0.19068127063E-01  0.10190185294E+01  0.10187139843E+01 0.  0.
     999903    2    3    3    0    0  0.94343026330E-01  0.83126380160E-01  0.10727799067E-01  0.12765807339E+00  0.19258669075E-01 0.  0.
         14    1    1    2    0    0  0.10311968336E-01  0.12274005328E-01 -0.19068127063E-01  0.24911470600E-01  0.00000000000E+00 0.  1.
     999901    1    3    3    0    0 -0.10465499467E+00 -0.95400385488E-01  0.83403279962E-02  0.89136045601E+00  0.88000000000E+00 0. -1.
        -11    1    4    4    0    0  0.56531323493E-01  0.56699747408E-01  0.14498100601E-01  0.81370190697E-01  0.51100000000E-03 0. -1.
         11    1    4    4    0    0  0.37811702837E-01  0.26426632751E-01 -0.37703015339E-02  0.46287882698E-01  0.51100000000E-03 0.  1.
</event>
<event>
 8    1  0.1099478E+005  0.1043930E+01  0.7957747E-01            NaN
         13   -1    0    0    0    0  0.00000000000E+00  0.00000000000E+00  0.74505805969E-08  0.10566000000E+00  0.10566000000E+00 0.  1.
     999900   -1    0    0    0    0 -0.00000000000E+00 -0.00000000000E+00 -0.74505805969E-08  0.93827000000E+00  0.93827000000E+00 0.  1.
     999902    2    1    2    0    0  0.14571545687E-01  0.17855016813E-01 -0.66027601790E-02  0.10199565144E+01  0.10196747341E+01 0.  0.
     999903    2    3    3    0    0  0.12902544239E+00 -0.18016398468E-01  0.77212097573E-02  0.13170450681E+00  0.17728638865E-01 0.  0.
         14    1    1    2    0    0 -0.14571545687E-01 -0.17855016813E-01  0.66027601790E-02  0.23973485585E-01  0.00000000000E+00 0. -1.
     999901    1    3    3    0    0 -0.11445389670E+00  0.35871415281E-01 -0.14323969936E-01  0.88825200761E+00  0.88000000000E+00 0.  1.
        -11    1    4    4    0    0  0.99681272177E-01 -0.21171069199E-01  0.75651916765E-02  0.10218641514E+00  0.51100000000E-03 0. -1.
         11    1    4    4    0    0  0.29344170212E-01  0.31546707310E-02  0.15601808082E-03  0.29518091664E-01  0.51100000000E-03 0.  1.
</event>
<event>
 8    1  0.1099478E+005  0.1043930E+01  0.7957747E-01            NaN
         13   -1    0    0    0    0  0.00000000000E+00  0.00000000000E+00  0.74505805969E-08  0.10566000000E+00  0.10566000000E+00 0. -1.
     999900   -1    0    0    0    0 -0.00000000000E+00 -0.00000000000E+00 -0.74505805969E-08  0.93827000000E+00  0.93827000000E+00 0.  1.
     999902    2    1    2    0    0 -0.19205189552E-01  0.11382855271E-01 -0.75327795542E-02  0.10203683475E+01  0.10200962764E+01 0.  0.
     999903    2    3    3    0    0  0.10755702306E+00 -0.57865994887E-01  0.31550732586E-01  0.12773651820E+00  0.20104297550E-01 0.  0.
         14    1    1    2    0    0  0.19205189552E-01 -0.11382855271E-01  0.75327795542E-02  0.23561652482E-01  0.00000000000E+00 0. -1.
     999901    1    3    3    0    0 -0.12676221262E+00  0.69248850158E-01 -0.39083512140E-01  0.89263182932E+00  0.88000000000E+00 0.  1.
        -11    1    4    4    0    0  0.36252758366E-01 -0.25496913523E-01  0.19820324931E-01  0.48553696973E-01  0.51100000000E-03 0.  1.
         11    1    4    4    0    0  0.71304264697E-01 -0.32369081364E-01  0.11730407655E-01  0.79182821224E-01  0.51100000000E-03 0. -1.
</event>
<event>
 8    1  0.1099478E+005  0.1043930E+01  0.7957747E-01            NaN
         13   -1    0    0    0    0  0.00000000000E+00  0.00000000000E+00  0.74505805969E-08  0.10566000000E+00  0.10566000000E+00 0. -1.
     999900   -1    0    0    0    0 -0.00000000000E+00 -0.00000000000E+00 -0.74505805969E-08  0.93827000000E+00  0.93827000000E+00 0. -1.
     999902    2    1    2    0    0  0.14081608473E-01  0.84055252700E-02 -0.16521500195E-01  0.10206511572E+01  0.10203856527E+01 0.  0.
     999903    2    3    3    0    0 -0.10456225941E+00  0.23781666673E-01  0.67959517331E-01  0.12854699546E+00  0.20174248047E-01 0.  0.
         14    1    1    2    0    0 -0.14081608473E-01 -0.84055252700E-02  0.16521500195E-01  0.23278842775E-01  0.00000000000E+00 0. -1.
     999901    1    3    3    0    0  0.11864386788E+00 -0.15376141403E-01 -0.84481017525E-01  0.89210416176E+00  0.88000000000E+00 0. -1.
        -11    1    4    4    0    0 -0.74231800689E-01  0.88184465147E-02  0.52550464723E-01  0.91377993500E-01  0.51100000000E-03 0.  1.
         11    1    4    4    0    0 -0.30330458720E-01  0.14963220158E-01  0.15409052608E-01  0.37169001963E-01  0.51100000000E-03 0. -1.
</event>
<event>
 8    1  0.1099478E+005  0.1043930E+01  0.7957747E-01            NaN
         13   -1    0    0    0    0  0.00000000000E+00  0.00000000000E+00  0.74505805969E-08  0.10566000000E+00  0.10566000000E+00 0. -1.
     999900   -1    0    0    0    0 -0.00000000000E+00 -0.00000000000E+00 -0.74505805969E-08  0.93827000000E+00  0.93827000000E+00 0. -1.
     999902    2    1    2    0    0 -0.15984255514E-01 -0.41826075806E-02  0.16095478881E-01  0.10208636810E+01  0.10206030571E+01 0.  0.
     999903    2    3    3    0    0  0.93352433417E-01 -0.29999711891E-01 -0.80536795997E-01  0.12847428678E+00  0.20119823943E-01 0.  0.
         14    1    1    2    0    0  0.15984255514E-01  0.41826075806E-02 -0.16095478881E-01  0.23066318972E-01  0.00000000000E+00 0. -1.
     999901    1    3    3    0    0 -0.10933668893E+00  0.25817104310E-01  0.96632274878E-01  0.89238939425E+00  0.88000000000E+00 0.  1.
        -11    1    4    4    0    0  0.78914598000E-01 -0.18355706793E-01 -0.60162610411E-01  0.10091702811E+00  0.51100000000E-03 0.  1.
         11    1    4    4    0    0  0.14437835417E-01 -0.11644005098E-01 -0.20374185586E-01  0.27557258672E-01  0.51100000000E-03 0. -1.
</event>
<event>
 8    1  0.1099478E+005  0.1043930E+01  0.7957747E-01            NaN
         13   -1    0    0    0    0  0.00000000000E+00  0.00000000000E+00  0.74505805969E-08  0.10566000000E+00  0.10566000000E+00 0.  1.
     999900   -1    0    0    0    0 -0.00000000000E+00 -0.00000000000E+00 -0.74505805969E-08  0.93827000000E+00  0.93827000000E+00 0. -1.
     999902    2    1    2    0    0  0.21240102133E-01  0.12872710271E-01 -0.24651818287E-02  0.10189715199E+01  0.10186658101E+01 0.  0.
     999903    2    3    3    0    0  0.12121999231E+00  0.50396494940E-01 -0.52195825651E-02  0.13251136873E+00  0.17260520358E-01 0.  0.
         14    1    1    2    0    0 -0.21240102133E-01 -0.12872710271E-01  0.24651818287E-02  0.24958480117E-01  0.00000000000E+00 0.  1.
     999901    1    3    3    0    0 -0.99979890177E-01 -0.37523784670E-01  0.27544007365E-02  0.88646015115E+00  0.88000000000E+00 0.  1.
        -11    1    4    4    0    0  0.20701433192E-01  0.76077775335E-02 -0.73184690937E-02  0.23243251194E-01  0.51100000000E-03 0.  1.
         11    1    4    4    0    0  0.10051855912E+00  0.42788717407E-01  0.20988865286E-02  0.10926811754E+00  0.51100000000E-03 0. -1.
</event>
<event>
 8    1  0.1099478E+005  0.1043930E+01  0.7957747E-01            NaN
         13   -1    0    0    0    0  0.00000000000E+00  0.00000000000E+00  0.74505805969E-08  0.10566000000E+00  0.10566000000E+00 0. -1.
     999900   -1    0    0    0    0 -0.00000000000E+00 -0.00000000000E+00 -0.74505805969E-08  0.93827000000E+00  0.93827000000E+00 0.  1.
     999902    2    1    2    0    0  0.20604020292E-01 -0.94857220784E-02  0.61786241976E-02  0.10204208534E+01  0.10201500077E+01 0.  0.
     999903    2    3    3    0    0 -0.97287567323E-01  0.41477344222E-01  0.70675104458E-01  0.12876203049E+00  0.19986226924E-01 0.  0.
         14    1    1    2    0    0 -0.20604020292E-01  0.94857220784E-02 -0.61786241976E-02  0.23509146571E-01  0.00000000000E+00 0.  1.
     999901    1    3    3    0    0  0.11789158761E+00 -0.50963066300E-01 -0.64496480261E-01  0.89165882294E+00  0.88000000000E+00 0.  1.
        -11    1    4    4    0    0 -0.59260402263E-01  0.15611397605E-01  0.45510502412E-01  0.76334644575E-01  0.51100000000E-03 0.  1.
         11    1    4    4    0    0 -0.38027165060E-01  0.25865946616E-01  0.25164602047E-01  0.52427385916E-01  0.51100000000E-03 0. -1.
</event>
<event>
 8    1  0.1099478E+005  0.1043930E+01  0.7957747E-01            NaN
         13   -1    0    0    0    0  0.00000000000E+00  0.00000000000E+00  0.74505805969E-08  0.10566000000E+00  0.10566000000E+00 0. -1.
     999900   -1    0    0    0    0 -0.00000000000E+00 -0.00000000000E+00 -0.74505805969E-08  0.93827000000E+00  0.93827000000E+00 0. -1.
     999902    2    1    2    0    0 -0.18003297026E-01 -0.36761309631E-02  0.12215030448E-01  0.10218655578E+01  0.10216273188E+01 0.  0.
     999903    2    3    3    0    0  0.99489086180E-01 -0.60920941285E-01  0.54783368455E-01  0.13119530911E+00  0.24526563507E-01 0.  0.
         14    1    1    2    0    0  0.18003297026E-01  0.36761309631E-02 -0.12215030448E-01  0.22064442244E-01  0.00000000000E+00 0.  1.
     999901    1    3    3    0    0 -0.11749238321E+00  0.57244810322E-01 -0.42568338007E-01  0.89067024864E+00  0.88000000000E+00 0.  1.
        -11    1    4    4    0    0  0.45538080500E-01 -0.27249065858E-01  0.11605703545E-01  0.54324781100E-01  0.51100000000E-03 0. -1.
         11    1    4    4    0    0  0.53951005680E-01 -0.33671875428E-01  0.43177664910E-01  0.76870528012E-01  0.51100000000E-03 0.  1.
</event>
<event>
 8    1  0.1099478E+005  0.1043930E+01  0.7957747E-01            NaN
         13   -1    0    0    0    0  0.00000000000E+00  0.00000000000E+00  0.74505805969E-08  0.10566000000E+00  0.10566000000E+00 0.  1.
     999900   -1    0    0    0    0 -0.00000000000E+00 -0.00000000000E+00 -0.74505805969E-08  0.93827000000E+00  0.93827000000E+00 0.  1.
     999902    2    1    2    0    0 -0.97462192266E-02 -0.15785850257E-02 -0.22326628560E-01  0.10195177272E+01  0.10192254103E+01 0.  0.
     999903    2    3    3    0    0 -0.10699374676E+00 -0.36872965087E-01  0.59809542289E-01  0.12965867914E+00  0.20661905206E-01 0.  0.
         14    1    1    2    0    0  0.97462192266E-02  0.15785850257E-02  0.22326628560E-01  0.24412272789E-01  0.00000000000E+00 0.  1.
     999901    1    3    3    0    0  0.97247527534E-01  0.35294380061E-01 -0.82136170849E-01  0.88985904807E+00  0.88000000000E+00 0.  1.
        -11    1    4    4    0    0 -0.36821093104E-01 -0.22509242966E-01  0.18370883278E-01  0.46906389647E-01  0.51100000000E-03 0.  1.
         11    1    4    4    0    0 -0.70172653657E-01 -0.14363722121E-01  0.41438659011E-01  0.82752289491E-01  0.51100000000E-03 0. -1.
</event>
<event>
 8    1  0.1099478E+005  0.1043930E+01  0.7957747E-01            NaN
         13   -1    0    0    0    0  0.00000000000E+00  0.00000000000E+00  0.74505805969E-08  0.10566000000E+00  0.10566000000E+00 0. -1.
     999900   -1    0    0    0    0 -0.00000000000E+00 -0.00000000000E+00 -0.74505805969E-08  0.93827000000E+00  0.93827000000E+00 0. -1.
     999902    2    1    2    0    0 -0.11280085357E-01  0.18528778181E-01  0.89619108863E-02  0.10204593419E+01  0.10201893925E+01 0.  0.
     999903    2    3    3    0    0 -0.41672674708E-01 -0.10086607970E+00  0.68490813159E-01  0.12988507108E+00  0.16387872086E-01 0.  0.
         14    1    1    2    0    0  0.11280085357E-01 -0.18528778181E-01 -0.89619108863E-02  0.23470658134E-01  0.00000000000E+00 0.  1.
     999901    1    3    3    0    0  0.30392589351E-01  0.11939485788E+00 -0.59528902273E-01  0.89057427078E+00  0.88000000000E+00 0. -1.
        -11    1    4    4    0    0 -0.22586874302E-01 -0.48798845052E-01  0.24473652740E-01  0.59082272879E-01  0.51100000000E-03 0. -1.
         11    1    4    4    0    0 -0.19085800405E-01 -0.52067234648E-01  0.44017160419E-01  0.70802798203E-01  0.51100000000E-03 0.  1.
</event>
<event>
 8    1  0.1099478E+005  0.1043930E+01  0.7957747E-01            NaN
         13   -1    0    0    0    0  0.00000000000E+00  0.00000000000E+00  0.74505805969E-08  0.10566000000E+00  0.10566000000E+00 0.  1.
     999900   -1    0    0    0    0 -0.00000000000E+00 -0.00000000000E+00 -0.74505805969E-08  0.93827000000E+00  0.93827000000E+00 0. -1.
     999902    2    1    2    0    0 -0.17627254041E-01 -0.75435610252E-02  0.13122326791E-01  0.10206959548E+01  0.10204314829E+01 0.  0.
     999903    2    3    3    0    0  0.10021342222E+00 -0.72877061756E-01  0.34627418318E-01  0.13018073296E+00  0.19853690101E-01 0.  0.
         14    1    1    2    0    0  0.17627254041E-01  0.75435610252E-02 -0.13122326791E-01  0.23234045243E-01  0.00000000000E+00 0. -1.
     999901    1    3    3    0    0 -0.11784067626E+00  0.65333500731E-01 -0.21505091527E-01  0.89051522180E+00  0.88000000000E+00 0. -1.
        -11    1    4    4    0    0  0.62003158966E-01 -0.38671258459E-01  0.11717106567E-01  0.74009524116E-01  0.51100000000E-03 0.  1.
         11    1    4    4    0    0  0.38210263252E-01 -0.34205803297E-01  0.22910311751E-01  0.56171208839E-01  0.51100000000E-03 0. -1.
</event>
<event>
 8    1  0.1099478E+005  0.1043930E+01  0.7957747E-01            NaN
         13   -1    0    0    0    0  0.00000000000E+00  0.00000000000E+00  0.74505805969E-08  0.10566000000E+00  0.10566000000E+00 0.  1.
     999900   -1    0    0    0    0 -0.00000000000E+00 -0.00000000000E+00 -0.74505805969E-08  0.93827000000E+00  0.93827000000E+00 0.  1.
     999902    2    1    2    0    0 -0.13854488528E-01 -0.15176423967E-01 -0.87644496244E-02  0.10215897611E+01  0.10213454625E+01 0.  0.
     999903    2    3    3    0    0 -0.32822936473E-03 -0.10615401458E+00  0.77594945158E-01  0.13259154583E+00  0.17051685163E-01 0.  0.
         14    1    1    2    0    0  0.13854488528E-01  0.15176423967E-01  0.87644496244E-02  0.22340238898E-01  0.00000000000E+00 0.  1.
     999901    1    3    3    0    0 -0.13526259163E-01  0.90977590612E-01 -0.86359394782E-01  0.88899821527E+00  0.88000000000E+00 0.  1.
        -11    1    4    4    0    0 -0.81778046354E-02 -0.49988291533E-01  0.40063056846E-01  0.64583398981E-01  0.51100000000E-03 0. -1.
         11    1    4    4    0    0  0.78495752706E-02 -0.56165723046E-01  0.37531888312E-01  0.68008146854E-01  0.51100000000E-03 0.  1.
</event>
<event>
 8    1  0.1099478E+005  0.1043930E+01  0.7957747E-01            NaN
         13   -1    0    0    0    0  0.00000000000E+00  0.00000000000E+00  0.74505805969E-08  0.10566000000E+00  0.10566000000E+00 0.  1.
     999900   -1    0    0    0    0 -0.00000000000E+00 -0.00000000000E+00 -0.74505805969E-08  0.93827000000E+00  0.93827000000E+00 0.  1.
     999902    2    1    2    0    0 -0.18162864293E-01  0.43702031434E-02  0.12061722773E-01  0.10216932405E+01  0.10214512246E+01 0.  0.
     999903    2    3    3    0    0  0.82614774185E-01  0.26812115078E-01  0.96840385768E-01  0.13161055139E+00  0.19979651990E-01 0.  0.
         14    1    1    2    0    0  0.18162864293E-01 -0.43702031434E-02 -0.12061722773E-01  0.22236759456E-01  0.00000000000E+00 0.  1.
     999901    1    3    3    0    0 -0.10077763848E+00 -0.22441911934E-01 -0.84778662994E-01  0.89008268915E+00  0.88000000000E+00 0.  1.
        -11    1    4    4    0    0  0.14177409447E-01  0.23752859863E-02  0.68228007746E-02  0.15920196404E-01  0.51100000000E-03 0.  1.
         11    1    4    4    0    0  0.68437364738E-01  0.24436829092E-01  0.90017584993E-01  0.11569035499E+00  0.51100000000E-03 0. -1.
</event>
<event>
 8    1  0.1099478E+005  0.1043930E+01  0.7957747E-01            NaN
         13   -1    0    0    0    0  0.00000000000E+00  0.00000000000E+00  0.74505805969E-08  0.10566000000E+00  0.10566000000E+00 0. -1.
     999900   -1    0    0    0    0 -0.00000000000E+00 -0.00000000000E+00 -0.74505805969E-08  0.93827000000E+00  0.93827000000E+00 0. -1.
     999902    2    1    2    0    0 -0.17746890609E-01  0.11436151986E-01 -0.11338931102E-01  0.10199652539E+01  0.10196836814E+01 0.  0.
     999903    2    3    3    0    0  0.30113159192E-01 -0.84265894645E-02  0.12214439206E+00  0.12839197565E+00  0.24237102410E-01 0.  0.
         14    1    1    2    0    0  0.17746890609E-01 -0.11436151986E-01  0.11338931102E-01  0.23964746130E-01  0.00000000000E+00 0. -1.
     999901    1    3    3    0    0 -0.47860049800E-01  0.19862741451E-01 -0.13348332317E+00  0.89157327822E+00  0.88000000000E+00 0. -1.
        -11    1    4    4    0    0  0.15629962014E-01 -0.78050993841E-02  0.10246140444E+00  0.10394140566E+00  0.51100000000E-03 0.  1.
         11    1    4    4    0    0  0.14483197177E-01 -0.62149008050E-03  0.19682987621E-01  0.24450569995E-01  0.51100000000E-03 0. -1.
</event>
<event>
 8    1  0.1099478E+005  0.1043930E+01  0.7957747E-01            NaN
         13   -1    0    0    0    0  0.00000000000E+00  0.00000000000E+00  0.74505805969E-08  0.10566000000E+00  0.10566000000E+00 0.  1.
     999900   -1    0    0    0    0 -0.00000000000E+00 -0.00000000000E+00 -0.74505805969E-08  0.93827000000E+00  0.93827000000E+00 0.  1.
     999902    2    1    2    0    0  0.17192053185E-01  0.10476070843E-01  0.13296240469E-01  0.10198031526E+01  0.10195177121E+01 0.  0.
     999903    2    3    3    0    0  0.11920457356E+00 -0.48253745045E-01  0.20426945316E-01  0.13193683807E+00  0.21258289630E-01 0.  0.
         14    1    1    2    0    0 -0.17192053185E-01 -0.10476070843E-01 -0.13296240469E-01  0.24126847362E-01  0.00000000000E+00 0. -1.
     999901    1    3    3    0    0 -0.10201252037E+00  0.58729815888E-01 -0.71307048470E-02  0.88786631456E+00  0.88000000000E+00 0. -1.
        -11    1    4    4    0    0  0.61519778967E-01 -0.13640283424E-01  0.11801189669E-01  0.64111385375E-01  0.51100000000E-03 0. -1.
         11    1    4    4    0    0  0.57684794590E-01 -0.34613461621E-01  0.86257556471E-02  0.67825452698E-01  0.51100000000E-03 0.  1.
</event>
<event>
 8    1  0.1099478E+005  0.1043930E+01  0.7957747E-01            NaN
         13   -1    0    0    0    0  0.00000000000E+00  0.00000000000E+00  0.74505805969E-08  0.10566000000E+00  0.10566000000E+00 0.  1.
     999900   -1    0    0    0    0 -0.00000000000E+00 -0.00000000000E+00 -0.74505805969E-08  0.93827000000E+00  0.93827000000E+00 0. -1.
     999902    2    1    2    0    0  0.40046872164E-02  0.22207980747E-01  0.80540908867E-02  0.10199696096E+01  0.10196881406E+01 0.  0.
     999903    2    3    3    0    0 -0.73496771005E-01 -0.98498340640E-01 -0.27627600364E-01  0.12764137674E+00  0.20623731417E-01 0.  0.
         14    1    1    2    0    0 -0.40046872164E-02 -0.22207980747E-01 -0.80540908867E-02  0.23960390409E-01  0.00000000000E+00 0.  1.
     999901    1    3    3    0    0  0.77501458221E-01  0.12070632139E+00  0.35681691251E-01  0.89232823285E+00  0.88000000000E+00 0.  1.
        -11    1    4    4    0    0 -0.29069485541E-01 -0.33463604033E-01 -0.48240673467E-03  0.44332173664E-01  0.51100000000E-03 0. -1.
         11    1    4    4    0    0 -0.44427285463E-01 -0.65034736607E-01 -0.27145193630E-01  0.83309203078E-01  0.51100000000E-03 0.  1.
</event>
<event>
 8    1  0.1099478E+005  0.1043930E+01  0.7957747E-01            NaN
         13   -1    0    0    0    0  0.00000000000E+00  0.00000000000E+00  0.74505805969E-08  0.10566000000E+00  0.10566000000E+00 0. -1.
     999900   -1    0    0    0    0 -0.00000000000E+00 -0.00000000000E+00 -0.74505805969E-08  0.93827000000E+00  0.93827000000E+00 0.  1.
     999902    2    1    2    0    0 -0.82611702971E-02  0.91420739971E-02 -0.25447014374E-01  0.10156567796E+01  0.10152631772E+01 0.  0.
     999903    2    3    3    0    0 -0.66063724797E-01  0.35568460597E-01  0.98285972952E-01  0.12473066517E+00  0.16373003087E-01 0.  0.
         14    1    1    2    0    0  0.82611702971E-02 -0.91420739971E-02  0.25447014374E-01  0.28273220408E-01  0.00000000000E+00 0. -1.
     999901    1    3    3    0    0  0.57802554500E-01 -0.26426386600E-01 -0.12373298733E+00  0.89092611443E+00  0.88000000000E+00 0. -1.
        -11    1    4    4    0    0 -0.37055738804E-01  0.10990016322E-01  0.46098947061E-01  0.60160471060E-01  0.51100000000E-03 0. -1.
         11    1    4    4    0    0 -0.29007985993E-01  0.24578444275E-01  0.52187025892E-01  0.64570194105E-01  0.51100000000E-03 0.  1.
</event>
<event>
 8    1  0.1099478E+005  0.1043930E+01  0.7957747E-01            NaN
         13   -1    0    0    0    0  0.00000000000E+00  0.00000000000E+00  0.74505805969E-08  0.10566000000E+00  0.10566000000E+00 0. -1.
     999900   -1    0    0    0    0 -0.00000000000E+00 -0.00000000000E+00 -0.74505805969E-08  0.93827000000E+00  0.93827000000E+00 0.  1.
     999902    2    1    2    0    0  0.32546677323E-02  0.14710498664E-01  0.17126286694E-01  0.10211198854E+01  0.10208650836E+01 0.  0.
     999903    2    3    3    0    0  0.21745009094E-01  0.14306238428E-02 -0.12583098552E+00  0.12929309195E+00  0.20208280593E-01 0.  0.
         14    1    1    2    0    0 -0.32546677323E-02 -0.14710498664E-01 -0.17126286694E-01  0.22810114619E-01  0.00000000000E+00 0.  1.
     999901    1    3    3    0    0 -0.18490341361E-01  0.13279874821E-01  0.14295727221E+00  0.89182679343E+00  0.88000000000E+00 0. -1.
        -11    1    4    4    0    0  0.20330487278E-01 -0.48332237097E-02 -0.11320471735E+00  0.11511845167E+00  0.51100000000E-03 0. -1.
         11    1    4    4    0    0  0.14145218155E-02  0.62638475525E-02 -0.12626268171E-01  0.14174640279E-01  0.51100000000E-03 0.  1.
</event>
<event>
 8    1  0.1099478E+005  0.1043930E+01  0.7957747E-01            NaN
         13   -1    0    0    0    0  0.00000000000E+00  0.00000000000E+00  0.74505805969E-08  0.10566000000E+00  0.10566000000E+00 0.  1.
     999900   -1    0    0    0    0 -0.00000000000E+00 -0.00000000000E+00 -0.74505805969E-08  0.93827000000E+00  0.93827000000E+00 0.  1.
     999902    2    1    2    0    0  0.17331508919E-01  0.41797294530E-02  0.17387710783E-01  0.10190265098E+01  0.10187221622E+01 0.  0.
     999903    2    3    3    0    0  0.48264769538E-01 -0.24976461389E-01  0.11907378938E+00  0.13215165464E+00  0.18225830682E-01 0.  0.
         14    1    1    2    0    0 -0.17331508919E-01 -0.41797294530E-02 -0.17387710783E-01  0.24903490238E-01  0.00000000000E+00 0. -1.
     999901    1    3    3    0    0 -0.30933260618E-01  0.29156190842E-01 -0.10168607859E+00  0.88687485513E+00  0.88000000000E+00 0.  1.
        -11    1    4    4    0    0  0.16015975252E-01 -0.82010302023E-04  0.42363256886E-01  0.45292657727E-01  0.51100000000E-03 0. -1.
         11    1    4    4    0    0  0.32248794285E-01 -0.24894451087E-01  0.76710532491E-01  0.86858996908E-01  0.51100000000E-03 0.  1.
</event>
<event>
 8    1  0.1099478E+005  0.1043930E+01  0.7957747E-01            NaN
         13   -1    0    0    0    0  0.00000000000E+00  0.00000000000E+00  0.74505805969E-08  0.10566000000E+00  0.10566000000E+00 0.  1.
     999900   -1    0    0    0    0 -0.00000000000E+00 -0.00000000000E+00 -0.74505805969E-08  0.93827000000E+00  0.93827000000E+00 0.  1.
     999902    2    1    2    0    0  0.14958418567E-01  0.75802495202E-02 -0.24600486186E-01  0.10141575565E+01  0.10137204502E+01 0.  0.
     999903    2    3    3    0    0 -0.61046351542E-01 -0.67728053018E-01  0.77897148376E-01  0.12177096397E+00  0.21129499263E-01 0.  0.
         14    1    1    2    0    0 -0.14958418567E-01 -0.75802495202E-02  0.24600486186E-01  0.29772443457E-01  0.00000000000E+00 0.  1.
     999901    1    3    3    0    0  0.76004770110E-01  0.75308302538E-01 -0.10249763456E+00  0.89238659257E+00  0.88000000000E+00 0. -1.
        -11    1    4    4    0    0 -0.36577006711E-01 -0.43039103054E-01  0.60940301912E-01  0.83091656198E-01  0.51100000000E-03 0. -1.
         11    1    4    4    0    0 -0.24469344831E-01 -0.24688949963E-01  0.16956846464E-01  0.38679307773E-01  0.51100000000E-03 0.  1.
</event>
<event>
 8    1  0.1312156E+005  0.1043930E+01  0.7957747E-01            NaN
         13   -1    0    0    0    0  0.00000000000E+00  0.00000000000E+00  0.74505805969E-08  0.10566000000E+00  0.10566000000E+00 0. -1.
     999900   -1    0    0    0    0 -0.00000000000E+00 -0.00000000000E+00 -0.74505805969E-08  0.93827000000E+00  0.93827000000E+00 0.  1.
     999902    2    1    2    0    0  0.11107388869E-01  0.77501117576E-02 -0.21313714208E-01  0.10186770253E+01  0.10183639669E+01 0.  0.
     999903    2    3    3    0    0 -0.78938721901E-02  0.90909574891E-01  0.87209724069E-01  0.12791674276E+00  0.20743506961E-01 0.  0.
         14    1    1    2    0    0 -0.11107388869E-01 -0.77501117576E-02  0.21313714208E-01  0.25252974737E-01  0.00000000000E+00 0. -1.
     999901    1    3    3    0    0  0.19001261059E-01 -0.83159463133E-01 -0.10852343828E+00  0.89076028250E+00  0.88000000000E+00 0. -1.
        -11    1    4    4    0    0  0.64568189940E-02  0.40895726862E-01  0.42130743995E-01  0.59071242561E-01  0.51100000000E-03 0. -1.
         11    1    4    4    0    0 -0.14350691184E-01  0.50013848029E-01  0.45078980074E-01  0.68845500199E-01  0.51100000000E-03 0.  1.
</event>
<event>
 8    1  0.1099478E+005  0.1043930E+01  0.7957747E-01            NaN
         13   -1    0    0    0    0  0.00000000000E+00  0.00000000000E+00  0.74505805969E-08  0.10566000000E+00  0.10566000000E+00 0.  1.
     999900   -1    0    0    0    0 -0.00000000000E+00 -0.00000000000E+00 -0.74505805969E-08  0.93827000000E+00  0.93827000000E+00 0.  1.
     999902    2    1    2    0    0 -0.51247888748E-02  0.56286275094E-02 -0.24238138849E-01  0.10185246407E+01  0.10182077447E+01 0.  0.
     999903    2    3    3    0    0 -0.78721436467E-02  0.11416330329E+00  0.54430998845E-01  0.12836950977E+00  0.20512604431E-01 0.  0.
         14    1    1    2    0    0  0.51247888748E-02 -0.56286275094E-02  0.24238138849E-01  0.25405359347E-01  0.00000000000E+00 0.  1.
     999901    1    3    3    0    0  0.27473547719E-02 -0.10853467578E+00 -0.78669137695E-01  0.89015513088E+00  0.88000000000E+00 0.  1.
        -11    1    4    4    0    0 -0.97137951038E-03  0.45011040861E-01  0.32375820011E-01  0.55456218947E-01  0.51100000000E-03 0. -1.
         11    1    4    4    0    0 -0.69007641364E-02  0.69152262429E-01  0.22055178834E-01  0.72913290827E-01  0.51100000000E-03 0.  1.
</event>
<event>
 8    1  0.1099478E+005  0.1043930E+01  0.7957747E-01            NaN
         13   -1    0    0    0    0  0.00000000000E+00  0.00000000000E+00  0.74505805969E-08  0.10566000000E+00  0.10566000000E+00 0.  1.
     999900   -1    0    0    0    0 -0.00000000000E+00 -0.00000000000E+00 -0.74505805969E-08  0.93827000000E+00  0.93827000000E+00 0. -1.
     999902    2    1    2    0    0 -0.15793477930E-01  0.64478525292E-02 -0.14074537555E-01  0.10218143640E+01  0.10215750061E+01 0.  0.
     999903    2    3    3    0    0  0.12210763290E+00  0.38802232005E-01 -0.13850970077E-01  0.13048750354E+00  0.20475643734E-01 0.  0.
         14    1    1    2    0    0  0.15793477930E-01 -0.64478525292E-02  0.14074537555E-01  0.22115635979E-01  0.00000000000E+00 0.  1.
     999901    1    3    3    0    0 -0.13790111083E+00 -0.32354379476E-01 -0.22356747791E-03  0.89132686048E+00  0.88000000000E+00 0.  1.
        -11    1    4    4    0    0  0.45961786198E-01  0.56105452903E-02 -0.97381552046E-02  0.47318672813E-01  0.51100000000E-03 0. -1.
         11    1    4    4    0    0  0.76145846701E-01  0.33191686715E-01 -0.41128148725E-02  0.83168830724E-01  0.51100000000E-03 0.  1.
</event>
<event>
 8    1  0.1099478E+005  0.1043930E+01  0.7957747E-01            NaN
         13   -1    0    0    0    0  0.00000000000E+00  0.00000000000E+00  0.74505805969E-08  0.10566000000E+00  0.10566000000E+00 0. -1.
     999900   -1    0    0    0    0 -0.00000000000E+00 -0.00000000000E+00 -0.74505805969E-08  0.93827000000E+00  0.93827000000E+00 0. -1.
     999902    2    1    2    0    0 -0.24360687551E-01 -0.61853463600E-02 -0.11990269675E-02  0.10187677411E+01  0.10184569559E+01 0.  0.
     999903    2    3    3    0    0  0.73003919613E-01 -0.92898120924E-01 -0.45502397688E-01  0.12805916886E+00  0.19210658054E-01 0.  0.
         14    1    1    2    0    0  0.24360687551E-01  0.61853463600E-02  0.11990269675E-02  0.25162258905E-01  0.00000000000E+00 0.  1.
     999901    1    3    3    0    0 -0.97364607164E-01  0.86712774564E-01  0.44303370721E-01  0.89070857224E+00  0.88000000000E+00 0. -1.
        -11    1    4    4    0    0  0.35515068237E-01 -0.31329731615E-01 -0.13974229347E-01  0.49380283128E-01  0.51100000000E-03 0. -1.
         11    1    4    4    0    0  0.37488851376E-01 -0.61568389309E-01 -0.31528168341E-01  0.78678885729E-01  0.51100000000E-03 0.  1.
</event>
<event>
 8    1  0.1099478E+005  0.1043930E+01  0.7957747E-01            NaN
         13   -1    0    0    0    0  0.00000000000E+00  0.00000000000E+00  0.74505805969E-08  0.10566000000E+00  0.10566000000E+00 0.  1.
     999900   -1    0    0    0    0 -0.00000000000E+00 -0.00000000000E+00 -0.74505805969E-08  0.93827000000E+00  0.93827000000E+00 0.  1.
     999902    2    1    2    0    0  0.76239550905E-02 -0.21348474941E-01  0.27220722233E-02  0.10210981856E+01  0.10208428933E+01 0.  0.
     999903    2    3    3    0    0  0.12775300504E+00  0.25663509212E-01 -0.13489113243E-01  0.13154553516E+00  0.11950968281E-01 0.  0.
         14    1    1    2    0    0 -0.76239550905E-02  0.21348474941E-01 -0.27220722233E-02  0.22831814442E-01  0.00000000000E+00 0. -1.
     999901    1    3    3    0    0 -0.12012904995E+00 -0.47011984153E-01  0.16211185466E-01  0.88955265040E+00  0.88000000000E+00 0.  1.
        -11    1    4    4    0    0  0.68917938877E-01  0.96129162411E-02 -0.29124350140E-02  0.69647927869E-01  0.51100000000E-03 0.  1.
         11    1    4    4    0    0  0.58835066162E-01  0.16050592971E-01 -0.10576678229E-01  0.61897607291E-01  0.51100000000E-03 0. -1.
</event>
<event>
 8    1  0.1099567E+005  0.1043930E+01  0.7957747E-01            NaN
         13   -1    0    0    0    0  0.00000000000E+00  0.00000000000E+00  0.74505805969E-08  0.10566000000E+00  0.10566000000E+00 0. -1.
     999900   -1    0    0    0    0 -0.00000000000E+00 -0.00000000000E+00 -0.74505805969E-08  0.93827000000E+00  0.93827000000E+00 0.  1.
     999902    2    1    2    0    0  0.18580942324E-01  0.14053858726E-01 -0.39416299986E-02  0.10203016524E+01  0.10200280207E+01 0.  0.
     999903    2    3    3    0    0  0.82691040673E-01 -0.98294990546E-01 -0.14557057841E-01  0.13078208773E+00  0.19807401744E-01 0.  0.
         14    1    1    2    0    0 -0.18580942324E-01 -0.14053858726E-01  0.39416299986E-02  0.23628347589E-01  0.00000000000E+00 0.  1.
     999901    1    3    3    0    0 -0.64110098349E-01  0.11234884927E+00  0.10615427842E-01  0.88951956468E+00  0.88000000000E+00 0.  1.
        -11    1    4    4    0    0  0.38898523582E-01 -0.40658385320E-01  0.28046139581E-02  0.56341160923E-01  0.51100000000E-03 0. -1.
         11    1    4    4    0    0  0.43792517091E-01 -0.57636605226E-01 -0.17361671799E-01  0.74440926807E-01  0.51100000000E-03 0.  1.
</event>
<event>
 8    1  0.1099478E+005  0.1043930E+01  0.7957747E-01            NaN
         13   -1    0    0    0    0  0.00000000000E+00  0.00000000000E+00  0.74505805969E-08  0.10566000000E+00  0.10566000000E+00 0. -1.
     999900   -1    0    0    0    0 -0.00000000000E+00 -0.00000000000E+00 -0.74505805969E-08  0.93827000000E+00  0.93827000000E+00 0.  1.
     999902    2    1    2    0    0 -0.74336397652E-02  0.87632653928E-02  0.19895415512E-01  0.10209543307E+01  0.10206957745E+01 0.  0.
     999903    2    3    3    0    0  0.68462764281E-01  0.13854701700E-01  0.11135749650E+00  0.13295010825E+00  0.19903175739E-01 0.  0.
         14    1    1    2    0    0  0.74336397652E-02 -0.87632653928E-02 -0.19895415512E-01  0.22975669280E-01  0.00000000000E+00 0.  1.
     999901    1    3    3    0    0 -0.75896404046E-01 -0.50914363076E-02 -0.91462080986E-01  0.88800422247E+00  0.88000000000E+00 0.  1.
        -11    1    4    4    0    0  0.46981086863E-01  0.83604860571E-02  0.91424320890E-01  0.10312995598E+00  0.51100000000E-03 0.  1.
         11    1    4    4    0    0  0.21481677418E-01  0.54942156433E-02  0.19933175607E-01  0.29820152263E-01  0.51100000000E-03 0. -1.
</event>
<event>
 8    1  0.1099478E+005  0.1043930E+01  0.7957747E-01            NaN
         13   -1    0    0    0    0  0.00000000000E+00  0.00000000000E+00  0.74505805969E-08  0.10566000000E+00  0.10566000000E+00 0.  1.
     999900   -1    0    0    0    0 -0.00000000000E+00 -0.00000000000E+00 -0.74505805969E-08  0.93827000000E+00  0.93827000000E+00 0.  1.
     999902    2    1    2    0    0  0.21875182766E-01  0.78831861614E-02  0.20008053537E-02  0.10205918024E+01  0.10203249265E+01 0.  0.
     999903    2    3    3    0    0 -0.32043022217E-01 -0.48030617961E-02 -0.12411433516E+00  0.12987684105E+00  0.20342098533E-01 0.  0.
         14    1    1    2    0    0 -0.21875182766E-01 -0.78831861614E-02 -0.20008053537E-02  0.23338197599E-01  0.00000000000E+00 0.  1.
     999901    1    3    3    0    0  0.53918204982E-01  0.12686247958E-01  0.12611514051E+00  0.89071496136E+00  0.88000000000E+00 0. -1.
        -11    1    4    4    0    0 -0.18466942763E-01 -0.32851082913E-04 -0.10076719724E+00  0.10244666034E+00  0.51100000000E-03 0. -1.
         11    1    4    4    0    0 -0.13576079453E-01 -0.47702107132E-02 -0.23347137922E-01  0.27430180709E-01  0.51100000000E-03 0.  1.
</event>
<event>
 8    1  0.1099478E+005  0.1043930E+01  0.7957747E-01            NaN
         13   -1    0    0    0    0  0.00000000000E+00  0.00000000000E+00  0.74505805969E-08  0.10566000000E+00  0.10566000000E+00 0. -1.
     999900   -1    0    0    0    0 -0.00000000000E+00 -0.00000000000E+00 -0.74505805969E-08  0.93827000000E+00  0.93827000000E+00 0.  1.
     999902    2    1    2    0    0 -0.67487986242E-02  0.22075915164E-01  0.35520143252E-04  0.10208455122E+01  0.10205844729E+01 0.  0.
     999903    2    3    3    0    0  0.40486572404E-01  0.36011905639E-01 -0.11827849053E+00  0.13156288157E+00  0.19569634424E-01 0.  0.
         14    1    1    2    0    0  0.67487986242E-02 -0.22075915164E-01 -0.35520143252E-04  0.23084487754E-01  0.00000000000E+00 0.  1.
     999901    1    3    3    0    0 -0.47235371028E-01 -0.13935990476E-01  0.11831401067E+00  0.88928263068E+00  0.88000000000E+00 0. -1.
        -11    1    4    4    0    0  0.14117048361E-02 -0.23570332051E-02 -0.70230257922E-02  0.75586062440E-02  0.51100000000E-03 0.  1.
         11    1    4    4    0    0  0.39074867567E-01  0.38368938845E-01 -0.11125546474E+00  0.12400427532E+00  0.51100000000E-03 0. -1.
</event>
<event>
 8    1  0.1099478E+005  0.1043930E+01  0.7957747E-01            NaN
         13   -1    0    0    0    0  0.00000000000E+00  0.00000000000E+00  0.74505805969E-08  0.10566000000E+00  0.10566000000E+00 0.  1.
     999900   -1    0    0    0    0 -0.00000000000E+00 -0.00000000000E+00 -0.74505805969E-08  0.93827000000E+00  0.93827000000E+00 0.  1.
     999902    2    1    2    0    0  0.91019326562E-02  0.21185185387E-01 -0.23221406192E-02  0.10207556695E+01  0.10204925709E+01 0.  0.
     999903    2    3    3    0    0 -0.10896732504E-01  0.56689182925E-01 -0.11735717147E+00  0.13233373213E+00  0.20176935417E-01 0.  0.
         14    1    1    2    0    0 -0.91019326562E-02 -0.21185185387E-01  0.23221406192E-02  0.23174330519E-01  0.00000000000E+00 0.  1.
     999901    1    3    3    0    0  0.19998665160E-01 -0.35503997538E-01  0.11503503085E+00  0.88842193735E+00  0.88000000000E+00 0. -1.
        -11    1    4    4    0    0 -0.13844534727E-01  0.35911552463E-01 -0.89720648324E-01  0.97628718104E-01  0.51100000000E-03 0.  1.
         11    1    4    4    0    0  0.29478022232E-02  0.20777630463E-01 -0.27636523147E-01  0.34705014022E-01  0.51100000000E-03 0. -1.
</event>
<event>
 8    1  0.1099478E+005  0.1043930E+01  0.7957747E-01            NaN
         13   -1    0    0    0    0  0.00000000000E+00  0.00000000000E+00  0.74505805969E-08  0.10566000000E+00  0.10566000000E+00 0.  1.
     999900   -1    0    0    0    0 -0.00000000000E+00 -0.00000000000E+00 -0.74505805969E-08  0.93827000000E+00  0.93827000000E+00 0.  1.
     999902    2    1    2    0    0  0.14552416491E-01  0.11891818725E-01 -0.15641711831E-01  0.10194790015E+01  0.10191857452E+01 0.  0.
     999903    2    3    3    0    0 -0.36515770282E-01 -0.12046348117E+00  0.93799471431E-02  0.12776606085E+00  0.19782090990E-01 0.  0.
         14    1    1    2    0    0 -0.14552416491E-01 -0.11891818725E-01  0.15641711831E-01  0.24450998493E-01  0.00000000000E+00 0.  1.
     999901    1    3    3    0    0  0.51068186773E-01  0.13235529989E+00 -0.25021658974E-01  0.89171294065E+00  0.88000000000E+00 0. -1.
        -11    1    4    4    0    0 -0.63608487425E-02 -0.88385326583E-02  0.51616854343E-02  0.12061682047E-01  0.51100000000E-03 0.  1.
         11    1    4    4    0    0 -0.30154921540E-01 -0.11162494851E+00  0.42182617087E-02  0.11570437881E+00  0.51100000000E-03 0. -1.
</event>
<event>
 8    1  0.1099478E+005  0.1043930E+01  0.7957747E-01            NaN
         13   -1    0    0    0    0  0.00000000000E+00  0.00000000000E+00  0.74505805969E-08  0.10566000000E+00  0.10566000000E+00 0.  1.
     999900   -1    0    0    0    0 -0.00000000000E+00 -0.00000000000E+00 -0.74505805969E-08  0.93827000000E+00  0.93827000000E+00 0.  1.
     999902    2    1    2    0    0  0.20525805822E-01  0.12661228814E-01 -0.13020209353E-02  0.10197781744E+01  0.10194921355E+01 0.  0.
     999903    2    3    3    0    0  0.32362243478E-01 -0.55396004506E-01 -0.11149540848E+00  0.13021959237E+00  0.20245592301E-01 0.  0.
         14    1    1    2    0    0 -0.20525805822E-01 -0.12661228814E-01  0.13020209353E-02  0.24151825567E-01  0.00000000000E+00 0.  1.
     999901    1    3    3    0    0 -0.11836437656E-01  0.68057233320E-01  0.11019338754E+00  0.88955858206E+00  0.88000000000E+00 0. -1.
        -11    1    4    4    0    0  0.30984469623E-01 -0.34696677909E-01 -0.77668113529E-01  0.90534489538E-01  0.51100000000E-03 0.  1.
         11    1    4    4    0    0  0.13777738551E-02 -0.20699326597E-01 -0.33827294947E-01  0.39685102832E-01  0.51100000000E-03 0. -1.
</event>
<event>
 8    1  0.1099478E+005  0.1043930E+01  0.7957747E-01            NaN
         13   -1    0    0    0    0  0.00000000000E+00  0.00000000000E+00  0.74505805969E-08  0.10566000000E+00  0.10566000000E+00 0.  1.
     999900   -1    0    0    0    0 -0.00000000000E+00 -0.00000000000E+00 -0.74505805969E-08  0.93827000000E+00  0.93827000000E+00 0. -1.
     999902    2    1    2    0    0 -0.96684640428E-02 -0.20922599651E-01  0.74966090030E-02  0.10196929721E+01  0.10194048871E+01 0.  0.
     999903    2    3    3    0    0 -0.10328585150E-01 -0.12801855413E+00 -0.24955907712E-01  0.13260608515E+00  0.21590428786E-01 0.  0.
         14    1    1    2    0    0  0.96684640428E-02  0.20922599651E-01 -0.74966090030E-02  0.24237027864E-01  0.00000000000E+00 0. -1.
     999901    1    3    3    0    0  0.66012110682E-03  0.10709595448E+00  0.32452516715E-01  0.88708688699E+00  0.88000000000E+00 0. -1.
        -11    1    4    4    0    0 -0.16603016108E-01 -0.74028796533E-01 -0.13667437735E-01  0.77090744161E-01  0.51100000000E-03 0. -1.
         11    1    4    4    0    0  0.62744309585E-02 -0.53989757599E-01 -0.11288469978E-01  0.55515340987E-01  0.51100000000E-03 0.  1.
</event>
<event>
 8    1  0.1099478E+005  0.1043930E+01  0.7957747E-01            NaN
         13   -1    0    0    0    0  0.00000000000E+00  0.00000000000E+00  0.74505805969E-08  0.10566000000E+00  0.10566000000E+00 0. -1.
     999900   -1    0    0    0    0 -0.00000000000E+00 -0.00000000000E+00 -0.74505805969E-08  0.93827000000E+00  0.93827000000E+00 0. -1.
     999902    2    1    2    0    0 -0.15770484091E-01 -0.36561008655E-02  0.14645372655E-01  0.10220996958E+01  0.10218665402E+01 0.  0.
     999903    2    3    3    0    0 -0.97710171731E-01 -0.75686136168E-01  0.49787815411E-01  0.13466663933E+00  0.19509185488E-01 0.  0.
         14    1    1    2    0    0  0.15770484091E-01  0.36561008655E-02 -0.14645372655E-01  0.21830304217E-01  0.00000000000E+00 0.  1.
     999901    1    3    3    0    0  0.81939687640E-01  0.72030035302E-01 -0.35142442757E-01  0.88743305645E+00  0.88000000000E+00 0. -1.
        -11    1    4    4    0    0 -0.31809607873E-01 -0.15590598305E-01  0.19714203985E-01  0.40544159485E-01  0.51100000000E-03 0. -1.
         11    1    4    4    0    0 -0.65900563858E-01 -0.60095537862E-01  0.30073611426E-01  0.94122479849E-01  0.51100000000E-03 0.  1.
</event>
<event>
 8    1  0.1099478E+005  0.1043930E+01  0.7957747E-01            NaN
         13   -1    0    0    0    0  0.00000000000E+00  0.00000000000E+00  0.74505805969E-08  0.10566000000E+00  0.10566000000E+00 0. -1.
     999900   -1    0    0    0    0 -0.00000000000E+00 -0.00000000000E+00 -0.74505805969E-08  0.93827000000E+00  0.93827000000E+00 0.  1.
     999902    2    1    2    0    0  0.65344030502E-02 -0.16428989277E-01  0.15751779093E-01  0.10202502902E+01  0.10199754536E+01 0.  0.
     999903    2    3    3    0    0  0.60761974527E-01 -0.11055243521E+00  0.37943095523E-01  0.13329352287E+00  0.20337803729E-01 0.  0.
         14    1    1    2    0    0 -0.65344030502E-02  0.16428989277E-01 -0.15751779093E-01  0.23679709805E-01  0.00000000000E+00 0. -1.
     999901    1    3    3    0    0 -0.54227571477E-01  0.94123445936E-01 -0.22191316430E-01  0.88695676733E+00  0.88000000000E+00 0.  1.
        -11    1    4    4    0    0  0.33691747600E-01 -0.46571868409E-01  0.24717781797E-01  0.62572379221E-01  0.51100000000E-03 0. -1.
         11    1    4    4    0    0  0.27070226927E-01 -0.63980566804E-01  0.13225313726E-01  0.70721143646E-01  0.51100000000E-03 0.  1.
</event>
<event>
 8    1  0.1099478E+005  0.1043930E+01  0.7957747E-01            NaN
         13   -1    0    0    0    0  0.00000000000E+00  0.00000000000E+00  0.74505805969E-08  0.10566000000E+00  0.10566000000E+00 0. -1.
     999900   -1    0    0    0    0 -0.00000000000E+00 -0.00000000000E+00 -0.74505805969E-08  0.93827000000E+00  0.93827000000E+00 0.  1.
     999902    2    1    2    0    0  0.20979245872E-01  0.86923979189E-02  0.66171501384E-02  0.10202768139E+01  0.10200025998E+01 0.  0.
     999903    2    3    3    0    0  0.29458721904E-01 -0.11300695555E+00 -0.53331903481E-01  0.12984067174E+00  0.19388651624E-01 0.  0.
         14    1    1    2    0    0 -0.20979245872E-01 -0.86923979189E-02 -0.66171501384E-02  0.23653186147E-01  0.00000000000E+00 0.  1.
     999901    1    3    3    0    0 -0.84794760322E-02  0.12169935346E+00  0.59949053619E-01  0.89043614211E+00  0.88000000000E+00 0. -1.
        -11    1    4    4    0    0  0.13068928438E-01 -0.81653581711E-01 -0.41565736609E-01  0.92553097612E-01  0.51100000000E-03 0.  1.
         11    1    4    4    0    0  0.16389793466E-01 -0.31353373834E-01 -0.11766166872E-01  0.37287574130E-01  0.51100000000E-03 0. -1.
</event>
<event>
 8    1  0.1099478E+005  0.1043930E+01  0.7957747E-01            NaN
         13   -1    0    0    0    0  0.00000000000E+00  0.00000000000E+00  0.74505805969E-08  0.10566000000E+00  0.10566000000E+00 0.  1.
     999900   -1    0    0    0    0 -0.00000000000E+00 -0.00000000000E+00 -0.74505805969E-08  0.93827000000E+00  0.93827000000E+00 0.  1.
     999902    2    1    2    0    0 -0.10477936936E-01 -0.24663710523E-01 -0.10801634296E-03  0.10171326597E+01  0.10167795976E+01 0.  0.
     999903    2    3    3    0    0 -0.64976403527E-02  0.12314630435E+00  0.47871552164E-02  0.12478317326E+00  0.18457840342E-01 0.  0.
         14    1    1    2    0    0  0.10477936936E-01  0.24663710523E-01  0.10801634296E-03  0.26797340292E-01  0.00000000000E+00 0. -1.
     999901    1    3    3    0    0 -0.39802965833E-02 -0.14781001487E+00 -0.48951715594E-02  0.89234948645E+00  0.88000000000E+00 0. -1.
        -11    1    4    4    0    0  0.10763370313E-02  0.69220495715E-01 -0.51674016417E-02  0.69423329574E-01  0.51100000000E-03 0.  1.
         11    1    4    4    0    0 -0.75739773840E-02  0.53925808630E-01  0.99545568582E-02  0.55359843688E-01  0.51100000000E-03 0. -1.
</event>
<event>
 8    1  0.1099478E+005  0.1043930E+01  0.7957747E-01            NaN
         13   -1    0    0    0    0  0.00000000000E+00  0.00000000000E+00  0.74505805969E-08  0.10566000000E+00  0.10566000000E+00 0. -1.
     999900   -1    0    0    0    0 -0.00000000000E+00 -0.00000000000E+00 -0.74505805969E-08  0.93827000000E+00  0.93827000000E+00 0.  1.
     999902    2    1    2    0    0  0.97740755026E-02 -0.10799147401E-01 -0.18330676346E-01  0.10205170157E+01  0.10202484068E+01 0.  0.
     999903    2    3    3    0    0  0.44469381040E-01  0.63043787313E-01 -0.10580392611E+00  0.13242461477E+00  0.19742412417E-01 0.  0.
         14    1    1    2    0    0 -0.97740755026E-02  0.10799147401E-01  0.18330676346E-01  0.23412984257E-01  0.00000000000E+00 0. -1.
     999901    1    3    3    0    0 -0.34695305538E-01 -0.73842934714E-01  0.87473249768E-01  0.88809240097E+00  0.88000000000E+00 0. -1.
        -11    1    4    4    0    0  0.73652861400E-02  0.15648823937E-01 -0.12331870813E-01  0.21247806694E-01  0.51100000000E-03 0.  1.
         11    1    4    4    0    0  0.37104094900E-01  0.47394963376E-01 -0.93472055301E-01  0.11117680808E+00  0.51100000000E-03 0. -1.
</event>
<event>
 8    1  0.1099478E+005  0.1043930E+01  0.7957747E-01            NaN
         13   -1    0    0    0    0  0.00000000000E+00  0.00000000000E+00  0.74505805969E-08  0.10566000000E+00  0.10566000000E+00 0. -1.
     999900   -1    0    0    0    0 -0.00000000000E+00 -0.00000000000E+00 -0.74505805969E-08  0.93827000000E+00  0.93827000000E+00 0. -1.
     999902    2    1    2    0    0  0.21407872092E-01  0.10468045984E-01 -0.14898867244E-02  0.10200533014E+01  0.10197738185E+01 0.  0.
     999903    2    3    3    0    0 -0.62223684055E-01 -0.43361147438E-01  0.10189407950E+00  0.12843675616E+00  0.19016333272E-01 0.  0.
         14    1    1    2    0    0 -0.21407872092E-01 -0.10468045984E-01  0.14898867244E-02  0.23876698614E-01  0.00000000000E+00 0. -1.
     999901    1    3    3    0    0  0.83631556147E-01  0.53829193422E-01 -0.10338396623E+00  0.89161654523E+00  0.88000000000E+00 0. -1.
        -11    1    4    4    0    0 -0.20344161423E-01 -0.10169342499E-01  0.44732598474E-01  0.50185325725E-01  0.51100000000E-03 0. -1.
         11    1    4    4    0    0 -0.41879522632E-01 -0.33191804940E-01  0.57161481027E-01  0.78251430436E-01  0.51100000000E-03 0.  1.
</event>
<event>
 8    1  0.1099478E+005  0.1043930E+01  0.7957747E-01            NaN
         13   -1    0    0    0    0  0.00000000000E+00  0.00000000000E+00  0.74505805969E-08  0.10566000000E+00  0.10566000000E+00 0.  1.
     999900   -1    0    0    0    0 -0.00000000000E+00 -0.00000000000E+00 -0.74505805969E-08  0.93827000000E+00  0.93827000000E+00 0.  1.
     999902    2    1    2    0    0  0.22613506585E-01 -0.61411291726E-03 -0.67185656232E-02  0.10203315480E+01  0.10200586164E+01 0.  0.
     999903    2    3    3    0    0 -0.81678756319E-01 -0.82848601688E-01 -0.52662523157E-01  0.12918047520E+00  0.19466478677E-01 0.  0.
         14    1    1    2    0    0 -0.22613506585E-01  0.61411291726E-03  0.67185656232E-02  0.23598452042E-01  0.00000000000E+00 0.  1.
     999901    1    3    3    0    0  0.10429226290E+00  0.82234488770E-01  0.45943957534E-01  0.89115107276E+00  0.88000000000E+00 0. -1.
        -11    1    4    4    0    0 -0.66914727625E-01 -0.74945811040E-01 -0.39840674810E-01  0.10808328204E+00  0.51100000000E-03 0.  1.
         11    1    4    4    0    0 -0.14764028693E-01 -0.79027906474E-02 -0.12821848347E-01  0.21097193162E-01  0.51100000000E-03 0. -1.
</event>
<event>
 8    1  0.1099478E+005  0.1043930E+01  0.7957747E-01            NaN
         13   -1    0    0    0    0  0.00000000000E+00  0.00000000000E+00  0.74505805969E-08  0.10566000000E+00  0.10566000000E+00 0.  1.
     999900   -1    0    0    0    0 -0.00000000000E+00 -0.00000000000E+00 -0.74505805969E-08  0.93827000000E+00  0.93827000000E+00 0.  1.
     999902    2    1    2    0    0  0.10217586274E-01  0.98800061260E-02 -0.19298653203E-01  0.10199622799E+01  0.10196806367E+01 0.  0.
     999903    2    3    3    0    0 -0.11732970115E+00 -0.22684130475E-01  0.41518742421E-01  0.12809486313E+00  0.20091277731E-01 0.  0.
         14    1    1    2    0    0 -0.10217586274E-01 -0.98800061260E-02  0.19298653203E-01  0.23967720079E-01  0.00000000000E+00 0.  1.
     999901    1    3    3    0    0  0.12754728742E+00  0.32564136601E-01 -0.60817395624E-01  0.89186741679E+00  0.88000000000E+00 0.  1.
        -11    1    4    4    0    0 -0.59523657093E-01 -0.21166599660E-01  0.18244707755E-01  0.65758810641E-01  0.51100000000E-03 0.  1.
         11    1    4    4    0    0 -0.57806044058E-01 -0.15175308147E-02  0.23274034666E-01  0.62336052489E-01  0.51100000000E-03 0. -1.
</event>
<event>
 8    1  0.1099478E+005  0.1043930E+01  0.7957747E-01            NaN
         13   -1    0    0    0    0  0.00000000000E+00  0.00000000000E+00  0.74505805969E-08  0.10566000000E+00  0.10566000000E+00 0.  1.
     999900   -1    0    0    0    0 -0.00000000000E+00 -0.00000000000E+00 -0.74505805969E-08  0.93827000000E+00  0.93827000000E+00 0.  1.
     999902    2    1    2    0    0 -0.93861305975E-02  0.17648162349E-01 -0.14175053229E-01  0.10194251185E+01  0.10191305525E+01 0.  0.
     999903    2    3    3    0    0 -0.82926715326E-01 -0.46655680269E-01  0.83908224005E-01  0.12860328951E+00  0.21086094986E-01 0.  0.
         14    1    1    2    0    0  0.93861305975E-02 -0.17648162349E-01  0.14175053229E-01  0.24504881472E-01  0.00000000000E+00 0. -1.
     999901    1    3    3    0    0  0.73540584728E-01  0.64303842618E-01 -0.98083277234E-01  0.89082182902E+00  0.88000000000E+00 0.  1.
        -11    1    4    4    0    0 -0.29458672426E-01 -0.26291157999E-01  0.42229046677E-01  0.57815152636E-01  0.51100000000E-03 0. -1.
         11    1    4    4    0    0 -0.53468042900E-01 -0.20364522270E-01  0.41679177328E-01  0.70788136877E-01  0.51100000000E-03 0.  1.
</event>
<event>
 8    1  0.1099478E+005  0.1043930E+01  0.7957747E-01            NaN
         13   -1    0    0    0    0  0.00000000000E+00  0.00000000000E+00  0.74505805969E-08  0.10566000000E+00  0.10566000000E+00 0.  1.
     999900   -1    0    0    0    0 -0.00000000000E+00 -0.00000000000E+00 -0.74505805969E-08  0.93827000000E+00  0.93827000000E+00 0. -1.
     999902    2    1    2    0    0 -0.18914523064E-01  0.27699618733E-02  0.12692622067E-01  0.10209836598E+01  0.10207257708E+01 0.  0.
     999903    2    3    3    0    0  0.12510801452E+00 -0.22706284941E-01 -0.28274165371E-02  0.12877718034E+00  0.20198445934E-01 0.  0.
         14    1    1    2    0    0  0.18914523064E-01 -0.27699618733E-02 -0.12692622067E-01  0.22946340153E-01  0.00000000000E+00 0.  1.
     999901    1    3    3    0    0 -0.14402253758E+00  0.25476246815E-01  0.15520038604E-01  0.89220647951E+00  0.88000000000E+00 0.  1.
        -11    1    4    4    0    0  0.14000388018E-01 -0.16108844480E-02 -0.67096928407E-02  0.15616879086E-01  0.51100000000E-03 0.  1.
         11    1    4    4    0    0  0.11110762650E+00 -0.21095400493E-01  0.38822763036E-02  0.11316030125E+00  0.51100000000E-03 0. -1.
</event>
<event>
 8    1  0.1895477E+005  0.1043930E+01  0.7957747E-01            NaN
         13   -1    0    0    0    0  0.00000000000E+00  0.00000000000E+00  0.74505805969E-08  0.10566000000E+00  0.10566000000E+00 0.  1.
     999900   -1    0    0    0    0 -0.00000000000E+00 -0.00000000000E+00 -0.74505805969E-08  0.93827000000E+00  0.93827000000E+00 0. -1.
     999902    2    1    2    0    0  0.13187635169E-01  0.25765296550E-01  0.11882499178E-01  0.10126416952E+01  0.10121582114E+01 0.  0.
     999903    2    3    3    0    0 -0.81019091066E-01  0.68604754197E-01 -0.60167544121E-01  0.12365275542E+00  0.19979117629E-01 0.  0.
         14    1    1    2    0    0 -0.13187635169E-01 -0.25765296550E-01 -0.11882499178E-01  0.31288304754E-01  0.00000000000E+00 0. -1.
     999901    1    3    3    0    0  0.94206726234E-01 -0.42839457647E-01  0.72050043299E-01  0.88898893983E+00  0.88000000000E+00 0.  1.
        -11    1    4    4    0    0 -0.38237651448E-01  0.20304984926E-01 -0.27920538806E-01  0.51519200395E-01  0.51100000000E-03 0.  1.
         11    1    4    4    0    0 -0.42781439618E-01  0.48299769271E-01 -0.32247005314E-01  0.72133555022E-01  0.51100000000E-03 0. -1.
</event>
<event>
 8    1  0.1099478E+005  0.1043930E+01  0.7957747E-01            NaN
         13   -1    0    0    0    0  0.00000000000E+00  0.00000000000E+00  0.74505805969E-08  0.10566000000E+00  0.10566000000E+00 0. -1.
     999900   -1    0    0    0    0 -0.00000000000E+00 -0.00000000000E+00 -0.74505805969E-08  0.93827000000E+00  0.93827000000E+00 0.  1.
     999902    2    1    2    0    0  0.80679996526E-02  0.21850183507E-01 -0.44452896769E-02  0.10202174772E+01  0.10199418694E+01 0.  0.
     999903    2    3    3    0    0  0.10520109043E+00  0.31032088351E-01 -0.71336255714E-01  0.13230219630E+00  0.19615040939E-01 0.  0.
         14    1    1    2    0    0 -0.80679996526E-02 -0.21850183507E-01  0.44452896769E-02  0.23712522809E-01  0.00000000000E+00 0.  1.
     999901    1    3    3    0    0 -0.97133090780E-01 -0.91819048441E-02  0.66890966037E-01  0.88791528089E+00  0.88000000000E+00 0. -1.
        -11    1    4    4    0    0  0.15170990211E-01 -0.21464268777E-02 -0.75920040447E-02  0.17107476106E-01  0.51100000000E-03 0.  1.
         11    1    4    4    0    0  0.90030100222E-01  0.33178515228E-01 -0.63744251669E-01  0.11519472019E+00  0.51100000000E-03 0. -1.
</event>
<event>
 8    1  0.1099478E+005  0.1043930E+01  0.7957747E-01            NaN
         13   -1    0    0    0    0  0.00000000000E+00  0.00000000000E+00  0.74505805969E-08  0.10566000000E+00  0.10566000000E+00 0. -1.
     999900   -1    0    0    0    0 -0.00000000000E+00 -0.00000000000E+00 -0.74505805969E-08  0.93827000000E+00  0.93827000000E+00 0.  1.
     999902    2    1    2    0    0 -0.31632724509E-02  0.12896536094E-01 -0.11462260455E-01  0.10263883253E+01  0.10262384148E+01 0.  0.
     999903    2    3    3    0    0  0.60779583581E-01  0.11843647813E+00 -0.28202142843E-01  0.13762086875E+00  0.20561748998E-01 0.  0.
         14    1    1    2    0    0  0.31632724509E-02 -0.12896536094E-01  0.11462260455E-01  0.17541674680E-01  0.00000000000E+00 0. -1.
     999901    1    3    3    0    0 -0.63942856032E-01 -0.10553994203E+00  0.16739882388E-01  0.88876745657E+00  0.88000000000E+00 0.  1.
        -11    1    4    4    0    0  0.13925648185E-01  0.34301644357E-01  0.84182784795E-03  0.37033718124E-01  0.51100000000E-03 0.  1.
         11    1    4    4    0    0  0.46853935396E-01  0.84134833771E-01 -0.29043970691E-01  0.10058715062E+00  0.51100000000E-03 0. -1.
</event>
<event>
 8    1  0.1099478E+005  0.1043930E+01  0.7957747E-01            NaN
         13   -1    0    0    0    0  0.00000000000E+00  0.00000000000E+00  0.74505805969E-08  0.10566000000E+00  0.10566000000E+00 0.  1.
     999900   -1    0    0    0    0 -0.00000000000E+00 -0.00000000000E+00 -0.74505805969E-08  0.93827000000E+00  0.93827000000E+00 0. -1.
     999902    2    1    2    0    0 -0.21031134141E-01 -0.89020400428E-02  0.71206620693E-02  0.10200080697E+01  0.10197275144E+01 0.  0.
     999903    2    3    3    0    0  0.18103777532E-02  0.56383122591E-01 -0.11435447980E+00  0.12897490691E+00  0.19371256583E-01 0.  0.
         14    1    1    2    0    0  0.21031134141E-01  0.89020400428E-02 -0.71206620693E-02  0.23921930283E-01  0.00000000000E+00 0.  1.
     999901    1    3    3    0    0 -0.22841511894E-01 -0.65285162634E-01  0.12147514187E+00  0.89103316280E+00  0.88000000000E+00 0.  1.
        -11    1    4    4    0    0  0.10328842088E-01  0.36732236300E-01 -0.70398184828E-01  0.80075637435E-01  0.51100000000E-03 0. -1.
         11    1    4    4    0    0 -0.85184643349E-02  0.19650886291E-01 -0.43956294972E-01  0.48899269477E-01  0.51100000000E-03 0.  1.
</event>
<event>
 8    1  0.1099478E+005  0.1043930E+01  0.7957747E-01            NaN
         13   -1    0    0    0    0  0.00000000000E+00  0.00000000000E+00  0.74505805969E-08  0.10566000000E+00  0.10566000000E+00 0. -1.
     999900   -1    0    0    0    0 -0.00000000000E+00 -0.00000000000E+00 -0.74505805969E-08  0.93827000000E+00  0.93827000000E+00 0.  1.
     999902    2    1    2    0    0 -0.10094393328E-01  0.10263243481E-01 -0.16257575082E-01  0.10222150353E+01  0.10219843633E+01 0.  0.
     999903    2    3    3    0    0 -0.26680051015E-01  0.55543583937E-01 -0.11853931939E+00  0.13497946993E+00  0.19260639234E-01 0.  0.
         14    1    1    2    0    0  0.10094393328E-01 -0.10263243481E-01  0.16257575082E-01  0.21714964678E-01  0.00000000000E+00 0. -1.
     999901    1    3    3    0    0  0.16585657687E-01 -0.45280340456E-01  0.10228174431E+00  0.88723556539E+00  0.88000000000E+00 0. -1.
        -11    1    4    4    0    0 -0.73422351671E-02  0.31785557867E-01 -0.74503355730E-01  0.81334133316E-01  0.51100000000E-03 0. -1.
         11    1    4    4    0    0 -0.19337815848E-01  0.23758026070E-01 -0.44035963658E-01  0.53645336617E-01  0.51100000000E-03 0.  1.
</event>
<event>
 8    1  0.1099478E+005  0.1043930E+01  0.7957747E-01            NaN
         13   -1    0    0    0    0  0.00000000000E+00  0.00000000000E+00  0.74505805969E-08  0.10566000000E+00  0.10566000000E+00 0.  1.
     999900   -1    0    0    0    0 -0.00000000000E+00 -0.00000000000E+00 -0.74505805969E-08  0.93827000000E+00  0.93827000000E+00 0. -1.
     999902    2    1    2    0    0  0.13442156650E-01  0.14883678235E-01  0.13427049544E-01  0.10197949402E+01  0.10195093030E+01 0.  0.
     999903    2    3    3    0    0 -0.81842450288E-02 -0.58889389904E-01 -0.11136925522E+00  0.12767147086E+00  0.19025019143E-01 0.  0.
         14    1    1    2    0    0 -0.13442156650E-01 -0.14883678235E-01 -0.13427049544E-01  0.24135059823E-01  0.00000000000E+00 0.  1.
     999901    1    3    3    0    0  0.21626401679E-01  0.73773068139E-01  0.12479630476E+00  0.89212346932E+00  0.88000000000E+00 0.  1.
        -11    1    4    4    0    0 -0.62186480861E-02 -0.46955988218E-01 -0.69648514960E-01  0.84230120330E-01  0.51100000000E-03 0.  1.
         11    1    4    4    0    0 -0.19655969427E-02 -0.11933401686E-01 -0.41720740255E-01  0.43441350526E-01  0.51100000000E-03 0. -1.
</event>
<event>
 8    1  0.1099478E+005  0.1043930E+01  0.7957747E-01            NaN
         13   -1    0    0    0    0  0.00000000000E+00  0.00000000000E+00  0.74505805969E-08  0.10566000000E+00  0.10566000000E+00 0. -1.
     999900   -1    0    0    0    0 -0.00000000000E+00 -0.00000000000E+00 -0.74505805969E-08  0.93827000000E+00  0.93827000000E+00 0. -1.
     999902    2    1    2    0    0  0.19721389695E-01  0.38320004539E-02 -0.12403944764E-01  0.10203190855E+01  0.10200458622E+01 0.  0.
     999903    2    3    3    0    0  0.20539547311E-01 -0.77934327266E-01  0.99617535273E-01  0.12945702336E+00  0.18434619406E-01 0.  0.
         14    1    1    2    0    0 -0.19721389695E-01 -0.38320004539E-02  0.12403944764E-01  0.23610914524E-01  0.00000000000E+00 0. -1.
     999901    1    3    3    0    0 -0.81815761598E-03  0.81766327720E-01 -0.11202148004E+00  0.89086206212E+00  0.88000000000E+00 0. -1.
        -11    1    4    4    0    0  0.96827126873E-02 -0.18062958624E-01  0.15812176066E-01  0.25890373350E-01  0.51100000000E-03 0. -1.
         11    1    4    4    0    0  0.10856834623E-01 -0.59871368643E-01  0.83805359207E-01  0.10356665001E+00  0.51100000000E-03 0.  1.
</event>
<event>
 8    1  0.1099478E+005  0.1043930E+01  0.7957747E-01            NaN
         13   -1    0    0    0    0  0.00000000000E+00  0.00000000000E+00  0.74505805969E-08  0.10566000000E+00  0.10566000000E+00 0. -1.
     999900   -1    0    0    0    0 -0.00000000000E+00 -0.00000000000E+00 -0.74505805969E-08  0.93827000000E+00  0.93827000000E+00 0.  1.
     999902    2    1    2    0    0  0.14084636735E-01  0.16248095900E-01  0.98172463427E-02  0.10202919811E+01  0.10200181227E+01 0.  0.
     999903    2    3    3    0    0  0.11038501236E+00 -0.63726932180E-01 -0.21704743881E-01  0.13087452942E+00  0.20274952630E-01 0.  0.
         14    1    1    2    0    0 -0.14084636735E-01 -0.16248095900E-01 -0.98172463427E-02  0.23638018912E-01  0.00000000000E+00 0.  1.
     999901    1    3    3    0    0 -0.96300375630E-01  0.79975028080E-01  0.31521990224E-01  0.88941745167E+00  0.88000000000E+00 0. -1.
        -11    1    4    4    0    0  0.93195103681E-01 -0.60992736533E-01 -0.21625503267E-01  0.11346085128E+00  0.51100000000E-03 0. -1.
         11    1    4    4    0    0  0.17189908684E-01 -0.27341956464E-02 -0.79240613655E-04  0.17413678143E-01  0.51100000000E-03 0.  1.
</event>
<event>
 8    1  0.1099478E+005  0.1043930E+01  0.7957747E-01            NaN
         13   -1    0    0    0    0  0.00000000000E+00  0.00000000000E+00  0.74505805969E-08  0.10566000000E+00  0.10566000000E+00 0. -1.
     999900   -1    0    0    0    0 -0.00000000000E+00 -0.00000000000E+00 -0.74505805969E-08  0.93827000000E+00  0.93827000000E+00 0.  1.
     999902    2    1    2    0    0  0.77925115332E-02 -0.20060821862E-01  0.23107191482E-02  0.10222851569E+01  0.10220559881E+01 0.  0.
     999903    2    3    3    0    0  0.92857508759E-01 -0.14367730157E-01  0.92986200196E-01  0.13352731142E+00  0.18819162168E-01 0.  0.
         14    1    1    2    0    0 -0.77925115332E-02  0.20060821862E-01 -0.23107191482E-02  0.21644843099E-01  0.00000000000E+00 0. -1.
     999901    1    3    3    0    0 -0.85064997225E-01 -0.56930917053E-02 -0.90675481048E-01  0.88875784548E+00  0.88000000000E+00 0.  1.
        -11    1    4    4    0    0  0.32708625050E-01 -0.32128956813E-03  0.21972433724E-01  0.39408201486E-01  0.51100000000E-03 0. -1.
         11    1    4    4    0    0  0.60148883709E-01 -0.14046440589E-01  0.71013766472E-01  0.94119109931E-01  0.51100000000E-03 0.  1.
</event>
<event>
 8    1  0.1099478E+005  0.1043930E+01  0.7957747E-01            NaN
         13   -1    0    0    0    0  0.00000000000E+00  0.00000000000E+00  0.74505805969E-08  0.10566000000E+00  0.10566000000E+00 0. -1.
     999900   -1    0    0    0    0 -0.00000000000E+00 -0.00000000000E+00 -0.74505805969E-08  0.93827000000E+00  0.93827000000E+00 0. -1.
     999902    2    1    2    0    0 -0.51772759453E-03  0.24021274810E-01 -0.23429398968E-02  0.10197891828E+01  0.10195034077E+01 0.  0.
     999903    2    3    3    0    0 -0.95929017044E-01 -0.57078496085E-01 -0.61256026080E-01  0.12897425329E+00  0.20535974663E-01 0.  0.
         14    1    1    2    0    0  0.51772759453E-03 -0.24021274810E-01  0.23429398968E-02  0.24140817151E-01  0.00000000000E+00 0. -1.
     999901    1    3    3    0    0  0.95411289449E-01  0.81099770895E-01  0.58913086183E-01  0.89081492955E+00  0.88000000000E+00 0. -1.
        -11    1    4    4    0    0 -0.28276813927E-02 -0.63453118756E-02 -0.10479991838E-02  0.70440178979E-02  0.51100000000E-03 0.  1.
         11    1    4    4    0    0 -0.93101335651E-01 -0.50733184210E-01 -0.60208026896E-01  0.12193023540E+00  0.51100000000E-03 0. -1.
</event>
<event>
 8    1  0.1099478E+005  0.1043930E+01  0.7957747E-01            NaN
         13   -1    0    0    0    0  0.00000000000E+00  0.00000000000E+00  0.74505805969E-08  0.10566000000E+00  0.10566000000E+00 0.  1.
     999900   -1    0    0    0    0 -0.00000000000E+00 -0.00000000000E+00 -0.74505805969E-08  0.93827000000E+00  0.93827000000E+00 0. -1.
     999902    2    1    2    0    0 -0.10463598780E-01  0.19036311637E-01  0.91949167381E-02  0.10203415589E+01  0.10200688615E+01 0.  0.
     999903    2    3    3    0    0 -0.12334339637E+00 -0.38551494911E-02 -0.40280963074E-01  0.13145814112E+00  0.20742017153E-01 0.  0.
         14    1    1    2    0    0  0.10463598780E-01 -0.19036311637E-01 -0.91949167381E-02  0.23588441109E-01  0.00000000000E+00 0. -1.
     999901    1    3    3    0    0  0.11287979759E+00  0.22891461128E-01  0.49475879813E-01  0.88888341777E+00  0.88000000000E+00 0.  1.
        -11    1    4    4    0    0 -0.76321960580E-01  0.72025192607E-02 -0.21410893058E-01  0.79596516338E-01  0.51100000000E-03 0.  1.
         11    1    4    4    0    0 -0.47021435791E-01 -0.11057668752E-01 -0.18870070017E-01  0.51861624787E-01  0.51100000000E-03 0. -1.
</event>
<event>
 8    1  0.1099478E+005  0.1043930E+01  0.7957747E-01            NaN
         13   -1    0    0    0    0  0.00000000000E+00  0.00000000000E+00  0.74505805969E-08  0.10566000000E+00  0.10566000000E+00 0.  1.
     999900   -1    0    0    0    0 -0.00000000000E+00 -0.00000000000E+00 -0.74505805969E-08  0.93827000000E+00  0.93827000000E+00 0. -1.
     999902    2    1    2    0    0 -0.82847335258E-02  0.22141399768E-01  0.62351246502E-02  0.10194809679E+01  0.10191877593E+01 0.  0.
     999903    2    3    3    0    0  0.73942809755E-01 -0.95183455789E-01  0.35994843782E-01  0.12739793838E+00  0.20178616243E-01 0.  0.
         14    1    1    2    0    0  0.82847335258E-02 -0.22141399768E-01 -0.62351246502E-02  0.24449032142E-01  0.00000000000E+00 0. -1.
     999901    1    3    3    0    0 -0.82227543281E-01  0.11732485556E+00 -0.29759719131E-01  0.89208302948E+00  0.88000000000E+00 0.  1.
        -11    1    4    4    0    0  0.25835851717E-01 -0.44325860572E-01  0.76736149093E-02  0.51878884300E-01  0.51100000000E-03 0. -1.
         11    1    4    4    0    0  0.48106958037E-01 -0.50857595216E-01  0.28321228872E-01  0.75519054077E-01  0.51100000000E-03 0.  1.
</event>
<event>
 8    1  0.1099478E+005  0.1043930E+01  0.7957747E-01            NaN
         13   -1    0    0    0    0  0.00000000000E+00  0.00000000000E+00  0.74505805969E-08  0.10566000000E+00  0.10566000000E+00 0. -1.
     999900   -1    0    0    0    0 -0.00000000000E+00 -0.00000000000E+00 -0.74505805969E-08  0.93827000000E+00  0.93827000000E+00 0. -1.
     999902    2    1    2    0    0  0.18224940174E-01 -0.12588971115E-01 -0.70043932671E-02  0.10206987245E+01  0.10204343163E+01 0.  0.
     999903    2    3    3    0    0 -0.20290339991E-01  0.55399160371E-01  0.11318264060E+00  0.12909862580E+00  0.19374730516E-01 0.  0.
         14    1    1    2    0    0 -0.18224940174E-01  0.12588971115E-01  0.70043932671E-02  0.23231275538E-01  0.00000000000E+00 0. -1.
     999901    1    3    3    0    0  0.38515280165E-01 -0.67988131487E-01 -0.12018703387E+00  0.89160009866E+00  0.88000000000E+00 0.  1.
        -11    1    4    4    0    0 -0.19205069207E-02  0.15733130004E-01  0.48513934247E-01  0.51040010420E-01  0.51100000000E-03 0.  1.
         11    1    4    4    0    0 -0.18369833070E-01  0.39666030367E-01  0.64668706354E-01  0.78058615377E-01  0.51100000000E-03 0. -1.
</event>
<event>
 8    1  0.1099478E+005  0.1043930E+01  0.7957747E-01            NaN
         13   -1    0    0    0    0  0.00000000000E+00  0.00000000000E+00  0.74505805969E-08  0.10566000000E+00  0.10566000000E+00 0. -1.
     999900   -1    0    0    0    0 -0.00000000000E+00 -0.00000000000E+00 -0.74505805969E-08  0.93827000000E+00  0.93827000000E+00 0.  1.
     999902    2    1    2    0    0  0.21289330574E-02  0.25611526642E-02 -0.22841689508E-01  0.10208467888E+01  0.10205857787E+01 0.  0.
     999903    2    3    3    0    0  0.84705476451E-01 -0.91740156027E-01 -0.37579437936E-01  0.13184238862E+00  0.19466055407E-01 0.  0.
         14    1    1    2    0    0 -0.21289330574E-02 -0.25611526642E-02  0.22841689508E-01  0.23083211183E-01  0.00000000000E+00 0. -1.
     999901    1    3    3    0    0 -0.82576543393E-01  0.94301308692E-01  0.14737748428E-01  0.88900440020E+00  0.88000000000E+00 0.  1.
        -11    1    4    4    0    0  0.13677213933E-01 -0.22980057298E-01 -0.21794975484E-02  0.26835807141E-01  0.51100000000E-03 0. -1.
         11    1    4    4    0    0  0.71028262518E-01 -0.68760098730E-01 -0.35399940387E-01  0.10500658148E+00  0.51100000000E-03 0.  1.
</event>
<event>
 8    1  0.1099478E+005  0.1043930E+01  0.7957747E-01            NaN
         13   -1    0    0    0    0  0.00000000000E+00  0.00000000000E+00  0.74505805969E-08  0.10566000000E+00  0.10566000000E+00 0. -1.
     999900   -1    0    0    0    0 -0.00000000000E+00 -0.00000000000E+00 -0.74505805969E-08  0.93827000000E+00  0.93827000000E+00 0.  1.
     999902    2    1    2    0    0 -0.14443482147E-01  0.14855338485E-01 -0.57499795243E-02  0.10224274996E+01  0.10222013669E+01 0.  0.
     999903    2    3    3    0    0 -0.30383163343E-01  0.75150341832E-01  0.10327484165E+00  0.13350907114E+00  0.24254250462E-01 0.  0.
         14    1    1    2    0    0  0.14443482147E-01 -0.14855338485E-01  0.57499795243E-02  0.21502500379E-01  0.00000000000E+00 0. -1.
     999901    1    3    3    0    0  0.15939681197E-01 -0.60295003346E-01 -0.10902482118E+00  0.88891842848E+00  0.88000000000E+00 0.  1.
        -11    1    4    4    0    0 -0.96486248321E-02  0.39337366697E-02  0.13115185045E-01  0.16758264979E-01  0.51100000000E-03 0. -1.
         11    1    4    4    0    0 -0.20734538511E-01  0.71216605162E-01  0.90159656607E-01  0.11675080616E+00  0.51100000000E-03 0.  1.
</event>
<event>
 8    1  0.1099478E+005  0.1043930E+01  0.7957747E-01            NaN
         13   -1    0    0    0    0  0.00000000000E+00  0.00000000000E+00  0.74505805969E-08  0.10566000000E+00  0.10566000000E+00 0.  1.
     999900   -1    0    0    0    0 -0.00000000000E+00 -0.00000000000E+00 -0.74505805969E-08  0.93827000000E+00  0.93827000000E+00 0.  1.
     999902    2    1    2    0    0  0.89201137462E-03  0.22854589706E-01 -0.55287711551E-02  0.10203992698E+01  0.10201279206E+01 0.  0.
     999903    2    3    3    0    0 -0.11390007868E+00  0.15561395239E-01  0.59091970609E-01  0.13056431041E+00  0.18433480883E-01 0.  0.
         14    1    1    2    0    0 -0.89201137462E-03 -0.22854589706E-01  0.55287711551E-02  0.23530730235E-01  0.00000000000E+00 0.  1.
     999901    1    3    3    0    0  0.11479209005E+00  0.72931944674E-02 -0.64620741764E-01  0.88983495936E+00  0.88000000000E+00 0.  1.
        -11    1    4    4    0    0 -0.50622265081E-01 -0.22878633050E-02  0.25435470599E-01  0.56701607791E-01  0.51100000000E-03 0. -1.
         11    1    4    4    0    0 -0.63277813597E-01  0.17849258544E-01  0.33656500010E-01  0.73862702619E-01  0.51100000000E-03 0.  1.
</event>
<event>
 8    1  0.1099478E+005  0.1043930E+01  0.7957747E-01            NaN
         13   -1    0    0    0    0  0.00000000000E+00  0.00000000000E+00  0.74505805969E-08  0.10566000000E+00  0.10566000000E+00 0.  1.
     999900   -1    0    0    0    0 -0.00000000000E+00 -0.00000000000E+00 -0.74505805969E-08  0.93827000000E+00  0.93827000000E+00 0.  1.
     999902    2    1    2    0    0  0.13735694426E-01 -0.17806800303E-01  0.67953032446E-02  0.10204368609E+01  0.10201663881E+01 0.  0.
     999903    2    3    3    0    0  0.59312485376E-01 -0.49338206183E-01  0.10655986554E+00  0.13306746695E+00  0.19992906423E-01 0.  0.
         14    1    1    2    0    0 -0.13735694426E-01  0.17806800303E-01 -0.67953032446E-02  0.23493139096E-01  0.00000000000E+00 0. -1.
     999901    1    3    3    0    0 -0.45576790950E-01  0.31531405879E-01 -0.99764562293E-01  0.88736939395E+00  0.88000000000E+00 0.  1.
        -11    1    4    4    0    0  0.23085594131E-01 -0.21059942156E-01  0.59961448720E-01  0.67617322290E-01  0.51100000000E-03 0. -1.
         11    1    4    4    0    0  0.36226891245E-01 -0.28278264027E-01  0.46598416818E-01  0.65450144664E-01  0.51100000000E-03 0.  1.
</event>
<event>
 8    1  0.1099478E+005  0.1043930E+01  0.7957747E-01            NaN
         13   -1    0    0    0    0  0.00000000000E+00  0.00000000000E+00  0.74505805969E-08  0.10566000000E+00  0.10566000000E+00 0.  1.
     999900   -1    0    0    0    0 -0.00000000000E+00 -0.00000000000E+00 -0.74505805969E-08  0.93827000000E+00  0.93827000000E+00 0.  1.
     999902    2    1    2    0    0 -0.21722626744E-01 -0.27836469859E-03 -0.19196221562E-01  0.10149395719E+01  0.10145254505E+01 0.  0.
     999903    2    3    3    0    0  0.46936884823E-01  0.11262132929E+00  0.13245771655E-01  0.12448297421E+00  0.20830876931E-01 0.  0.
         14    1    1    2    0    0  0.21722626744E-01  0.27836469859E-03  0.19196221562E-01  0.28990428107E-01  0.00000000000E+00 0.  1.
     999901    1    3    3    0    0 -0.68659511567E-01 -0.11289969399E+00 -0.32441993217E-01  0.89045659768E+00  0.88000000000E+00 0.  1.
        -11    1    4    4    0    0  0.20867385415E-01  0.71445606276E-01  0.14011402110E-01  0.75739705177E-01  0.51100000000E-03 0.  1.
         11    1    4    4    0    0  0.26069499408E-01  0.41175723014E-01 -0.76563045558E-03  0.48743269034E-01  0.51100000000E-03 0. -1.
</event>
<event>
 8    1  0.1099478E+005  0.1043930E+01  0.7957747E-01            NaN
         13   -1    0    0    0    0  0.00000000000E+00  0.00000000000E+00  0.74505805969E-08  0.10566000000E+00  0.10566000000E+00 0. -1.
     999900   -1    0    0    0    0 -0.00000000000E+00 -0.00000000000E+00 -0.74505805969E-08  0.93827000000E+00  0.93827000000E+00 0. -1.
     999902    2    1    2    0    0  0.15344747815E-01  0.52747262529E-02  0.17514923570E-01  0.10200541425E+01  0.10197746796E+01 0.  0.
     999903    2    3    3    0    0  0.51101643677E-01  0.94977863499E-01 -0.70618191970E-01  0.13039541330E+00  0.19592402375E-01 0.  0.
         14    1    1    2    0    0 -0.15344747815E-01 -0.52747262529E-02 -0.17514923570E-01  0.23875857476E-01  0.00000000000E+00 0.  1.
     999901    1    3    3    0    0 -0.35756895862E-01 -0.89703137246E-01  0.88133115540E-01  0.88965872923E+00  0.88000000000E+00 0.  1.
        -11    1    4    4    0    0  0.36120358563E-01  0.82653662739E-01 -0.58746727100E-01  0.10764639954E+00  0.51100000000E-03 0. -1.
         11    1    4    4    0    0  0.14981285114E-01  0.12324200760E-01 -0.11871464870E-01  0.22749013763E-01  0.51100000000E-03 0.  1.
</event>
<event>
 8    1  0.1099478E+005  0.1043930E+01  0.7957747E-01            NaN
         13   -1    0    0    0    0  0.00000000000E+00  0.00000000000E+00  0.74505805969E-08  0.10566000000E+00  0.10566000000E+00 0. -1.
     999900   -1    0    0    0    0 -0.00000000000E+00 -0.00000000000E+00 -0.74505805969E-08  0.93827000000E+00  0.93827000000E+00 0.  1.
     999902    2    1    2    0    0 -0.60705816610E-02  0.12628063283E-01  0.20011353893E-01  0.10195010371E+01  0.10192083155E+01 0.  0.
     999903    2    3    3    0    0 -0.94346671989E-01  0.39415283106E-01  0.81855082601E-01  0.13252027628E+00  0.20162093663E-01 0.  0.
         14    1    1    2    0    0  0.60705816610E-02 -0.12628063283E-01 -0.20011353893E-01  0.24428962905E-01  0.00000000000E+00 0.  1.
     999901    1    3    3    0    0  0.88276090328E-01 -0.26787219823E-01 -0.61843728708E-01  0.88698076081E+00  0.88000000000E+00 0.  1.
        -11    1    4    4    0    0 -0.45058163306E-01  0.10219814243E-01  0.28854102052E-01  0.54474792426E-01  0.51100000000E-03 0. -1.
         11    1    4    4    0    0 -0.49288508683E-01  0.29195468863E-01  0.53000980549E-01  0.78045483857E-01  0.51100000000E-03 0.  1.
</event>
<event>
 8    1  0.1099478E+005  0.1043930E+01  0.7957747E-01            NaN
         13   -1    0    0    0    0  0.00000000000E+00  0.00000000000E+00  0.74505805969E-08  0.10566000000E+00  0.10566000000E+00 0.  1.
     999900   -1    0    0    0    0 -0.00000000000E+00 -0.00000000000E+00 -0.74505805969E-08  0.93827000000E+00  0.93827000000E+00 0.  1.
     999902    2    1    2    0    0  0.16408382225E-01  0.10580205307E-01  0.15721447085E-01  0.10188632960E+01  0.10185548960E+01 0.  0.
     999903    2    3    3    0    0  0.39087141048E-01 -0.74142133565E-01 -0.94083216671E-01  0.12771276718E+00  0.20833594925E-01 0.  0.
         14    1    1    2    0    0 -0.16408382225E-01 -0.10580205307E-01 -0.15721447085E-01  0.25066704012E-01  0.00000000000E+00 0.  1.
     999901    1    3    3    0    0 -0.22678758822E-01  0.84722338872E-01  0.10980466376E+00  0.89115052880E+00  0.88000000000E+00 0. -1.
        -11    1    4    4    0    0  0.20342252130E-01 -0.27658693827E-01 -0.51742975557E-01  0.62099977508E-01  0.51100000000E-03 0.  1.
         11    1    4    4    0    0  0.18744888918E-01 -0.46483439738E-01 -0.42340241114E-01  0.65612789676E-01  0.51100000000E-03 0. -1.
</event>
<event>
 8    1  0.1099478E+005  0.1043930E+01  0.7957747E-01            NaN
         13   -1    0    0    0    0  0.00000000000E+00  0.00000000000E+00  0.74505805969E-08  0.10566000000E+00  0.10566000000E+00 0. -1.
     999900   -1    0    0    0    0 -0.00000000000E+00 -0.00000000000E+00 -0.74505805969E-08  0.93827000000E+00  0.93827000000E+00 0.  1.
     999902    2    1    2    0    0 -0.37779553028E-02 -0.17171402006E-01 -0.15329686188E-01  0.10206034213E+01  0.10203368142E+01 0.  0.
     999903    2    3    3    0    0 -0.51759348076E-02 -0.76238776927E-01 -0.10796557702E+00  0.13377067646E+00  0.19972146863E-01 0.  0.
         14    1    1    2    0    0  0.37779553028E-02  0.17171402006E-01  0.15329686188E-01  0.23326578655E-01  0.00000000000E+00 0. -1.
     999901    1    3    3    0    0  0.13979795048E-02  0.59067374920E-01  0.92635890836E-01  0.88683274488E+00  0.88000000000E+00 0. -1.
        -11    1    4    4    0    0  0.29275243552E-02 -0.51838615497E-01 -0.60010448532E-01  0.79355702439E-01  0.51100000000E-03 0. -1.
         11    1    4    4    0    0 -0.81034591628E-02 -0.24400161430E-01 -0.47955128492E-01  0.54414974023E-01  0.51100000000E-03 0.  1.
</event>
<event>
 8    1  0.1099478E+005  0.1043930E+01  0.7957747E-01            NaN
         13   -1    0    0    0    0  0.00000000000E+00  0.00000000000E+00  0.74505805969E-08  0.10566000000E+00  0.10566000000E+00 0. -1.
     999900   -1    0    0    0    0 -0.00000000000E+00 -0.00000000000E+00 -0.74505805969E-08  0.93827000000E+00  0.93827000000E+00 0.  1.
     999902    2    1    2    0    0 -0.86231937057E-04  0.54805001584E-02  0.22741695266E-01  0.10205370946E+01  0.10202689516E+01 0.  0.
     999903    2    3    3    0    0  0.28036385749E-02  0.75356226087E-01 -0.10265781528E+00  0.12890039414E+00  0.19755084669E-01 0.  0.
         14    1    1    2    0    0  0.86231937057E-04 -0.54805001584E-02 -0.22741695266E-01  0.23392905367E-01  0.00000000000E+00 0.  1.
     999901    1    3    3    0    0 -0.28898705119E-02 -0.69875725929E-01  0.12539951055E+00  0.89163670050E+00  0.88000000000E+00 0. -1.
        -11    1    4    4    0    0 -0.65224056275E-02  0.36529455095E-01 -0.59293322367E-01  0.69949282076E-01  0.51100000000E-03 0. -1.
         11    1    4    4    0    0  0.93260442024E-02  0.38826770992E-01 -0.43364492918E-01  0.58951112060E-01  0.51100000000E-03 0.  1.
</event>
<event>
 8    1  0.1099478E+005  0.1043930E+01  0.7957747E-01            NaN
         13   -1    0    0    0    0  0.00000000000E+00  0.00000000000E+00  0.74505805969E-08  0.10566000000E+00  0.10566000000E+00 0.  1.
     999900   -1    0    0    0    0 -0.00000000000E+00 -0.00000000000E+00 -0.74505805969E-08  0.93827000000E+00  0.93827000000E+00 0. -1.
     999902    2    1    2    0    0  0.60543476790E-02  0.81663161320E-02  0.20189209333E-01  0.10213258407E+01  0.10210756705E+01 0.  0.
     999903    2    3    3    0    0  0.93996885218E-01 -0.13075574409E-01 -0.86834684276E-01  0.13023705631E+00  0.20372613164E-01 0.  0.
         14    1    1    2    0    0 -0.60543476790E-02 -0.81663161320E-02 -0.20189209333E-01  0.22604159319E-01  0.00000000000E+00 0. -1.
     999901    1    3    3    0    0 -0.87942537539E-01  0.21241890541E-01  0.10702389361E+00  0.89108878437E+00  0.88000000000E+00 0. -1.
        -11    1    4    4    0    0  0.51785363990E-01 -0.29403714897E-02 -0.34769572113E-01  0.62446408816E-01  0.51100000000E-03 0. -1.
         11    1    4    4    0    0  0.42211521227E-01 -0.10135202919E-01 -0.52065112164E-01  0.67790647498E-01  0.51100000000E-03 0.  1.
</event>
<event>
 8    1  0.1099478E+005  0.1043930E+01  0.7957747E-01            NaN
         13   -1    0    0    0    0  0.00000000000E+00  0.00000000000E+00  0.74505805969E-08  0.10566000000E+00  0.10566000000E+00 0.  1.
     999900   -1    0    0    0    0 -0.00000000000E+00 -0.00000000000E+00 -0.74505805969E-08  0.93827000000E+00  0.93827000000E+00 0.  1.
     999902    2    1    2    0    0 -0.11467638678E-01 -0.61192058529E-02 -0.19297343439E-01  0.10206633096E+01  0.10203980854E+01 0.  0.
     999903    2    3    3    0    0  0.11255520312E+00 -0.56826559675E-01  0.20623306095E-01  0.12962652067E+00  0.21903937387E-01 0.  0.
         14    1    1    2    0    0  0.11467638678E-01  0.61192058529E-02  0.19297343439E-01  0.23266690373E-01  0.00000000000E+00 0.  1.
     999901    1    3    3    0    0 -0.12402284180E+00  0.50707353822E-01 -0.39920649534E-01  0.89103678896E+00  0.88000000000E+00 0.  1.
        -11    1    4    4    0    0  0.10121558839E-01 -0.83972456108E-02  0.85137804622E-02  0.15674988547E-01  0.51100000000E-03 0.  1.
         11    1    4    4    0    0  0.10243364428E+00 -0.48429314064E-01  0.12109525633E-01  0.11395153212E+00  0.51100000000E-03 0. -1.
</event>
<event>
 8    1  0.1099478E+005  0.1043930E+01  0.7957747E-01            NaN
         13   -1    0    0    0    0  0.00000000000E+00  0.00000000000E+00  0.74505805969E-08  0.10566000000E+00  0.10566000000E+00 0.  1.
     999900   -1    0    0    0    0 -0.00000000000E+00 -0.00000000000E+00 -0.74505805969E-08  0.93827000000E+00  0.93827000000E+00 0. -1.
     999902    2    1    2    0    0  0.22834876297E-01 -0.51060790377E-02  0.59316644075E-02  0.10197910634E+01  0.10195053333E+01 0.  0.
     999903    2    3    3    0    0  0.63401719399E-01  0.56015920004E-01 -0.98700724381E-01  0.13056133810E+00  0.12118939621E-01 0.  0.
         14    1    1    2    0    0 -0.22834876297E-01  0.51060790377E-02 -0.59316644075E-02  0.24138936622E-01  0.00000000000E+00 0. -1.
     999901    1    3    3    0    0 -0.40566843103E-01 -0.61121999042E-01  0.10463238879E+00  0.88922972527E+00  0.88000000000E+00 0.  1.
        -11    1    4    4    0    0  0.23260126158E-01  0.19677856806E-01 -0.44617332086E-01  0.54029796972E-01  0.51100000000E-03 0. -1.
         11    1    4    4    0    0  0.40141593241E-01  0.36338063198E-01 -0.54083392295E-01  0.76531541132E-01  0.51100000000E-03 0.  1.
</event>
<event>
 8    1  0.1099478E+005  0.1043930E+01  0.7957747E-01            NaN
         13   -1    0    0    0    0  0.00000000000E+00  0.00000000000E+00  0.74505805969E-08  0.10566000000E+00  0.10566000000E+00 0.  1.
     999900   -1    0    0    0    0 -0.00000000000E+00 -0.00000000000E+00 -0.74505805969E-08  0.93827000000E+00  0.93827000000E+00 0.  1.
     999902    2    1    2    0    0  0.14743656382E-01  0.10207106069E-01 -0.14634148957E-01  0.10207844014E+01  0.10205219623E+01 0.  0.
     999903    2    3    3    0    0 -0.61049189455E-01  0.62895870985E-02 -0.11503422239E+00  0.13182991599E+00  0.19485686799E-01 0.  0.
         14    1    1    2    0    0 -0.14743656382E-01 -0.10207106069E-01  0.14634148957E-01  0.23145598577E-01  0.00000000000E+00 0.  1.
     999901    1    3    3    0    0  0.75792845837E-01  0.39175189704E-02  0.10040007343E+00  0.88895448544E+00  0.88000000000E+00 0. -1.
        -11    1    4    4    0    0 -0.30881429791E-01 -0.63871020676E-02 -0.60567577229E-01  0.68287263169E-01  0.51100000000E-03 0.  1.
         11    1    4    4    0    0 -0.30167759664E-01  0.12676689166E-01 -0.54466645156E-01  0.63542652816E-01  0.51100000000E-03 0. -1.
</event>
<event>
 8    1  0.1099478E+005  0.1043930E+01  0.7957747E-01            NaN
         13   -1    0    0    0    0  0.00000000000E+00  0.00000000000E+00  0.74505805969E-08  0.10566000000E+00  0.10566000000E+00 0. -1.
     999900   -1    0    0    0    0 -0.00000000000E+00 -0.00000000000E+00 -0.74505805969E-08  0.93827000000E+00  0.93827000000E+00 0. -1.
     999902    2    1    2    0    0  0.20949405127E-01 -0.12820048292E-01 -0.46721579435E-02  0.10189287946E+01  0.10186220242E+01 0.  0.
     999903    2    3    3    0    0 -0.42327997412E-01  0.93129193104E-01 -0.73799583494E-01  0.12763318009E+00  0.19471624534E-01 0.  0.
         14    1    1    2    0    0 -0.20949405127E-01  0.12820048292E-01  0.46721579435E-02  0.25001205436E-01  0.00000000000E+00 0.  1.
     999901    1    3    3    0    0  0.63277402539E-01 -0.10594924140E+00  0.69127425551E-01  0.89129561448E+00  0.88000000000E+00 0. -1.
        -11    1    4    4    0    0 -0.16695473487E-01  0.34754243394E-01 -0.16609544449E-01  0.41984930114E-01  0.51100000000E-03 0. -1.
         11    1    4    4    0    0 -0.25632523925E-01  0.58374949709E-01 -0.57190039046E-01  0.85648249973E-01  0.51100000000E-03 0.  1.
</event>
<event>
 8    1  0.1099478E+005  0.1043930E+01  0.7957747E-01            NaN
         13   -1    0    0    0    0  0.00000000000E+00  0.00000000000E+00  0.74505805969E-08  0.10566000000E+00  0.10566000000E+00 0. -1.
     999900   -1    0    0    0    0 -0.00000000000E+00 -0.00000000000E+00 -0.74505805969E-08  0.93827000000E+00  0.93827000000E+00 0. -1.
     999902    2    1    2    0    0  0.48113933259E-03 -0.20903339523E-01 -0.11756128329E-01  0.10199427607E+01  0.10196606530E+01 0.  0.
     999903    2    3    3    0    0  0.11213462063E+00 -0.36597149879E-01 -0.55699568159E-01  0.13166137422E+00  0.17853600354E-01 0.  0.
         14    1    1    2    0    0 -0.48113933259E-03  0.20903339523E-01  0.11756128329E-01  0.23987239348E-01  0.00000000000E+00 0. -1.
     999901    1    3    3    0    0 -0.11165348130E+00  0.15693810356E-01  0.43943439830E-01  0.88828138643E+00  0.88000000000E+00 0.  1.
        -11    1    4    4    0    0  0.48401725567E-01 -0.21968665405E-01 -0.17677929644E-01  0.56018921938E-01  0.51100000000E-03 0.  1.
         11    1    4    4    0    0  0.63732895066E-01 -0.14628484474E-01 -0.38021638515E-01  0.75642452286E-01  0.51100000000E-03 0. -1.
</event>
<event>
 8    1  0.1099478E+005  0.1043930E+01  0.7957747E-01            NaN
         13   -1    0    0    0    0  0.00000000000E+00  0.00000000000E+00  0.74505805969E-08  0.10566000000E+00  0.10566000000E+00 0. -1.
     999900   -1    0    0    0    0 -0.00000000000E+00 -0.00000000000E+00 -0.74505805969E-08  0.93827000000E+00  0.93827000000E+00 0.  1.
     999902    2    1    2    0    0  0.24330039570E-01 -0.12886228894E-02  0.17123315618E-04  0.10195658528E+01  0.10192747012E+01 0.  0.
     999903    2    3    3    0    0  0.38011845274E-01 -0.25433285098E-01 -0.12095492209E+00  0.13085645584E+00  0.20039123882E-01 0.  0.
         14    1    1    2    0    0 -0.24330039570E-01  0.12886228894E-02 -0.17123315618E-04  0.24364147176E-01  0.00000000000E+00 0. -1.
     999901    1    3    3    0    0 -0.13681805704E-01  0.24144662209E-01  0.12097204540E+00  0.88870939698E+00  0.88000000000E+00 0. -1.
        -11    1    4    4    0    0  0.10247530053E-01 -0.61347717998E-02 -0.59718405770E-01  0.60903172380E-01  0.51100000000E-03 0.  1.
         11    1    4    4    0    0  0.27764315221E-01 -0.19298513299E-01 -0.61236516315E-01  0.69953283459E-01  0.51100000000E-03 0. -1.
</event>
<event>
 8    1  0.1099478E+005  0.1043930E+01  0.7957747E-01            NaN
         13   -1    0    0    0    0  0.00000000000E+00  0.00000000000E+00  0.74505805969E-08  0.10566000000E+00  0.10566000000E+00 0. -1.
     999900   -1    0    0    0    0 -0.00000000000E+00 -0.00000000000E+00 -0.74505805969E-08  0.93827000000E+00  0.93827000000E+00 0. -1.
     999902    2    1    2    0    0  0.41809612825E-02  0.50525502166E-02 -0.23961752119E-01  0.10190870077E+01  0.10187841553E+01 0.  0.
     999903    2    3    3    0    0  0.16100926272E-01  0.12764551809E+00  0.42078103952E-04  0.13018470420E+00  0.19885605914E-01 0.  0.
         14    1    1    2    0    0 -0.41809612825E-02 -0.50525502166E-02  0.23961752119E-01  0.24842992282E-01  0.00000000000E+00 0. -1.
     999901    1    3    3    0    0 -0.11919964989E-01 -0.12259296787E+00 -0.24003830223E-01  0.88890230352E+00  0.88000000000E+00 0. -1.
        -11    1    4    4    0    0  0.17530859573E-01  0.80603760741E-01  0.61750334311E-02  0.82720550300E-01  0.51100000000E-03 0.  1.
         11    1    4    4    0    0 -0.14299333017E-02  0.47041757344E-01 -0.61329553271E-02  0.47464153899E-01  0.51100000000E-03 0. -1.
</event>
<event>
 8    1  0.1099478E+005  0.1043930E+01  0.7957747E-01            NaN
         13   -1    0    0    0    0  0.00000000000E+00  0.00000000000E+00  0.74505805969E-08  0.10566000000E+00  0.10566000000E+00 0.  1.
     999900   -1    0    0    0    0 -0.00000000000E+00 -0.00000000000E+00 -0.74505805969E-08  0.93827000000E+00  0.93827000000E+00 0. -1.
     999902    2    1    2    0    0 -0.18424139251E-01 -0.27944154456E-02  0.21796974535E-02  0.10251681039E+01  0.10249964061E+01 0.  0.
     999903    2    3    3    0    0  0.19634892369E-01 -0.19517897468E-01 -0.12992797452E+00  0.13433669350E+00  0.19964752373E-01 0.  0.
         14    1    1    2    0    0  0.18424139251E-01  0.27944154456E-02 -0.21796974535E-02  0.18761896114E-01  0.00000000000E+00 0.  1.
     999901    1    3    3    0    0 -0.38059031620E-01  0.16723482022E-01  0.13210767197E+00  0.89083141039E+00  0.88000000000E+00 0.  1.
        -11    1    4    4    0    0  0.10645353684E-01  0.58699453969E-03 -0.26113519142E-01  0.28210727049E-01  0.51100000000E-03 0.  1.
         11    1    4    4    0    0  0.89895386848E-02 -0.20104892007E-01 -0.10381445538E+00  0.10612596645E+00  0.51100000000E-03 0. -1.
</event>
<event>
 8    1  0.1099478E+005  0.1043930E+01  0.7957747E-01            NaN
         13   -1    0    0    0    0  0.00000000000E+00  0.00000000000E+00  0.74505805969E-08  0.10566000000E+00  0.10566000000E+00 0. -1.
     999900   -1    0    0    0    0 -0.00000000000E+00 -0.00000000000E+00 -0.74505805969E-08  0.93827000000E+00  0.93827000000E+00 0.  1.
     999902    2    1    2    0    0  0.23507852729E-01 -0.18940826853E-02 -0.28225683829E-02  0.10201776616E+01  0.10199011166E+01 0.  0.
     999903    2    3    3    0    0 -0.65786461616E-01  0.10559662686E+00 -0.27566096552E-01  0.12880794623E+00  0.18790721074E-01 0.  0.
         14    1    1    2    0    0 -0.23507852729E-01  0.18940826853E-02  0.28225683829E-02  0.23752338441E-01  0.00000000000E+00 0.  1.
     999901    1    3    3    0    0  0.89294314345E-01 -0.10749070954E+00  0.24743528169E-01  0.89136971532E+00  0.88000000000E+00 0. -1.
        -11    1    4    4    0    0 -0.54542373234E-01  0.94610747228E-01 -0.29062363229E-01  0.11300861050E+00  0.51100000000E-03 0.  1.
         11    1    4    4    0    0 -0.11244088382E-01  0.10985879629E-01  0.14962666773E-02  0.15799335737E-01  0.51100000000E-03 0. -1.
</event>
<event>
 8    1  0.1099478E+005  0.1043930E+01  0.7957747E-01            NaN
         13   -1    0    0    0    0  0.00000000000E+00  0.00000000000E+00  0.74505805969E-08  0.10566000000E+00  0.10566000000E+00 0. -1.
     999900   -1    0    0    0    0 -0.00000000000E+00 -0.00000000000E+00 -0.74505805969E-08  0.93827000000E+00  0.93827000000E+00 0. -1.
     999902    2    1    2    0    0 -0.10619744592E-02  0.15228953431E-01  0.17898265336E-01  0.10204056145E+01  0.10201344134E+01 0.  0.
     999903    2    3    3    0    0  0.34901258336E-01  0.12557665718E+00 -0.11166277419E-01  0.13230949497E+00  0.19837390110E-01 0.  0.
         14    1    1    2    0    0  0.10619744592E-02 -0.15228953431E-01 -0.17898265336E-01  0.23524385527E-01  0.00000000000E+00 0. -1.
     999901    1    3    3    0    0 -0.35963232796E-01 -0.11034770375E+00  0.29064542755E-01  0.88809611951E+00  0.88000000000E+00 0.  1.
        -11    1    4    4    0    0  0.21641479276E-01  0.59920093059E-01  0.32433590878E-02  0.63793037838E-01  0.51100000000E-03 0.  1.
         11    1    4    4    0    0  0.13259779060E-01  0.65656564117E-01 -0.14409636506E-01  0.68516457130E-01  0.51100000000E-03 0. -1.
</event>
<event>
 8    1  0.1099478E+005  0.1043930E+01  0.7957747E-01            NaN
         13   -1    0    0    0    0  0.00000000000E+00  0.00000000000E+00  0.74505805969E-08  0.10566000000E+00  0.10566000000E+00 0. -1.
     999900   -1    0    0    0    0 -0.00000000000E+00 -0.00000000000E+00 -0.74505805969E-08  0.93827000000E+00  0.93827000000E+00 0.  1.
     999902    2    1    2    0    0 -0.12794939971E-01 -0.11486700470E-01  0.18079454714E-01  0.10189796201E+01  0.10186741111E+01 0.  0.
     999903    2    3    3    0    0  0.78275489065E-02  0.11745256022E+00 -0.43844955685E-01  0.12719194768E+00  0.19975910307E-01 0.  0.
         14    1    1    2    0    0  0.12794939971E-01  0.11486700470E-01 -0.18079454714E-01  0.24950379943E-01  0.00000000000E+00 0. -1.
     999901    1    3    3    0    0 -0.20622488877E-01 -0.12893926069E+00  0.61924410399E-01  0.89178767237E+00  0.88000000000E+00 0. -1.
        -11    1    4    4    0    0  0.69088606101E-02  0.75983083353E-01 -0.38200100206E-01  0.85326842714E-01  0.51100000000E-03 0. -1.
         11    1    4    4    0    0  0.91868829638E-03  0.41469476866E-01 -0.56448554783E-02  0.41865104969E-01  0.51100000000E-03 0.  1.
</event>
<event>
 8    1  0.1099478E+005  0.1043930E+01  0.7957747E-01            NaN
         13   -1    0    0    0    0  0.00000000000E+00  0.00000000000E+00  0.74505805969E-08  0.10566000000E+00  0.10566000000E+00 0. -1.
     999900   -1    0    0    0    0 -0.00000000000E+00 -0.00000000000E+00 -0.74505805969E-08  0.93827000000E+00  0.93827000000E+00 0. -1.
     999902    2    1    2    0    0 -0.13648989737E-01 -0.13596966299E-01  0.12002934407E-01  0.10212310386E+01  0.10209787419E+01 0.  0.
     999903    2    3    3    0    0  0.11224965048E+00  0.55494588011E-01  0.27102498829E-01  0.12946195005E+00  0.18606927072E-01 0.  0.
         14    1    1    2    0    0  0.13648989737E-01  0.13596966299E-01 -0.12002934407E-01  0.22698961380E-01  0.00000000000E+00 0.  1.
     999901    1    3    3    0    0 -0.12589864022E+00 -0.69091554310E-01 -0.15099564422E-01  0.89176908857E+00  0.88000000000E+00 0. -1.
        -11    1    4    4    0    0  0.29457165679E-01  0.13423188646E-01 -0.11305333637E-02  0.32395151334E-01  0.51100000000E-03 0.  1.
         11    1    4    4    0    0  0.82792484805E-01  0.42071399365E-01  0.28233032192E-01  0.97066798714E-01  0.51100000000E-03 0. -1.
</event>
<event>
 8    1  0.1099478E+005  0.1043930E+01  0.7957747E-01            NaN
         13   -1    0    0    0    0  0.00000000000E+00  0.00000000000E+00  0.74505805969E-08  0.10566000000E+00  0.10566000000E+00 0.  1.
     999900   -1    0    0    0    0 -0.00000000000E+00 -0.00000000000E+00 -0.74505805969E-08  0.93827000000E+00  0.93827000000E+00 0.  1.
     999902    2    1    2    0    0  0.18006143841E-01  0.68302580946E-02 -0.12257535041E-01  0.10211019294E+01  0.10208467218E+01 0.  0.
     999903    2    3    3    0    0 -0.81463825155E-01  0.56425373956E-01 -0.83236282605E-01  0.13127501767E+00  0.22015310291E-01 0.  0.
         14    1    1    2    0    0 -0.18006143841E-01 -0.68302580946E-02  0.12257535041E-01  0.22828070592E-01  0.00000000000E+00 0.  1.
     999901    1    3    3    0    0  0.99469968996E-01 -0.49595115862E-01  0.70978747564E-01  0.88982691174E+00  0.88000000000E+00 0. -1.
        -11    1    4    4    0    0 -0.65543253877E-01  0.47471271903E-01 -0.77675149134E-01  0.11217455014E+00  0.51100000000E-03 0. -1.
         11    1    4    4    0    0 -0.15920571278E-01  0.89541020530E-02 -0.55611334706E-02  0.19100467530E-01  0.51100000000E-03 0.  1.
</event>
<event>
 8    1  0.1099478E+005  0.1043930E+01  0.7957747E-01            NaN
         13   -1    0    0    0    0  0.00000000000E+00  0.00000000000E+00  0.74505805969E-08  0.10566000000E+00  0.10566000000E+00 0. -1.
     999900   -1    0    0    0    0 -0.00000000000E+00 -0.00000000000E+00 -0.74505805969E-08  0.93827000000E+00  0.93827000000E+00 0.  1.
     999902    2    1    2    0    0 -0.76849460555E-02  0.21629463924E-01  0.25828342899E-02  0.10208310143E+01  0.10205696432E+01 0.  0.
     999903    2    3    3    0    0 -0.11208828444E-02  0.89673924868E-01  0.96652374873E-01  0.13318118808E+00  0.18785050195E-01 0.  0.
         14    1    1    2    0    0  0.76849460555E-02 -0.21629463924E-01 -0.25828342899E-02  0.23098985659E-01  0.00000000000E+00 0.  1.
     999901    1    3    3    0    0 -0.65640632111E-02 -0.68044460944E-01 -0.94069540583E-01  0.88764982626E+00  0.88000000000E+00 0.  1.
        -11    1    4    4    0    0 -0.93831617094E-02  0.32358342258E-01  0.34159570278E-01  0.47981698594E-01  0.51100000000E-03 0. -1.
         11    1    4    4    0    0  0.82622788650E-02  0.57315582610E-01  0.62492804596E-01  0.85199489489E-01  0.51100000000E-03 0.  1.
</event>
<event>
 8    1  0.1099478E+005  0.1043930E+01  0.7957747E-01            NaN
         13   -1    0    0    0    0  0.00000000000E+00  0.00000000000E+00  0.74505805969E-08  0.10566000000E+00  0.10566000000E+00 0. -1.
     999900   -1    0    0    0    0 -0.00000000000E+00 -0.00000000000E+00 -0.74505805969E-08  0.93827000000E+00  0.93827000000E+00 0.  1.
     999902    2    1    2    0    0  0.11278746000E-01  0.13095123525E-01 -0.14840598084E-01  0.10211498393E+01  0.10208957138E+01 0.  0.
     999903    2    3    3    0    0 -0.50457707002E-01  0.12022724797E+00  0.10455813072E-01  0.13214557036E+00  0.18776484997E-01 0.  0.
         14    1    1    2    0    0 -0.11278746000E-01 -0.13095123525E-01  0.14840598084E-01  0.22780160731E-01  0.00000000000E+00 0. -1.
     999901    1    3    3    0    0  0.61736453002E-01 -0.10713212445E+00 -0.25296411157E-01  0.88900426891E+00  0.88000000000E+00 0.  1.
        -11    1    4    4    0    0 -0.25176283233E-01  0.41904025732E-01  0.96836605298E-02  0.49838007707E-01  0.51100000000E-03 0.  1.
         11    1    4    4    0    0 -0.25281423769E-01  0.78323222238E-01  0.77215254260E-03  0.82307562654E-01  0.51100000000E-03 0. -1.
</event>
<event>
 8    1  0.1099478E+005  0.1043930E+01  0.7957747E-01            NaN
         13   -1    0    0    0    0  0.00000000000E+00  0.00000000000E+00  0.74505805969E-08  0.10566000000E+00  0.10566000000E+00 0. -1.
     999900   -1    0    0    0    0 -0.00000000000E+00 -0.00000000000E+00 -0.74505805969E-08  0.93827000000E+00  0.93827000000E+00 0.  1.
     999902    2    1    2    0    0  0.16037720548E-01 -0.11931021175E-01 -0.10836923591E-01  0.10211924395E+01  0.10209392743E+01 0.  0.
     999903    2    3    3    0    0  0.35470321269E-01 -0.96555016490E-01  0.80520318136E-01  0.13221269156E+00  0.20387723660E-01 0.  0.
         14    1    1    2    0    0 -0.16037720548E-01  0.11931021175E-01  0.10836923591E-01  0.22737560546E-01  0.00000000000E+00 0. -1.
     999901    1    3    3    0    0 -0.19432600721E-01  0.84623995314E-01 -0.91357241727E-01  0.88897974790E+00  0.88000000000E+00 0.  1.
        -11    1    4    4    0    0  0.47762918119E-02 -0.39586922980E-01  0.35397798636E-01  0.53321690743E-01  0.51100000000E-03 0.  1.
         11    1    4    4    0    0  0.30694029457E-01 -0.56968093510E-01  0.45122519500E-01  0.78891000815E-01  0.51100000000E-03 0. -1.
</event>
<event>
 8    1  0.1099478E+005  0.1043930E+01  0.7957747E-01            NaN
         13   -1    0    0    0    0  0.00000000000E+00  0.00000000000E+00  0.74505805969E-08  0.10566000000E+00  0.10566000000E+00 0. -1.
     999900   -1    0    0    0    0 -0.00000000000E+00 -0.00000000000E+00 -0.74505805969E-08  0.93827000000E+00  0.93827000000E+00 0. -1.
     999902    2    1    2    0    0 -0.21182162848E-01 -0.75542037622E-02 -0.67232081480E-02  0.10204576430E+01  0.10201876541E+01 0.  0.
     999903    2    3    3    0    0  0.97475865691E-01  0.43473355642E-01  0.63645013023E-01  0.12824958084E+00  0.31714196500E-01 0.  0.
         14    1    1    2    0    0  0.21182162848E-01  0.75542037622E-02  0.67232081480E-02  0.23472357044E-01  0.00000000000E+00 0. -1.
     999901    1    3    3    0    0 -0.11865802854E+00 -0.51027559404E-01 -0.70368221171E-01  0.89220806212E+00  0.88000000000E+00 0. -1.
        -11    1    4    4    0    0  0.62695250832E-01  0.39383569384E-01  0.30657946238E-01  0.80136950297E-01  0.51100000000E-03 0.  1.
         11    1    4    4    0    0  0.34780614859E-01  0.40897862582E-02  0.32987066785E-01  0.48112630542E-01  0.51100000000E-03 0. -1.
</event>
<event>
 8    1  0.1099478E+005  0.1043930E+01  0.7957747E-01            NaN
         13   -1    0    0    0    0  0.00000000000E+00  0.00000000000E+00  0.74505805969E-08  0.10566000000E+00  0.10566000000E+00 0. -1.
     999900   -1    0    0    0    0 -0.00000000000E+00 -0.00000000000E+00 -0.74505805969E-08  0.93827000000E+00  0.93827000000E+00 0.  1.
     999902    2    1    2    0    0  0.67838255410E-02  0.21517396508E-01  0.34914761927E-02  0.10210999968E+01  0.10208447455E+01 0.  0.
     999903    2    3    3    0    0 -0.57199793673E-01 -0.30417120184E-01  0.11154290678E+00  0.13066964621E+00  0.20873878169E-01 0.  0.
         14    1    1    2    0    0 -0.67838255410E-02 -0.21517396508E-01 -0.34914761927E-02  0.22830003229E-01  0.00000000000E+00 0. -1.
     999901    1    3    3    0    0  0.63983619214E-01  0.51934516692E-01 -0.10805143059E+00  0.89043035056E+00  0.88000000000E+00 0.  1.
        -11    1    4    4    0    0 -0.44763763758E-01 -0.17472866947E-01  0.65413686674E-01  0.81168387629E-01  0.51100000000E-03 0.  1.
         11    1    4    4    0    0 -0.12436029916E-01 -0.12944253237E-01  0.46129220110E-01  0.49501258578E-01  0.51100000000E-03 0. -1.
</event>
<event>
 8    1  0.1099478E+005  0.1043930E+01  0.7957747E-01            NaN
         13   -1    0    0    0    0  0.00000000000E+00  0.00000000000E+00  0.74505805969E-08  0.10566000000E+00  0.10566000000E+00 0.  1.
     999900   -1    0    0    0    0 -0.00000000000E+00 -0.00000000000E+00 -0.74505805969E-08  0.93827000000E+00  0.93827000000E+00 0. -1.
     999902    2    1    2    0    0 -0.24643357938E-03  0.18332983983E-01  0.14523797125E-01  0.10205398372E+01  0.10202717578E+01 0.  0.
     999903    2    3    3    0    0 -0.49913480438E-01  0.35120319192E-03  0.12102356700E+00  0.13254639077E+00  0.20745193769E-01 0.  0.
         14    1    1    2    0    0  0.24643357938E-03 -0.18332983983E-01 -0.14523797125E-01  0.23390162765E-01  0.00000000000E+00 0. -1.
     999901    1    3    3    0    0  0.49667046858E-01  0.17981780791E-01 -0.10649976987E+00  0.88799344647E+00  0.88000000000E+00 0. -1.
        -11    1    4    4    0    0 -0.69649631954E-02 -0.24054712497E-03  0.42232143146E-01  0.42806350124E-01  0.51100000000E-03 0.  1.
         11    1    4    4    0    0 -0.42948517242E-01  0.59175031689E-03  0.78791423849E-01  0.89740040645E-01  0.51100000000E-03 0. -1.
</event>
<event>
 8    1  0.1099478E+005  0.1043930E+01  0.7957747E-01            NaN
         13   -1    0    0    0    0  0.00000000000E+00  0.00000000000E+00  0.74505805969E-08  0.10566000000E+00  0.10566000000E+00 0. -1.
     999900   -1    0    0    0    0 -0.00000000000E+00 -0.00000000000E+00 -0.74505805969E-08  0.93827000000E+00  0.93827000000E+00 0.  1.
     999902    2    1    2    0    0  0.35084302413E-02 -0.72812500932E-02  0.24949154939E-01  0.10177043252E+01  0.10173663586E+01 0.  0.
     999903    2    3    3    0    0  0.74377540977E-01 -0.10319535709E+00  0.15476273591E-01  0.12960991455E+00  0.19440025191E-01 0.  0.
         14    1    1    2    0    0 -0.35084302413E-02  0.72812500932E-02 -0.24949154939E-01  0.26225674783E-01  0.00000000000E+00 0.  1.
     999901    1    3    3    0    0 -0.70869110736E-01  0.95914106993E-01  0.94728813478E-02  0.88809441067E+00  0.88000000000E+00 0. -1.
        -11    1    4    4    0    0  0.23680980372E-01 -0.48357663419E-01  0.33761028327E-02  0.53952864930E-01  0.51100000000E-03 0. -1.
         11    1    4    4    0    0  0.50696560605E-01 -0.54837693667E-01  0.12100170758E-01  0.75657049620E-01  0.51100000000E-03 0.  1.
</event>
<event>
 8    1  0.1099478E+005  0.1043930E+01  0.7957747E-01            NaN
         13   -1    0    0    0    0  0.00000000000E+00  0.00000000000E+00  0.74505805969E-08  0.10566000000E+00  0.10566000000E+00 0. -1.
     999900   -1    0    0    0    0 -0.00000000000E+00 -0.00000000000E+00 -0.74505805969E-08  0.93827000000E+00  0.93827000000E+00 0.  1.
     999902    2    1    2    0    0 -0.49578381440E-02  0.16091284695E-01 -0.11218970690E-01  0.10236969848E+01  0.10234970160E+01 0.  0.
     999903    2    3    3    0    0 -0.12796965074E+00  0.34571790791E-01 -0.15843374063E-01  0.13493671323E+00  0.19633233216E-01 0.  0.
         14    1    1    2    0    0  0.49578381440E-02 -0.16091284695E-01  0.11218970690E-01  0.20233015236E-01  0.00000000000E+00 0.  1.
     999901    1    3    3    0    0  0.12301181260E+00 -0.18480506097E-01  0.46244033727E-02  0.88876027153E+00  0.88000000000E+00 0.  1.
        -11    1    4    4    0    0 -0.57531493333E-01  0.13960015353E-01 -0.16786211048E-01  0.61536921893E-01  0.51100000000E-03 0.  1.
         11    1    4    4    0    0 -0.70438157411E-01  0.20611775438E-01  0.94283698496E-03  0.73399791340E-01  0.51100000000E-03 0. -1.
</event>
<event>
 8    1  0.1099478E+005  0.1043930E+01  0.7957747E-01            NaN
         13   -1    0    0    0    0  0.00000000000E+00  0.00000000000E+00  0.74505805969E-08  0.10566000000E+00  0.10566000000E+00 0.  1.
     999900   -1    0    0    0    0 -0.00000000000E+00 -0.00000000000E+00 -0.74505805969E-08  0.93827000000E+00  0.93827000000E+00 0. -1.
     999902    2    1    2    0    0  0.19482401980E-01  0.50366790405E-02  0.19193163936E-01  0.10161215541E+01  0.10157409625E+01 0.  0.
     999903    2    3    3    0    0 -0.10138483206E+00 -0.44935515777E-01 -0.51240333190E-01  0.12367156330E+00  0.19261336278E-01 0.  0.
         14    1    1    2    0    0 -0.19482401980E-01 -0.50366790405E-02 -0.19193163936E-01  0.27808445921E-01  0.00000000000E+00 0. -1.
     999901    1    3    3    0    0  0.12086723404E+00  0.49972194817E-01  0.70433497126E-01  0.89244999078E+00  0.88000000000E+00 0.  1.
        -11    1    4    4    0    0 -0.90257985317E-01 -0.45817065140E-01 -0.48072803825E-01  0.11205785541E+00  0.51100000000E-03 0. -1.
         11    1    4    4    0    0 -0.11126846739E-01  0.88154936344E-03 -0.31675293653E-02  0.11613707888E-01  0.51100000000E-03 0.  1.
</event>
<event>
 8    1  0.1099478E+005  0.1043930E+01  0.7957747E-01            NaN
         13   -1    0    0    0    0  0.00000000000E+00  0.00000000000E+00  0.74505805969E-08  0.10566000000E+00  0.10566000000E+00 0.  1.
     999900   -1    0    0    0    0 -0.00000000000E+00 -0.00000000000E+00 -0.74505805969E-08  0.93827000000E+00  0.93827000000E+00 0.  1.
     999902    2    1    2    0    0  0.62283671056E-02  0.20875485124E-01  0.62301045042E-02  0.10212718307E+01  0.10210204501E+01 0.  0.
     999903    2    3    3    0    0 -0.40399849938E-01 -0.49106852950E-01 -0.11098248463E+00  0.12952606570E+00  0.20402424317E-01 0.  0.
         14    1    1    2    0    0 -0.62283671056E-02 -0.20875485124E-01 -0.62301045042E-02  0.22658169346E-01  0.00000000000E+00 0.  1.
     999901    1    3    3    0    0  0.46628217043E-01  0.69982338074E-01  0.11721258914E+00  0.89174576496E+00  0.88000000000E+00 0. -1.
        -11    1    4    4    0    0 -0.19800681953E-01 -0.23051273227E-01 -0.72957324676E-01  0.79034552874E-01  0.51100000000E-03 0. -1.
         11    1    4    4    0    0 -0.20599167984E-01 -0.26055579723E-01 -0.38025159957E-01  0.50491512823E-01  0.51100000000E-03 0.  1.
</event>
<event>
 8    1  0.1099478E+005  0.1043930E+01  0.7957747E-01            NaN
         13   -1    0    0    0    0  0.00000000000E+00  0.00000000000E+00  0.74505805969E-08  0.10566000000E+00  0.10566000000E+00 0. -1.
     999900   -1    0    0    0    0 -0.00000000000E+00 -0.00000000000E+00 -0.74505805969E-08  0.93827000000E+00  0.93827000000E+00 0.  1.
     999902    2    1    2    0    0 -0.51703353462E-02  0.26114003256E-02  0.22884691895E-01  0.10203236258E+01  0.10200505088E+01 0.  0.
     999903    2    3    3    0    0 -0.50195802973E-01  0.90660119883E-01  0.80742148213E-01  0.13289624568E+00  0.20080877596E-01 0.  0.
         14    1    1    2    0    0  0.51703353462E-02 -0.26114003256E-02 -0.22884691895E-01  0.23606374190E-01  0.00000000000E+00 0.  1.
     999901    1    3    3    0    0  0.45025467627E-01 -0.88048719557E-01 -0.57857456318E-01  0.88742738013E+00  0.88000000000E+00 0.  1.
        -11    1    4    4    0    0 -0.22895396514E-01  0.23821971333E-01  0.20705373287E-01  0.38995629289E-01  0.51100000000E-03 0.  1.
         11    1    4    4    0    0 -0.27300406459E-01  0.66838148549E-01  0.60036774926E-01  0.93900616392E-01  0.51100000000E-03 0. -1.
</event>
<event>
 8    1  0.1099478E+005  0.1043930E+01  0.7957747E-01            NaN
         13   -1    0    0    0    0  0.00000000000E+00  0.00000000000E+00  0.74505805969E-08  0.10566000000E+00  0.10566000000E+00 0.  1.
     999900   -1    0    0    0    0 -0.00000000000E+00 -0.00000000000E+00 -0.74505805969E-08  0.93827000000E+00  0.93827000000E+00 0. -1.
     999902    2    1    2    0    0 -0.18004844134E-01  0.13430427903E-01  0.71562392147E-02  0.10203553830E+01  0.10200830089E+01 0.  0.
     999903    2    3    3    0    0  0.43758263312E-01  0.49862296246E-01  0.11094291981E+00  0.13135952390E+00  0.23365762736E-01 0.  0.
         14    1    1    2    0    0  0.18004844134E-01 -0.13430427903E-01 -0.71562392147E-02  0.23574616977E-01  0.00000000000E+00 0. -1.
     999901    1    3    3    0    0 -0.61763107446E-01 -0.36431868344E-01 -0.10378668059E+00  0.88899585912E+00  0.88000000000E+00 0. -1.
        -11    1    4    4    0    0  0.35459835416E-01  0.31431568991E-01  0.59359464237E-01  0.75954924609E-01  0.51100000000E-03 0.  1.
         11    1    4    4    0    0  0.82984278963E-02  0.18430727256E-01  0.51583455570E-01  0.55404599288E-01  0.51100000000E-03 0. -1.
</event>
<event>
 7    1  0.1390226E+005  0.1043930E+01  0.7957747E-01            NaN
         13   -1    0    0    0    0  0.00000000000E+00  0.00000000000E+00  0.74505805969E-08  0.10566000000E+00  0.10566000000E+00 0.  1.
     999900   -1    0    0    0    0 -0.00000000000E+00 -0.00000000000E+00 -0.74505805969E-08  0.93827000000E+00  0.93827000000E+00 0. -1.
     999903    2    1    2    0    0  0.41694943896E-01 -0.28770462138E-01 -0.93550737054E-01  0.10831475270E+00  0.20350366367E-01 0.  0.
         14    1    1    2    0    0  0.37577309004E-02 -0.13078717667E-01 -0.41043373455E-01  0.43240396644E-01  0.00000000000E+00 0. -1.
     999901    1    1    2    0    0 -0.45452674797E-01  0.41849179805E-01  0.13459411051E+00  0.89237485065E+00  0.88000000000E+00 0.  1.
        -11    1    3    3    0    0  0.24266374403E-01 -0.59746271117E-02 -0.53407269802E-01  0.58967369659E-01  0.51100000000E-03 0.  1.
         11    1    3    3    0    0  0.17428569493E-01 -0.22795835026E-01 -0.40143467253E-01  0.49347383043E-01  0.51100000000E-03 0. -1.
</event>
<event>
 8    1  0.1099478E+005  0.1043930E+01  0.7957747E-01            NaN
         13   -1    0    0    0    0  0.00000000000E+00  0.00000000000E+00  0.74505805969E-08  0.10566000000E+00  0.10566000000E+00 0. -1.
     999900   -1    0    0    0    0 -0.00000000000E+00 -0.00000000000E+00 -0.74505805969E-08  0.93827000000E+00  0.93827000000E+00 0. -1.
     999902    2    1    2    0    0  0.11602221048E-01 -0.43839778652E-03 -0.20246696960E-01  0.10205904956E+01  0.10203235895E+01 0.  0.
     999903    2    3    3    0    0  0.95260010897E-01 -0.87786655627E-01  0.14174910844E-01  0.13165113267E+00  0.18711655585E-01 0.  0.
         14    1    1    2    0    0 -0.11602221048E-01  0.43839778652E-03  0.20246696960E-01  0.23339504358E-01  0.00000000000E+00 0.  1.
     999901    1    3    3    0    0 -0.83657789849E-01  0.87348257841E-01 -0.34421607804E-01  0.88893936297E+00  0.88000000000E+00 0. -1.
        -11    1    4    4    0    0  0.68919654726E-01 -0.68684429083E-01  0.17769056460E-01  0.98911425500E-01  0.51100000000E-03 0. -1.
         11    1    4    4    0    0  0.26340356170E-01 -0.19102226544E-01 -0.35941456153E-02  0.32739707174E-01  0.51100000000E-03 0.  1.
</event>
<event>
 8    1  0.1099478E+005  0.1043930E+01  0.7957747E-01            NaN
         13   -1    0    0    0    0  0.00000000000E+00  0.00000000000E+00  0.74505805969E-08  0.10566000000E+00  0.10566000000E+00 0.  1.
     999900   -1    0    0    0    0 -0.00000000000E+00 -0.00000000000E+00 -0.74505805969E-08  0.93827000000E+00  0.93827000000E+00 0. -1.
     999902    2    1    2    0    0  0.20227651253E-01 -0.95108024172E-02 -0.70005469596E-02  0.10205073423E+01  0.10202385087E+01 0.  0.
     999903    2    3    3    0    0 -0.43585766029E-01 -0.24758140674E-01  0.11749979906E+00  0.12932555962E+00  0.20154728013E-01 0.  0.
         14    1    1    2    0    0 -0.20227651253E-01  0.95108024172E-02  0.70005469596E-02  0.23422657739E-01  0.00000000000E+00 0.  1.
     999901    1    3    3    0    0  0.63813417283E-01  0.15247338257E-01 -0.12450034602E+00  0.89118178264E+00  0.88000000000E+00 0. -1.
        -11    1    4    4    0    0 -0.11669355677E-01 -0.17780777293E-01  0.42966185883E-01  0.47944594621E-01  0.51100000000E-03 0. -1.
         11    1    4    4    0    0 -0.31916410352E-01 -0.69773633812E-02  0.74533613181E-01  0.81380965000E-01  0.51100000000E-03 0.  1.
</event>
<event>
 8    1  0.1099478E+005  0.1043930E+01  0.7957747E-01            NaN
         13   -1    0    0    0    0  0.00000000000E+00  0.00000000000E+00  0.74505805969E-08  0.10566000000E+00  0.10566000000E+00 0.  1.
     999900   -1    0    0    0    0 -0.00000000000E+00 -0.00000000000E+00 -0.74505805969E-08  0.93827000000E+00  0.93827000000E+00 0. -1.
     999902    2    1    2    0    0 -0.27693463857E-03 -0.17583392258E-01  0.15269205777E-01  0.10206404955E+01  0.10203747449E+01 0.  0.
     999903    2    3    3    0    0 -0.28271054622E-01 -0.12746591459E+00 -0.14026539006E-01  0.13288147404E+00  0.20345280439E-01 0.  0.
         14    1    1    2    0    0  0.27693463857E-03  0.17583392258E-01 -0.15269205777E-01  0.23289504528E-01  0.00000000000E+00 0.  1.
     999901    1    3    3    0    0  0.27994119983E-01  0.10988252233E+00  0.29295744783E-01  0.88775902143E+00  0.88000000000E+00 0.  1.
        -11    1    4    4    0    0 -0.27822160584E-01 -0.10209945555E+00 -0.49770893759E-02  0.10594056817E+00  0.51100000000E-03 0.  1.
         11    1    4    4    0    0 -0.44889403781E-03 -0.25366459034E-01 -0.90494496301E-02  0.26940905876E-01  0.51100000000E-03 0. -1.
</event>
<event>
 8    1  0.1099478E+005  0.1043930E+01  0.7957747E-01            NaN
         13   -1    0    0    0    0  0.00000000000E+00  0.00000000000E+00  0.74505805969E-08  0.10566000000E+00  0.10566000000E+00 0. -1.
     999900   -1    0    0    0    0 -0.00000000000E+00 -0.00000000000E+00 -0.74505805969E-08  0.93827000000E+00  0.93827000000E+00 0. -1.
     999902    2    1    2    0    0  0.23222846156E-02  0.18899460679E-01  0.13297654708E-01  0.10207047930E+01  0.10204405246E+01 0.  0.
     999903    2    3    3    0    0 -0.90861847019E-01 -0.56716558977E-02  0.94010808271E-01  0.13177192977E+00  0.15419678319E-01 0.  0.
         14    1    1    2    0    0 -0.23222846156E-02 -0.18899460679E-01 -0.13297654708E-01  0.23225207007E-01  0.00000000000E+00 0.  1.
     999901    1    3    3    0    0  0.93184131634E-01  0.24571116576E-01 -0.80713153563E-01  0.88893286322E+00  0.88000000000E+00 0.  1.
        -11    1    4    4    0    0 -0.53992985883E-01 -0.17007362267E-02  0.44986848835E-01  0.70300872807E-01  0.51100000000E-03 0.  1.
         11    1    4    4    0    0 -0.36868861135E-01 -0.39709196710E-02  0.49023959437E-01  0.61471056964E-01  0.51100000000E-03 0. -1.
</event>
<event>
 8    1  0.1099478E+005  0.1043930E+01  0.7957747E-01            NaN
         13   -1    0    0    0    0  0.00000000000E+00  0.00000000000E+00  0.74505805969E-08  0.10566000000E+00  0.10566000000E+00 0. -1.
     999900   -1    0    0    0    0 -0.00000000000E+00 -0.00000000000E+00 -0.74505805969E-08  0.93827000000E+00  0.93827000000E+00 0.  1.
     999902    2    1    2    0    0 -0.21008068420E-01  0.11060217495E-01  0.36347803153E-02  0.10199116949E+01  0.10196288474E+01 0.  0.
     999903    2    3    3    0    0  0.21538451864E-01 -0.22538689871E-01  0.12463907605E+00  0.12997847692E+00  0.19687755906E-01 0.  0.
         14    1    1    2    0    0  0.21008068420E-01 -0.11060217495E-01 -0.36347803153E-02  0.24018305055E-01  0.00000000000E+00 0. -1.
     999901    1    3    3    0    0 -0.42546520284E-01  0.33598907366E-01 -0.12100429574E+00  0.88993321803E+00  0.88000000000E+00 0.  1.
        -11    1    4    4    0    0  0.41997164564E-02 -0.10033054419E-01  0.16662612829E-01  0.19904863390E-01  0.51100000000E-03 0. -1.
         11    1    4    4    0    0  0.17338735408E-01 -0.12505635452E-01  0.10797646322E+00  0.11007361353E+00  0.51100000000E-03 0.  1.
</event>
<event>
 8    1  0.1099478E+005  0.1043930E+01  0.7957747E-01            NaN
         13   -1    0    0    0    0  0.00000000000E+00  0.00000000000E+00  0.74505805969E-08  0.10566000000E+00  0.10566000000E+00 0. -1.
     999900   -1    0    0    0    0 -0.00000000000E+00 -0.00000000000E+00 -0.74505805969E-08  0.93827000000E+00  0.93827000000E+00 0. -1.
     999902    2    1    2    0    0  0.96813763735E-02  0.10579809070E-01 -0.12039823888E-01  0.10252051831E+01  0.10250341695E+01 0.  0.
     999903    2    3    3    0    0  0.12828679243E+00  0.23506948730E-01  0.33313987707E-01  0.13599692635E+00  0.19371743538E-01 0.  0.
         14    1    1    2    0    0 -0.96813763735E-02 -0.10579809070E-01  0.12039823888E-01  0.18724816893E-01  0.00000000000E+00 0. -1.
     999901    1    3    3    0    0 -0.11860541606E+00 -0.12927139660E-01 -0.45353811595E-01  0.88920825676E+00  0.88000000000E+00 0. -1.
        -11    1    4    4    0    0  0.98015763946E-01  0.18046668501E-01  0.16766308391E-01  0.10106504066E+00  0.51100000000E-03 0. -1.
         11    1    4    4    0    0  0.30271028489E-01  0.54602802296E-02  0.16547679316E-01  0.34931885688E-01  0.51100000000E-03 0.  1.
</event>
<event>
 8    1  0.1099478E+005  0.1043930E+01  0.7957747E-01            NaN
         13   -1    0    0    0    0  0.00000000000E+00  0.00000000000E+00  0.74505805969E-08  0.10566000000E+00  0.10566000000E+00 0.  1.
     999900   -1    0    0    0    0 -0.00000000000E+00 -0.00000000000E+00 -0.74505805969E-08  0.93827000000E+00  0.93827000000E+00 0.  1.
     999902    2    1    2    0    0 -0.20059128740E-01  0.12678721176E-02  0.13305855120E-01  0.10198256036E+01  0.10195407004E+01 0.  0.
     999903    2    3    3    0    0 -0.68055316929E-01 -0.15825106510E-01  0.11132154004E+00  0.13291925088E+00  0.19826291132E-01 0.  0.
         14    1    1    2    0    0  0.20059128740E-01 -0.12678721176E-02 -0.13305855120E-01  0.24104396403E-01  0.00000000000E+00 0. -1.
     999901    1    3    3    0    0  0.47996188189E-01  0.17092978627E-01 -0.98015684917E-01  0.88690635272E+00  0.88000000000E+00 0.  1.
        -11    1    4    4    0    0 -0.44758081779E-01 -0.17076760746E-02  0.60794087011E-01  0.75514132310E-01  0.51100000000E-03 0.  1.
         11    1    4    4    0    0 -0.23297235150E-01 -0.14117430435E-01  0.50527453026E-01  0.57405118570E-01  0.51100000000E-03 0. -1.
</event>
<event>
 8    1  0.1099478E+005  0.1043930E+01  0.7957747E-01            NaN
         13   -1    0    0    0    0  0.00000000000E+00  0.00000000000E+00  0.74505805969E-08  0.10566000000E+00  0.10566000000E+00 0. -1.
     999900   -1    0    0    0    0 -0.00000000000E+00 -0.00000000000E+00 -0.74505805969E-08  0.93827000000E+00  0.93827000000E+00 0.  1.
     999902    2    1    2    0    0 -0.18618623811E-01  0.15430220873E-01 -0.27008462267E-02  0.10195981394E+01  0.10193077683E+01 0.  0.
     999903    2    3    3    0    0  0.74850224951E-01  0.88994085118E-01 -0.54623160009E-01  0.13007917140E+00  0.20356764486E-01 0.  0.
         14    1    1    2    0    0  0.18618623811E-01 -0.15430220873E-01  0.27008462267E-02  0.24331860577E-01  0.00000000000E+00 0.  1.
     999901    1    3    3    0    0 -0.93468848762E-01 -0.73563864245E-01  0.51922313782E-01  0.88951896803E+00  0.88000000000E+00 0.  1.
        -11    1    4    4    0    0  0.20519208024E-01  0.12390387128E-01 -0.13906352956E-01  0.27716553982E-01  0.51100000000E-03 0.  1.
         11    1    4    4    0    0  0.54331016927E-01  0.76603697990E-01 -0.40716807053E-01  0.10236261741E+00  0.51100000000E-03 0. -1.
</event>
<event>
 8    1  0.1099478E+005  0.1043930E+01  0.7957747E-01            NaN
         13   -1    0    0    0    0  0.00000000000E+00  0.00000000000E+00  0.74505805969E-08  0.10566000000E+00  0.10566000000E+00 0.  1.
     999900   -1    0    0    0    0 -0.00000000000E+00 -0.00000000000E+00 -0.74505805969E-08  0.93827000000E+00  0.93827000000E+00 0. -1.
     999902    2    1    2    0    0  0.18208003671E-01 -0.14525773873E-01 -0.25463548500E-02  0.10204989644E+01  0.10202299363E+01 0.  0.
     999903    2    3    3    0    0  0.11637396623E+00 -0.61569174790E-01  0.10075404994E-01  0.13370194900E+00  0.21000811416E-01 0.  0.
         14    1    1    2    0    0 -0.18208003671E-01  0.14525773873E-01  0.25463548500E-02  0.23431035558E-01  0.00000000000E+00 0.  1.
     999901    1    3    3    0    0 -0.98165962560E-01  0.47043400916E-01 -0.12621759844E-01  0.88679701544E+00  0.88000000000E+00 0.  1.
        -11    1    4    4    0    0  0.18113086298E-01 -0.32814660890E-02  0.60438682283E-02  0.19381469993E-01  0.51100000000E-03 0.  1.
         11    1    4    4    0    0  0.98260879932E-01 -0.58287708701E-01  0.40315367656E-02  0.11432047901E+00  0.51100000000E-03 0. -1.
</event>
<event>
 8    1  0.1099478E+005  0.1043930E+01  0.7957747E-01            NaN
         13   -1    0    0    0    0  0.00000000000E+00  0.00000000000E+00  0.74505805969E-08  0.10566000000E+00  0.10566000000E+00 0.  1.
     999900   -1    0    0    0    0 -0.00000000000E+00 -0.00000000000E+00 -0.74505805969E-08  0.93827000000E+00  0.93827000000E+00 0. -1.
     999902    2    1    2    0    0 -0.18556044038E-02 -0.25672841600E-01  0.16123493890E-01  0.10135572306E+01  0.10131020455E+01 0.  0.
     999903    2    3    3    0    0 -0.79565629594E-01  0.72298451032E-01  0.59562080576E-01  0.12365603780E+00  0.13616857503E-01 0.  0.
         14    1    1    2    0    0  0.18556044038E-02  0.25672841600E-01 -0.16123493890E-01  0.30372769363E-01  0.00000000000E+00 0. -1.
     999901    1    3    3    0    0  0.77710025190E-01 -0.97971292632E-01 -0.43438586686E-01  0.88990119283E+00  0.88000000000E+00 0. -1.
        -11    1    4    4    0    0 -0.37311394647E-01  0.37113438970E-01  0.21881819000E-01  0.56996689785E-01  0.51100000000E-03 0. -1.
         11    1    4    4    0    0 -0.42254234947E-01  0.35185012062E-01  0.37680261576E-01  0.66659348018E-01  0.51100000000E-03 0.  1.
</event>
<event>
 8    1  0.1099478E+005  0.1043930E+01  0.7957747E-01            NaN
         13   -1    0    0    0    0  0.00000000000E+00  0.00000000000E+00  0.74505805969E-08  0.10566000000E+00  0.10566000000E+00 0. -1.
     999900   -1    0    0    0    0 -0.00000000000E+00 -0.00000000000E+00 -0.74505805969E-08  0.93827000000E+00  0.93827000000E+00 0.  1.
     999902    2    1    2    0    0 -0.23214688112E-01  0.78747059368E-03 -0.26464227109E-02  0.10205516894E+01  0.10202838847E+01 0.  0.
     999903    2    3    3    0    0 -0.58877355746E-01  0.42867685023E-01 -0.10884267835E+00  0.13245247476E+00  0.19817870711E-01 0.  0.
         14    1    1    2    0    0  0.23214688112E-01 -0.78747059368E-03  0.26464227109E-02  0.23378310615E-01  0.00000000000E+00 0.  1.
     999901    1    3    3    0    0  0.35662667634E-01 -0.42080214430E-01  0.10619625564E+00  0.88809921463E+00  0.88000000000E+00 0. -1.
        -11    1    4    4    0    0 -0.27592870861E-01  0.15376650261E-01 -0.63240419206E-01  0.70692429849E-01  0.51100000000E-03 0. -1.
         11    1    4    4    0    0 -0.31284484885E-01  0.27491034763E-01 -0.45602259146E-01  0.61760044909E-01  0.51100000000E-03 0.  1.
</event>
<event>
 8    1  0.1099478E+005  0.1043930E+01  0.7957747E-01            NaN
         13   -1    0    0    0    0  0.00000000000E+00  0.00000000000E+00  0.74505805969E-08  0.10566000000E+00  0.10566000000E+00 0.  1.
     999900   -1    0    0    0    0 -0.00000000000E+00 -0.00000000000E+00 -0.74505805969E-08  0.93827000000E+00  0.93827000000E+00 0. -1.
     999902    2    1    2    0    0  0.11178998296E-01  0.11995111461E-01 -0.15994587252E-01  0.10210241160E+01  0.10207671458E+01 0.  0.
     999903    2    3    3    0    0  0.22487292949E-01 -0.78342344248E-01 -0.10227676008E+00  0.13212966398E+00  0.18828467891E-01 0.  0.
         14    1    1    2    0    0 -0.11178998296E-01 -0.11995111461E-01  0.15994587252E-01  0.22905884031E-01  0.00000000000E+00 0.  1.
     999901    1    3    3    0    0 -0.11308294653E-01  0.90337455709E-01  0.86282172832E-01  0.88889445199E+00  0.88000000000E+00 0.  1.
        -11    1    4    4    0    0  0.19971258739E-01 -0.68590987740E-01 -0.77630493658E-01  0.10550037650E+00  0.51100000000E-03 0.  1.
         11    1    4    4    0    0  0.25160342101E-02 -0.97513565078E-02 -0.24646266427E-01  0.26629287479E-01  0.51100000000E-03 0. -1.
</event>
<event>
 8    1  0.1099478E+005  0.1043930E+01  0.7957747E-01            NaN
         13   -1    0    0    0    0  0.00000000000E+00  0.00000000000E+00  0.74505805969E-08  0.10566000000E+00  0.10566000000E+00 0.  1.
     999900   -1    0    0    0    0 -0.00000000000E+00 -0.00000000000E+00 -0.74505805969E-08  0.93827000000E+00  0.93827000000E+00 0.  1.
     999902    2    1    2    0    0 -0.45412400599E-02 -0.36945860042E-02 -0.22800900781E-01  0.10203895263E+01  0.10201179498E+01 0.  0.
     999903    2    3    3    0    0 -0.12163158791E+00  0.29521853191E-01  0.30637297463E-01  0.13040687339E+00  0.20038104634E-01 0.  0.
         14    1    1    2    0    0  0.45412400599E-02  0.36945860042E-02  0.22800900781E-01  0.23540473731E-01  0.00000000000E+00 0.  1.
     999901    1    3    3    0    0  0.11709034785E+00 -0.33216439195E-01 -0.53438198244E-01  0.88998265288E+00  0.88000000000E+00 0.  1.
        -11    1    4    4    0    0 -0.82183311981E-01  0.23568542415E-01  0.11878600472E-01  0.86318799979E-01  0.51100000000E-03 0.  1.
         11    1    4    4    0    0 -0.39448275933E-01  0.59533107757E-02  0.18758696991E-01  0.44088073411E-01  0.51100000000E-03 0. -1.
</event>
<event>
 8    1  0.1099478E+005  0.1043930E+01  0.7957747E-01            NaN
         13   -1    0    0    0    0  0.00000000000E+00  0.00000000000E+00  0.74505805969E-08  0.10566000000E+00  0.10566000000E+00 0. -1.
     999900   -1    0    0    0    0 -0.00000000000E+00 -0.00000000000E+00 -0.74505805969E-08  0.93827000000E+00  0.93827000000E+00 0. -1.
     999902    2    1    2    0    0  0.18253710957E-01  0.98769467129E-02 -0.11027865476E-01  0.10204275351E+01  0.10201568451E+01 0.  0.
     999903    2    3    3    0    0  0.13152327440E-01  0.39308370534E-01 -0.12475581569E+00  0.13260644980E+00  0.17387503263E-01 0.  0.
         14    1    1    2    0    0 -0.18253710957E-01 -0.98769467129E-02  0.11027865476E-01  0.23502464914E-01  0.00000000000E+00 0. -1.
     999901    1    3    3    0    0  0.51013835173E-02 -0.29431423821E-01  0.11372795021E+00  0.88782108529E+00  0.88000000000E+00 0.  1.
        -11    1    4    4    0    0  0.53703617498E-02  0.35699378706E-01 -0.10588176363E+00  0.11186820556E+00  0.51100000000E-03 0.  1.
         11    1    4    4    0    0  0.77819656901E-02  0.36089918279E-02 -0.18874052056E-01  0.20738244237E-01  0.51100000000E-03 0. -1.
</event>
<event>
 8    1  0.1099478E+005  0.1043930E+01  0.7957747E-01            NaN
         13   -1    0    0    0    0  0.00000000000E+00  0.00000000000E+00  0.74505805969E-08  0.10566000000E+00  0.10566000000E+00 0. -1.
     999900   -1    0    0    0    0 -0.00000000000E+00 -0.00000000000E+00 -0.74505805969E-08  0.93827000000E+00  0.93827000000E+00 0.  1.
     999902    2    1    2    0    0  0.13437663277E-01 -0.12294995827E-01 -0.15509029236E-01  0.10200078825E+01  0.10197273227E+01 0.  0.
     999903    2    3    3    0    0 -0.77962070994E-01 -0.25884492383E-01 -0.99754456429E-01  0.13116825816E+00  0.22495975433E-01 0.  0.
         14    1    1    2    0    0 -0.13437663277E-01  0.12294995827E-01  0.15509029236E-01  0.23922117477E-01  0.00000000000E+00 0. -1.
     999901    1    3    3    0    0  0.91399734271E-01  0.13589496557E-01  0.84245427193E-01  0.88883962437E+00  0.88000000000E+00 0.  1.
        -11    1    4    4    0    0 -0.50282440068E-01 -0.26400535719E-01 -0.74602523025E-01  0.93760917381E-01  0.51100000000E-03 0. -1.
         11    1    4    4    0    0 -0.27679630926E-01  0.51604333519E-03 -0.25151933404E-01  0.37407340775E-01  0.51100000000E-03 0.  1.
</event>
<event>
 8    1  0.1099478E+005  0.1043930E+01  0.7957747E-01            NaN
         13   -1    0    0    0    0  0.00000000000E+00  0.00000000000E+00  0.74505805969E-08  0.10566000000E+00  0.10566000000E+00 0.  1.
     999900   -1    0    0    0    0 -0.00000000000E+00 -0.00000000000E+00 -0.74505805969E-08  0.93827000000E+00  0.93827000000E+00 0.  1.
     999902    2    1    2    0    0  0.20025244596E-01 -0.53008595784E-02  0.10617561691E-01  0.10206524969E+01  0.10203870233E+01 0.  0.
     999903    2    3    3    0    0 -0.63657480093E-01  0.70991129724E-01  0.86211905157E-01  0.13018196355E+00  0.20562970859E-01 0.  0.
         14    1    1    2    0    0 -0.20025244596E-01  0.53008595784E-02 -0.10617561691E-01  0.23277503081E-01  0.00000000000E+00 0.  1.
     999901    1    3    3    0    0  0.83682724689E-01 -0.76291989302E-01 -0.75594343466E-01  0.89047053337E+00  0.88000000000E+00 0.  1.
        -11    1    4    4    0    0 -0.52026435622E-01  0.67343962951E-01  0.78290501839E-01  0.11563573474E+00  0.51100000000E-03 0. -1.
         11    1    4    4    0    0 -0.11631044471E-01  0.36471667722E-02  0.79214033180E-02  0.14546228806E-01  0.51100000000E-03 0.  1.
</event>
<event>
 8    1  0.1099478E+005  0.1043930E+01  0.7957747E-01            NaN
         13   -1    0    0    0    0  0.00000000000E+00  0.00000000000E+00  0.74505805969E-08  0.10566000000E+00  0.10566000000E+00 0. -1.
     999900   -1    0    0    0    0 -0.00000000000E+00 -0.00000000000E+00 -0.74505805969E-08  0.93827000000E+00  0.93827000000E+00 0.  1.
     999902    2    1    2    0    0 -0.18921319758E-01  0.14745761184E-01  0.56529168021E-02  0.10192843253E+01  0.10189863230E+01 0.  0.
     999903    2    3    3    0    0  0.38863165795E-01  0.11100425809E+00  0.53723135663E-01  0.13085003342E+00  0.20081458436E-01 0.  0.
         14    1    1    2    0    0  0.18921319758E-01 -0.14745761184E-01 -0.56529168021E-02  0.24645674725E-01  0.00000000000E+00 0.  1.
     999901    1    3    3    0    0 -0.57784485552E-01 -0.96258496902E-01 -0.48070218861E-01  0.88843429185E+00  0.88000000000E+00 0.  1.
        -11    1    4    4    0    0  0.22121957200E-01  0.56549575850E-01  0.16969413045E-01  0.63051230117E-01  0.51100000000E-03 0.  1.
         11    1    4    4    0    0  0.16741208595E-01  0.54454682235E-01  0.36753722618E-01  0.67798803307E-01  0.51100000000E-03 0. -1.
</event>
<event>
 8    1  0.1099478E+005  0.1043930E+01  0.7957747E-01            NaN
         13   -1    0    0    0    0  0.00000000000E+00  0.00000000000E+00  0.74505805969E-08  0.10566000000E+00  0.10566000000E+00 0.  1.
     999900   -1    0    0    0    0 -0.00000000000E+00 -0.00000000000E+00 -0.74505805969E-08  0.93827000000E+00  0.93827000000E+00 0. -1.
     999902    2    1    2    0    0  0.19328264522E-01 -0.79671281579E-02 -0.10944210747E-01  0.10203326974E+01  0.10200597927E+01 0.  0.
     999903    2    3    3    0    0  0.11674871977E+00  0.56981570391E-01  0.12761078055E-01  0.13226118044E+00  0.21284073995E-01 0.  0.
         14    1    1    2    0    0 -0.19328264522E-01  0.79671281579E-02  0.10944210747E-01  0.23597302587E-01  0.00000000000E+00 0.  1.
     999901    1    3    3    0    0 -0.97420455247E-01 -0.64948698549E-01 -0.23705288802E-01  0.88807151697E+00  0.88000000000E+00 0. -1.
        -11    1    4    4    0    0  0.81433688380E-01  0.28665406036E-01  0.99701857856E-02  0.86906943520E-01  0.51100000000E-03 0. -1.
         11    1    4    4    0    0  0.35315031389E-01  0.28316164355E-01  0.27908922694E-02  0.45354236919E-01  0.51100000000E-03 0.  1.
</event>
<event>
 8    1  0.1099478E+005  0.1043930E+01  0.7957747E-01            NaN
         13   -1    0    0    0    0  0.00000000000E+00  0.00000000000E+00  0.74505805969E-08  0.10566000000E+00  0.10566000000E+00 0.  1.
     999900   -1    0    0    0    0 -0.00000000000E+00 -0.00000000000E+00 -0.74505805969E-08  0.93827000000E+00  0.93827000000E+00 0. -1.
     999902    2    1    2    0    0  0.21846271711E-01  0.69384153350E-02 -0.72367078557E-02  0.10198931297E+01  0.10196098395E+01 0.  0.
     999903    2    3    3    0    0 -0.44486307722E-01 -0.11654185054E+00 -0.23945183571E-01  0.12864313089E+00  0.20362927272E-01 0.  0.
         14    1    1    2    0    0 -0.21846271711E-01 -0.69384153350E-02  0.72367078557E-02  0.24036870337E-01  0.00000000000E+00 0.  1.
     999901    1    3    3    0    0  0.66332579433E-01  0.12348026587E+00  0.16708475715E-01  0.89124999877E+00  0.88000000000E+00 0.  1.
        -11    1    4    4    0    0 -0.24204760399E-01 -0.41001348900E-01 -0.32085045134E-02  0.47723544082E-01  0.51100000000E-03 0. -1.
         11    1    4    4    0    0 -0.20281547323E-01 -0.75540501638E-01 -0.20736679058E-01  0.80919586806E-01  0.51100000000E-03 0.  1.
</event>
<event>
 8    1  0.1099478E+005  0.1043930E+01  0.7957747E-01            NaN
         13   -1    0    0    0    0  0.00000000000E+00  0.00000000000E+00  0.74505805969E-08  0.10566000000E+00  0.10566000000E+00 0.  1.
     999900   -1    0    0    0    0 -0.00000000000E+00 -0.00000000000E+00 -0.74505805969E-08  0.93827000000E+00  0.93827000000E+00 0. -1.
     999902    2    1    2    0    0  0.23977041997E-02  0.43560139563E-02  0.22256801969E-01  0.10211245384E+01  0.10208698418E+01 0.  0.
     999903    2    3    3    0    0  0.66229909003E-01 -0.12590988871E-01 -0.10832156232E+00  0.12904132456E+00  0.19317575753E-01 0.  0.
         14    1    1    2    0    0 -0.23977041997E-02 -0.43560139563E-02 -0.22256801969E-01  0.22805461559E-01  0.00000000000E+00 0. -1.
     999901    1    3    3    0    0 -0.63832204803E-01  0.16947002827E-01  0.13057836429E+00  0.89208321388E+00  0.88000000000E+00 0.  1.
        -11    1    4    4    0    0  0.56801425260E-01 -0.79601957081E-02 -0.10124948232E+00  0.11636788826E+00  0.51100000000E-03 0.  1.
         11    1    4    4    0    0  0.94284837432E-02 -0.46307931629E-02 -0.70720799952E-02  0.12673436293E-01  0.51100000000E-03 0. -1.
</event>
<event>
 8    1  0.1099478E+005  0.1043930E+01  0.7957747E-01            NaN
         13   -1    0    0    0    0  0.00000000000E+00  0.00000000000E+00  0.74505805969E-08  0.10566000000E+00  0.10566000000E+00 0.  1.
     999900   -1    0    0    0    0 -0.00000000000E+00 -0.00000000000E+00 -0.74505805969E-08  0.93827000000E+00  0.93827000000E+00 0.  1.
     999902    2    1    2    0    0 -0.15073213424E-01 -0.99762206774E-02 -0.16267201073E-01  0.10196123403E+01  0.10193223121E+01 0.  0.
     999903    2    3    3    0    0 -0.22228298537E-01 -0.83554089841E-01 -0.98107588183E-01  0.13272861229E+00  0.22724490654E-01 0.  0.
         14    1    1    2    0    0  0.15073213424E-01  0.99762206774E-02  0.16267201073E-01  0.24317659687E-01  0.00000000000E+00 0.  1.
     999901    1    3    3    0    0  0.71550851139E-02  0.73577869164E-01  0.81840387110E-01  0.88688372803E+00  0.88000000000E+00 0. -1.
        -11    1    4    4    0    0 -0.24371779477E-01 -0.56156128580E-01 -0.59791236502E-01  0.85573053559E-01  0.51100000000E-03 0. -1.
         11    1    4    4    0    0  0.21434809392E-02 -0.27397961261E-01 -0.38316351682E-01  0.47155558729E-01  0.51100000000E-03 0.  1.
</event>
<event>
 8    1  0.1099478E+005  0.1043930E+01  0.7957747E-01            NaN
         13   -1    0    0    0    0  0.00000000000E+00  0.00000000000E+00  0.74505805969E-08  0.10566000000E+00  0.10566000000E+00 0.  1.
     999900   -1    0    0    0    0 -0.00000000000E+00 -0.00000000000E+00 -0.74505805969E-08  0.93827000000E+00  0.93827000000E+00 0.  1.
     999902    2    1    2    0    0 -0.16767441662E-01  0.15335354792E-01  0.76711917194E-02  0.10199473523E+01  0.10196653540E+01 0.  0.
     999903    2    3    3    0    0 -0.41153091495E-01 -0.12069522682E+00 -0.22714719490E-02  0.12910626908E+00  0.20058774035E-01 0.  0.
         14    1    1    2    0    0  0.16767441662E-01 -0.15335354792E-01 -0.76711917194E-02  0.23982647663E-01  0.00000000000E+00 0.  1.
     999901    1    3    3    0    0  0.24385649832E-01  0.13603058161E+00  0.99426636684E-02  0.89084108325E+00  0.88000000000E+00 0. -1.
        -11    1    4    4    0    0 -0.39186043431E-01 -0.11729044690E+00 -0.57974380751E-02  0.12380010639E+00  0.51100000000E-03 0. -1.
         11    1    4    4    0    0 -0.19670480630E-02 -0.34047799167E-02  0.35259661261E-02  0.53061626893E-02  0.51100000000E-03 0.  1.
</event>
<event>
 8    1  0.1099478E+005  0.1043930E+01  0.7957747E-01            NaN
         13   -1    0    0    0    0  0.00000000000E+00  0.00000000000E+00  0.74505805969E-08  0.10566000000E+00  0.10566000000E+00 0. -1.
     999900   -1    0    0    0    0 -0.00000000000E+00 -0.00000000000E+00 -0.74505805969E-08  0.93827000000E+00  0.93827000000E+00 0. -1.
     999902    2    1    2    0    0  0.21467687255E-01 -0.56424580732E-02 -0.91435735289E-02  0.10199236703E+01  0.10196411081E+01 0.  0.
     999903    2    3    3    0    0 -0.27296375276E-01 -0.99647727141E-01  0.75678669260E-01  0.12952503076E+00  0.19357452957E-01 0.  0.
         14    1    1    2    0    0 -0.21467687255E-01  0.56424580732E-02  0.91435735289E-02  0.24006329709E-01  0.00000000000E+00 0.  1.
     999901    1    3    3    0    0  0.48764062531E-01  0.94005269068E-01 -0.84822242789E-01  0.89039863953E+00  0.88000000000E+00 0. -1.
        -11    1    4    4    0    0 -0.15571941268E-01 -0.28947368555E-01  0.30236802712E-01  0.44664984724E-01  0.51100000000E-03 0.  1.
         11    1    4    4    0    0 -0.11724434007E-01 -0.70700358586E-01  0.45441866547E-01  0.84860046036E-01  0.51100000000E-03 0. -1.
</event>
<event>
 8    1  0.1099478E+005  0.1043930E+01  0.7957747E-01            NaN
         13   -1    0    0    0    0  0.00000000000E+00  0.00000000000E+00  0.74505805969E-08  0.10566000000E+00  0.10566000000E+00 0.  1.
     999900   -1    0    0    0    0 -0.00000000000E+00 -0.00000000000E+00 -0.74505805969E-08  0.93827000000E+00  0.93827000000E+00 0. -1.
     999902    2    1    2    0    0 -0.21555491898E-02 -0.12576857909E-01 -0.19551934120E-01  0.10205825831E+01  0.10203154939E+01 0.  0.
     999903    2    3    3    0    0 -0.12170391253E+00  0.40828751940E-01 -0.15454411603E-01  0.13088557850E+00  0.20331416819E-01 0.  0.
         14    1    1    2    0    0  0.21555491898E-02  0.12576857909E-01  0.19551934120E-01  0.23347416881E-01  0.00000000000E+00 0.  1.
     999901    1    3    3    0    0  0.11954836334E+00 -0.53405609850E-01 -0.40975225169E-02  0.88969700462E+00  0.88000000000E+00 0. -1.
        -11    1    4    4    0    0 -0.13341391561E-01 -0.18351706402E-02 -0.70133909170E-03  0.13494946372E-01  0.51100000000E-03 0. -1.
         11    1    4    4    0    0 -0.10836252097E+00  0.42663922580E-01 -0.14753072511E-01  0.11739063213E+00  0.51100000000E-03 0.  1.
</event>
<event>
 8    1  0.1099478E+005  0.1043930E+01  0.7957747E-01            NaN
         13   -1    0    0    0    0  0.00000000000E+00  0.00000000000E+00  0.74505805969E-08  0.10566000000E+00  0.10566000000E+00 0. -1.
     999900   -1    0    0    0    0 -0.00000000000E+00 -0.00000000000E+00 -0.74505805969E-08  0.93827000000E+00  0.93827000000E+00 0. -1.
     999902    2    1    2    0    0  0.57875082431E-02  0.17851705142E-01  0.54406378040E-02  0.10243908299E+01  0.10242044685E+01 0.  0.
     999903    2    3    3    0    0 -0.51206596909E-01 -0.81245093886E-01 -0.88390847063E-01  0.13204961089E+00  0.20031900690E-01 0.  0.
         14    1    1    2    0    0 -0.57875082431E-02 -0.17851705142E-01 -0.54406378040E-02  0.19539170091E-01  0.00000000000E+00 0.  1.
     999901    1    3    3    0    0  0.56994105152E-01  0.99096799028E-01  0.93831484867E-01  0.89234121901E+00  0.88000000000E+00 0.  1.
        -11    1    4    4    0    0 -0.30787851115E-01 -0.51253173607E-01 -0.41609799406E-01  0.72845151580E-01  0.51100000000E-03 0.  1.
         11    1    4    4    0    0 -0.20418745794E-01 -0.29991920278E-01 -0.46781047657E-01  0.59204459314E-01  0.51100000000E-03 0. -1.
</event>
<event>
 8    1  0.1099478E+005  0.1043930E+01  0.7957747E-01            NaN
         13   -1    0    0    0    0  0.00000000000E+00  0.00000000000E+00  0.74505805969E-08  0.10566000000E+00  0.10566000000E+00 0.  1.
     999900   -1    0    0    0    0 -0.00000000000E+00 -0.00000000000E+00 -0.74505805969E-08  0.93827000000E+00  0.93827000000E+00 0. -1.
     999902    2    1    2    0    0  0.44787371301E-02  0.19713561637E-01  0.11225518449E-01  0.10208065084E+01  0.10205445761E+01 0.  0.
     999903    2    3    3    0    0  0.90731894584E-01 -0.81561176369E-01 -0.38170238249E-01  0.12943895207E+00  0.20321738077E-01 0.  0.
         14    1    1    2    0    0 -0.44787371301E-02 -0.19713561637E-01 -0.11225518449E-01  0.23123491587E-01  0.00000000000E+00 0. -1.
     999901    1    3    3    0    0 -0.86253157454E-01  0.10127473801E+00  0.49395756699E-01  0.89136755635E+00  0.88000000000E+00 0. -1.
        -11    1    4    4    0    0  0.26296822456E-01 -0.16029839313E-01 -0.26739348941E-02  0.30917465428E-01  0.51100000000E-03 0.  1.
         11    1    4    4    0    0  0.64435072128E-01 -0.65531337056E-01 -0.35496303355E-01  0.98521486638E-01  0.51100000000E-03 0. -1.
</event>
<event>
 8    1  0.1099478E+005  0.1043930E+01  0.7957747E-01            NaN
         13   -1    0    0    0    0  0.00000000000E+00  0.00000000000E+00  0.74505805969E-08  0.10566000000E+00  0.10566000000E+00 0. -1.
     999900   -1    0    0    0    0 -0.00000000000E+00 -0.00000000000E+00 -0.74505805969E-08  0.93827000000E+00  0.93827000000E+00 0.  1.
     999902    2    1    2    0    0 -0.24746203531E-01  0.15984134532E-02 -0.15994529005E-03  0.10191317118E+01  0.10188299617E+01 0.  0.
     999903    2    3    3    0    0 -0.39370265361E-01  0.11296475944E+00  0.48631167210E-01  0.13065160575E+00  0.19844318864E-01 0.  0.
         14    1    1    2    0    0  0.24746203531E-01 -0.15984134532E-02  0.15994529005E-03  0.24798288192E-01  0.00000000000E+00 0. -1.
     999901    1    3    3    0    0  0.14624061830E-01 -0.11136634598E+00 -0.48791112500E-01  0.88848010606E+00  0.88000000000E+00 0.  1.
        -11    1    4    4    0    0 -0.31459745033E-01  0.68242580051E-01  0.37025620986E-01  0.83773044710E-01  0.51100000000E-03 0. -1.
         11    1    4    4    0    0 -0.79105203281E-02  0.44722179387E-01  0.11605546224E-01  0.46878561039E-01  0.51100000000E-03 0.  1.
</event>
<event>
 8    1  0.1099478E+005  0.1043930E+01  0.7957747E-01            NaN
         13   -1    0    0    0    0  0.00000000000E+00  0.00000000000E+00  0.74505805969E-08  0.10566000000E+00  0.10566000000E+00 0.  1.
     999900   -1    0    0    0    0 -0.00000000000E+00 -0.00000000000E+00 -0.74505805969E-08  0.93827000000E+00  0.93827000000E+00 0. -1.
     999902    2    1    2    0    0 -0.13924561979E-01 -0.30599455581E-02 -0.17787429611E-01  0.10211341814E+01  0.10208797026E+01 0.  0.
     999903    2    3    3    0    0 -0.13546149835E-01 -0.30299777319E-01  0.12359563406E+00  0.12943281754E+00  0.19375211399E-01 0.  0.
         14    1    1    2    0    0  0.13924561979E-01  0.30599455581E-02  0.17787429611E-01  0.22795818593E-01  0.00000000000E+00 0.  1.
     999901    1    3    3    0    0 -0.37841214394E-03  0.27239831761E-01 -0.14138306367E+00  0.89170136387E+00  0.88000000000E+00 0. -1.
        -11    1    4    4    0    0 -0.24261965187E-02 -0.80980615302E-02  0.68207529186E-01  0.68731311560E-01  0.51100000000E-03 0. -1.
         11    1    4    4    0    0 -0.11119953317E-01 -0.22201715789E-01  0.55388104873E-01  0.60701505980E-01  0.51100000000E-03 0.  1.
</event>
<event>
 8    1  0.1099478E+005  0.1043930E+01  0.7957747E-01            NaN
         13   -1    0    0    0    0  0.00000000000E+00  0.00000000000E+00  0.74505805969E-08  0.10566000000E+00  0.10566000000E+00 0. -1.
     999900   -1    0    0    0    0 -0.00000000000E+00 -0.00000000000E+00 -0.74505805969E-08  0.93827000000E+00  0.93827000000E+00 0. -1.
     999902    2    1    2    0    0 -0.10792277639E-01  0.20297654618E-01 -0.32813106854E-02  0.10207085651E+01  0.10204443835E+01 0.  0.
     999903    2    3    3    0    0 -0.19304840545E-02 -0.84844352231E-01  0.94942757983E-01  0.12897915509E+00  0.20474478744E-01 0.  0.
         14    1    1    2    0    0  0.10792277639E-01 -0.20297654618E-01  0.32813106854E-02  0.23221434913E-01  0.00000000000E+00 0. -1.
     999901    1    3    3    0    0 -0.88617935842E-02  0.10514200685E+00 -0.98224068668E-01  0.89172941000E+00  0.88000000000E+00 0. -1.
        -11    1    4    4    0    0  0.39071003975E-02 -0.44805272069E-01  0.36658850740E-01  0.58025083346E-01  0.51100000000E-03 0. -1.
         11    1    4    4    0    0 -0.58375844520E-02 -0.40039080162E-01  0.58283907243E-01  0.70954071743E-01  0.51100000000E-03 0.  1.
</event>
<event>
 8    1  0.1099478E+005  0.1043930E+01  0.7957747E-01            NaN
         13   -1    0    0    0    0  0.00000000000E+00  0.00000000000E+00  0.74505805969E-08  0.10566000000E+00  0.10566000000E+00 0. -1.
     999900   -1    0    0    0    0 -0.00000000000E+00 -0.00000000000E+00 -0.74505805969E-08  0.93827000000E+00  0.93827000000E+00 0.  1.
     999902    2    1    2    0    0  0.18090612447E-01 -0.14446035739E-01  0.48616534695E-02  0.10202742632E+01  0.10199999894E+01 0.  0.
     999903    2    3    3    0    0  0.42978249313E-01  0.73421516872E-01  0.97286047157E-01  0.13073372464E+00  0.19720109830E-01 0.  0.
         14    1    1    2    0    0 -0.18090612447E-01  0.14446035739E-01 -0.48616534695E-02  0.23655736761E-01  0.00000000000E+00 0.  1.
     999901    1    3    3    0    0 -0.24887636867E-01 -0.87867552611E-01 -0.92424393688E-01  0.88954053860E+00  0.88000000000E+00 0.  1.
        -11    1    4    4    0    0  0.41599095709E-01  0.60770904800E-01  0.89086903030E-01  0.11558687229E+00  0.51100000000E-03 0. -1.
         11    1    4    4    0    0  0.13791536046E-02  0.12650612072E-01  0.81991441275E-02  0.15146852342E-01  0.51100000000E-03 0.  1.
</event>
<event>
 8    1  0.1099478E+005  0.1043930E+01  0.7957747E-01            NaN
         13   -1    0    0    0    0  0.00000000000E+00  0.00000000000E+00  0.74505805969E-08  0.10566000000E+00  0.10566000000E+00 0. -1.
     999900   -1    0    0    0    0 -0.00000000000E+00 -0.00000000000E+00 -0.74505805969E-08  0.93827000000E+00  0.93827000000E+00 0. -1.
     999902    2    1    2    0    0 -0.38059409074E-02 -0.35972719366E-02  0.23298311270E-01  0.10200503673E+01  0.10197708149E+01 0.  0.
     999903    2    3    3    0    0 -0.69181041979E-01 -0.10438274214E+00 -0.29934814974E-01  0.13029456898E+00  0.19970181103E-01 0.  0.
         14    1    1    2    0    0  0.38059409074E-02  0.35972719366E-02 -0.23298311270E-01  0.23879632736E-01  0.00000000000E+00 0.  1.
     999901    1    3    3    0    0  0.65375101071E-01  0.10078547020E+00  0.53233126243E-01  0.88975579828E+00  0.88000000000E+00 0.  1.
        -11    1    4    4    0    0 -0.23240302641E-02 -0.79715208144E-02  0.22817952386E-02  0.86263533010E-02  0.51100000000E-03 0. -1.
         11    1    4    4    0    0 -0.66857011715E-01 -0.96411221326E-01 -0.32216610212E-01  0.12166821568E+00  0.51100000000E-03 0.  1.
</event>
<event>
 8    1  0.1099478E+005  0.1043930E+01  0.7957747E-01            NaN
         13   -1    0    0    0    0  0.00000000000E+00  0.00000000000E+00  0.74505805969E-08  0.10566000000E+00  0.10566000000E+00 0.  1.
     999900   -1    0    0    0    0 -0.00000000000E+00 -0.00000000000E+00 -0.74505805969E-08  0.93827000000E+00  0.93827000000E+00 0.  1.
     999902    2    1    2    0    0 -0.14012156664E-01  0.59962010169E-02  0.33525542001E-01  0.10071026063E+01  0.10064290351E+01 0.  0.
     999903    2    3    3    0    0 -0.31783432077E-01  0.96040702118E-01  0.65411064319E-01  0.12175492490E+00  0.17653650734E-01 0.  0.
         14    1    1    2    0    0  0.14012156664E-01 -0.59962010169E-02 -0.33525542001E-01  0.36827393711E-01  0.00000000000E+00 0.  1.
     999901    1    3    3    0    0  0.17771275413E-01 -0.90044501101E-01 -0.31885522317E-01  0.88534768139E+00  0.88000000000E+00 0.  1.
        -11    1    4    4    0    0 -0.21351452854E-01  0.45553945869E-01  0.24616018976E-01  0.56011213471E-01  0.51100000000E-03 0. -1.
         11    1    4    4    0    0 -0.10431979223E-01  0.50486756249E-01  0.40795045342E-01  0.65743711429E-01  0.51100000000E-03 0.  1.
</event>
<event>
 8    1  0.1099478E+005  0.1043930E+01  0.7957747E-01            NaN
         13   -1    0    0    0    0  0.00000000000E+00  0.00000000000E+00  0.74505805969E-08  0.10566000000E+00  0.10566000000E+00 0.  1.
     999900   -1    0    0    0    0 -0.00000000000E+00 -0.00000000000E+00 -0.74505805969E-08  0.93827000000E+00  0.93827000000E+00 0.  1.
     999902    2    1    2    0    0  0.14377434358E-01  0.12876387780E-01 -0.13777459458E-01  0.10202164939E+01  0.10199408630E+01 0.  0.
     999903    2    3    3    0    0 -0.52997490970E-02 -0.12125471406E+00  0.36953741049E-01  0.12839139968E+00  0.19697195524E-01 0.  0.
         14    1    1    2    0    0 -0.14377434358E-01 -0.12876387780E-01  0.13777459458E-01  0.23713506069E-01  0.00000000000E+00 0.  1.
     999901    1    3    3    0    0  0.19677183455E-01  0.13413110184E+00 -0.50731200507E-01  0.89182509425E+00  0.88000000000E+00 0.  1.
        -11    1    4    4    0    0 -0.58719366239E-02 -0.14852221791E-01  0.75327536293E-03  0.15996770818E-01  0.51100000000E-03 0. -1.
         11    1    4    4    0    0  0.57218752690E-03 -0.10640249227E+00  0.36200465686E-01  0.11239462886E+00  0.51100000000E-03 0.  1.
</event>
<event>
 8    1  0.1099478E+005  0.1043930E+01  0.7957747E-01            NaN
         13   -1    0    0    0    0  0.00000000000E+00  0.00000000000E+00  0.74505805969E-08  0.10566000000E+00  0.10566000000E+00 0.  1.
     999900   -1    0    0    0    0 -0.00000000000E+00 -0.00000000000E+00 -0.74505805969E-08  0.93827000000E+00  0.93827000000E+00 0.  1.
     999902    2    1    2    0    0  0.21048676054E-01  0.12448616422E-01 -0.64498449613E-02  0.10186393829E+01  0.10183253788E+01 0.  0.
     999903    2    3    3    0    0 -0.12002006106E+00 -0.27289379650E-01 -0.20794402680E-01  0.12640328001E+00  0.19896148282E-01 0.  0.
         14    1    1    2    0    0 -0.21048676054E-01 -0.12448616422E-01  0.64498449613E-02  0.25290617123E-01  0.00000000000E+00 0. -1.
     999901    1    3    3    0    0  0.14106873711E+00  0.39737996072E-01  0.14344557719E-01  0.89223610287E+00  0.88000000000E+00 0. -1.
        -11    1    4    4    0    0 -0.88037547405E-01 -0.11886068273E-01 -0.10609433616E-01  0.89469042550E-01  0.51100000000E-03 0. -1.
         11    1    4    4    0    0 -0.31982513653E-01 -0.15403311378E-01 -0.10184969064E-01  0.36934237461E-01  0.51100000000E-03 0.  1.
</event>
<event>
 7    1  0.1099478E+005  0.1043930E+01  0.7957747E-01            NaN
         13   -1    0    0    0    0  0.00000000000E+00  0.00000000000E+00  0.74505805969E-08  0.10566000000E+00  0.10566000000E+00 0. -1.
     999900   -1    0    0    0    0 -0.00000000000E+00 -0.00000000000E+00 -0.74505805969E-08  0.93827000000E+00  0.93827000000E+00 0.  1.
     999903    2    1    2    0    0  0.22688058165E-01  0.71294823213E-01 -0.16013797838E-02  0.77491662488E-01  0.20116996238E-01 0.  0.
         14    1    1    2    0    0  0.28615341016E-02  0.98205580603E-03 -0.79346682112E-01  0.79404337245E-01  0.00000000000E+00 0.  1.
     999901    1    1    2    0    0 -0.25549592266E-01 -0.72276879019E-01  0.80948061896E-01  0.88703400027E+00  0.88000000000E+00 0. -1.
        -11    1    3    3    0    0  0.38274664664E-02  0.36112668425E-02  0.45276828214E-02  0.69607313186E-02  0.51100000000E-03 0. -1.
         11    1    3    3    0    0  0.18860591698E-01  0.67683556371E-01 -0.61290626052E-02  0.70530931169E-01  0.51100000000E-03 0.  1.
</event>
<event>
 8    1  0.1099478E+005  0.1043930E+01  0.7957747E-01            NaN
         13   -1    0    0    0    0  0.00000000000E+00  0.00000000000E+00  0.74505805969E-08  0.10566000000E+00  0.10566000000E+00 0.  1.
     999900   -1    0    0    0    0 -0.00000000000E+00 -0.00000000000E+00 -0.74505805969E-08  0.93827000000E+00  0.93827000000E+00 0. -1.
     999902    2    1    2    0    0  0.19106849071E-01 -0.16647590059E-01  0.42009058229E-02  0.10182422296E+01  0.10179181581E+01 0.  0.
     999903    2    3    3    0    0 -0.61755784592E-01 -0.41643904994E-01 -0.10121165418E+00  0.12791903603E+00  0.23905837831E-01 0.  0.
         14    1    1    2    0    0 -0.19106849071E-01  0.16647590059E-01 -0.42009058229E-02  0.25687770357E-01  0.00000000000E+00 0.  1.
     999901    1    3    3    0    0  0.80862633662E-01  0.24996314935E-01  0.10541256000E+00  0.89032319362E+00  0.88000000000E+00 0.  1.
        -11    1    4    4    0    0 -0.28966717045E-01 -0.16840755396E-01 -0.26822762915E-01  0.42923227629E-01  0.51100000000E-03 0.  1.
         11    1    4    4    0    0 -0.32789067547E-01 -0.24803149598E-01 -0.74388891266E-01  0.84995808399E-01  0.51100000000E-03 0. -1.
</event>
<event>
 8    1  0.1099478E+005  0.1043930E+01  0.7957747E-01            NaN
         13   -1    0    0    0    0  0.00000000000E+00  0.00000000000E+00  0.74505805969E-08  0.10566000000E+00  0.10566000000E+00 0. -1.
     999900   -1    0    0    0    0 -0.00000000000E+00 -0.00000000000E+00 -0.74505805969E-08  0.93827000000E+00  0.93827000000E+00 0. -1.
     999902    2    1    2    0    0  0.36646666788E-02  0.14536033219E-01 -0.22330934473E-01  0.10170339654E+01  0.10166782628E+01 0.  0.
     999903    2    3    3    0    0 -0.11916326476E+00  0.78471516177E-02 -0.43911883476E-01  0.12821611046E+00  0.15800506716E-01 0.  0.
         14    1    1    2    0    0 -0.36646666788E-02 -0.14536033219E-01  0.22330934473E-01  0.26896034616E-01  0.00000000000E+00 0. -1.
     999901    1    3    3    0    0  0.12282793144E+00  0.66888816010E-02  0.21580949003E-01  0.88881785493E+00  0.88000000000E+00 0.  1.
        -11    1    4    4    0    0 -0.57424048941E-01  0.10523301123E-01 -0.16966014518E-01  0.60797763387E-01  0.51100000000E-03 0. -1.
         11    1    4    4    0    0 -0.61739215822E-01 -0.26761495051E-02 -0.26945868959E-01  0.67418347069E-01  0.51100000000E-03 0.  1.
</event>
<event>
 8    1  0.1099478E+005  0.1043930E+01  0.7957747E-01            NaN
         13   -1    0    0    0    0  0.00000000000E+00  0.00000000000E+00  0.74505805969E-08  0.10566000000E+00  0.10566000000E+00 0. -1.
     999900   -1    0    0    0    0 -0.00000000000E+00 -0.00000000000E+00 -0.74505805969E-08  0.93827000000E+00  0.93827000000E+00 0. -1.
     999902    2    1    2    0    0  0.22758254951E-02 -0.23923050628E-01 -0.11677184906E-02  0.10198705881E+01  0.10195867600E+01 0.  0.
     999903    2    3    3    0    0 -0.20064157544E-01 -0.13672154631E-01  0.12647669552E+00  0.13032168439E+00  0.19947147279E-01 0.  0.
         14    1    1    2    0    0 -0.22758254951E-02  0.23923050628E-01  0.11677184906E-02  0.24059411869E-01  0.00000000000E+00 0. -1.
     999901    1    3    3    0    0  0.22339983039E-01 -0.10250895997E-01 -0.12764441401E+00  0.88954890374E+00  0.88000000000E+00 0. -1.
        -11    1    4    4    0    0 -0.13140913888E-01 -0.43665737112E-02  0.10497730873E+00  0.10588789852E+00  0.51100000000E-03 0.  1.
         11    1    4    4    0    0 -0.69232436568E-02 -0.93055809196E-02  0.21499386784E-01  0.24433785873E-01  0.51100000000E-03 0. -1.
</event>
<event>
 8    1  0.1099478E+005  0.1043930E+01  0.7957747E-01            NaN
         13   -1    0    0    0    0  0.00000000000E+00  0.00000000000E+00  0.74505805969E-08  0.10566000000E+00  0.10566000000E+00 0.  1.
     999900   -1    0    0    0    0 -0.00000000000E+00 -0.00000000000E+00 -0.74505805969E-08  0.93827000000E+00  0.93827000000E+00 0. -1.
     999902    2    1    2    0    0 -0.19706871604E-01 -0.12982320166E-01 -0.74319867992E-02  0.10191886206E+01  0.10188882709E+01 0.  0.
     999903    2    3    3    0    0 -0.93822420733E-01 -0.69877625506E-01  0.57564767913E-01  0.13185848561E+00  0.19683204620E-01 0.  0.
         14    1    1    2    0    0  0.19706871604E-01  0.12982320166E-01  0.74319867992E-02  0.24741379369E-01  0.00000000000E+00 0. -1.
     999901    1    3    3    0    0  0.74115549129E-01  0.56895305339E-01 -0.64996754712E-01  0.88733013502E+00  0.88000000000E+00 0.  1.
        -11    1    4    4    0    0 -0.77784898231E-01 -0.50277556517E-01  0.50814205220E-01  0.10564406115E+00  0.51100000000E-03 0.  1.
         11    1    4    4    0    0 -0.16037522502E-01 -0.19600068988E-01  0.67505626921E-02  0.26214424464E-01  0.51100000000E-03 0. -1.
</event>
<event>
 8    1  0.1099478E+005  0.1043930E+01  0.7957747E-01            NaN
         13   -1    0    0    0    0  0.00000000000E+00  0.00000000000E+00  0.74505805969E-08  0.10566000000E+00  0.10566000000E+00 0. -1.
     999900   -1    0    0    0    0 -0.00000000000E+00 -0.00000000000E+00 -0.74505805969E-08  0.93827000000E+00  0.93827000000E+00 0. -1.
     999902    2    1    2    0    0 -0.97233037272E-02  0.21669932615E-01 -0.23966719859E-02  0.10200579944E+01  0.10197786227E+01 0.  0.
     999903    2    3    3    0    0 -0.16382170780E-01 -0.74438557175E-01 -0.10048866843E+00  0.12938228344E+00  0.28850103500E-01 0.  0.
         14    1    1    2    0    0  0.97233037272E-02 -0.21669932615E-01  0.23966719859E-02  0.23872005603E-01  0.00000000000E+00 0.  1.
     999901    1    3    3    0    0  0.66588670526E-02  0.96108489790E-01  0.98091996443E-01  0.89067571096E+00  0.88000000000E+00 0.  1.
        -11    1    4    4    0    0 -0.24378209563E-01 -0.53249499401E-01 -0.77095235157E-01  0.96818090731E-01  0.51100000000E-03 0. -1.
         11    1    4    4    0    0  0.79960387833E-02 -0.21189057774E-01 -0.23393433273E-01  0.32564192710E-01  0.51100000000E-03 0.  1.
</event>
<event>
 8    1  0.1099478E+005  0.1043930E+01  0.7957747E-01            NaN
         13   -1    0    0    0    0  0.00000000000E+00  0.00000000000E+00  0.74505805969E-08  0.10566000000E+00  0.10566000000E+00 0. -1.
     999900   -1    0    0    0    0 -0.00000000000E+00 -0.00000000000E+00 -0.74505805969E-08  0.93827000000E+00  0.93827000000E+00 0. -1.
     999902    2    1    2    0    0 -0.18204304197E-02 -0.11812305371E-01 -0.21080774403E-01  0.10196968909E+01  0.10194089002E+01 0.  0.
     999903    2    3    3    0    0  0.23264700627E-01 -0.12203841391E+00 -0.40507609450E-01  0.13225311204E+00  0.20381326129E-01 0.  0.
         14    1    1    2    0    0  0.18204304197E-02  0.11812305371E-01  0.21080774403E-01  0.24233109055E-01  0.00000000000E+00 0. -1.
     999901    1    3    3    0    0 -0.25085131046E-01  0.11022610854E+00  0.19426835047E-01  0.88744377891E+00  0.88000000000E+00 0. -1.
        -11    1    4    4    0    0  0.14209201311E-01 -0.10312640668E+00 -0.39200358919E-01  0.11123797201E+00  0.51100000000E-03 0. -1.
         11    1    4    4    0    0  0.90554993154E-02 -0.18912007231E-01 -0.13072505312E-02  0.21015140026E-01  0.51100000000E-03 0.  1.
</event>
<event>
 8    1  0.1099478E+005  0.1043930E+01  0.7957747E-01            NaN
         13   -1    0    0    0    0  0.00000000000E+00  0.00000000000E+00  0.74505805969E-08  0.10566000000E+00  0.10566000000E+00 0.  1.
     999900   -1    0    0    0    0 -0.00000000000E+00 -0.00000000000E+00 -0.74505805969E-08  0.93827000000E+00  0.93827000000E+00 0. -1.
     999902    2    1    2    0    0  0.10518784938E-01 -0.10131642961E-01 -0.18095618154E-01  0.10206760450E+01  0.10204111144E+01 0.  0.
     999903    2    3    3    0    0 -0.53475818904E-01 -0.11572304585E+00  0.23466331370E-01  0.13108498767E+00  0.19522262578E-01 0.  0.
         14    1    1    2    0    0 -0.10518784938E-01  0.10131642961E-01  0.18095618154E-01  0.23253954976E-01  0.00000000000E+00 0.  1.
     999901    1    3    3    0    0  0.63994603842E-01  0.10559140288E+00 -0.41561949524E-01  0.88959105736E+00  0.88000000000E+00 0.  1.
        -11    1    4    4    0    0 -0.88191680833E-02 -0.67035416281E-02  0.85406709804E-03  0.11122308558E-01  0.51100000000E-03 0. -1.
         11    1    4    4    0    0 -0.44656650821E-01 -0.10901950422E+00  0.22612264272E-01  0.11996267911E+00  0.51100000000E-03 0.  1.
</event>
<event>
 8    1  0.1099478E+005  0.1043930E+01  0.7957747E-01            NaN
         13   -1    0    0    0    0  0.00000000000E+00  0.00000000000E+00  0.74505805969E-08  0.10566000000E+00  0.10566000000E+00 0.  1.
     999900   -1    0    0    0    0 -0.00000000000E+00 -0.00000000000E+00 -0.74505805969E-08  0.93827000000E+00  0.93827000000E+00 0.  1.
     999902    2    1    2    0    0 -0.70594080984E-02 -0.21053673121E-01 -0.57189768309E-02  0.10209996906E+01  0.10207421658E+01 0.  0.
     999903    2    3    3    0    0  0.12704801541E+00  0.17260636830E-01 -0.64298027509E-02  0.13001523916E+00  0.20578927255E-01 0.  0.
         14    1    1    2    0    0  0.70594080984E-02  0.21053673121E-01  0.57189768309E-02  0.22930309430E-01  0.00000000000E+00 0.  1.
     999901    1    3    3    0    0 -0.13410742351E+00 -0.38314309951E-01  0.71082591995E-03  0.89098445141E+00  0.88000000000E+00 0. -1.
        -11    1    4    4    0    0  0.37985088633E-01  0.71977935065E-02  0.72738325769E-02  0.39342660703E-01  0.51100000000E-03 0. -1.
         11    1    4    4    0    0  0.89062926774E-01  0.10062843324E-01 -0.13703635328E-01  0.90672578454E-01  0.51100000000E-03 0.  1.
</event>
<event>
 8    1  0.1099478E+005  0.1043930E+01  0.7957747E-01            NaN
         13   -1    0    0    0    0  0.00000000000E+00  0.00000000000E+00  0.74505805969E-08  0.10566000000E+00  0.10566000000E+00 0. -1.
     999900   -1    0    0    0    0 -0.00000000000E+00 -0.00000000000E+00 -0.74505805969E-08  0.93827000000E+00  0.93827000000E+00 0.  1.
     999902    2    1    2    0    0 -0.78977804189E-02 -0.18415281396E-01 -0.12228949935E-01  0.10204556578E+01  0.10201856227E+01 0.  0.
     999903    2    3    3    0    0  0.12615634241E-01  0.12641847186E+00  0.25545728798E-02  0.12825827561E+00  0.17403309024E-01 0.  0.
         14    1    1    2    0    0  0.78977804189E-02  0.18415281396E-01  0.12228949935E-01  0.23474342183E-01  0.00000000000E+00 0. -1.
     999901    1    3    3    0    0 -0.20513414660E-01 -0.14483375326E+00 -0.14783522815E-01  0.89219738220E+00  0.88000000000E+00 0.  1.
        -11    1    4    4    0    0 -0.97655666669E-05  0.63421118320E-01 -0.47046561383E-02  0.63597431196E-01  0.51100000000E-03 0.  1.
         11    1    4    4    0    0  0.12625399808E-01  0.62997353544E-01  0.72592290181E-02  0.64660844417E-01  0.51100000000E-03 0. -1.
</event>
<event>
 8    1  0.1099478E+005  0.1043930E+01  0.7957747E-01            NaN
         13   -1    0    0    0    0  0.00000000000E+00  0.00000000000E+00  0.74505805969E-08  0.10566000000E+00  0.10566000000E+00 0. -1.
     999900   -1    0    0    0    0 -0.00000000000E+00 -0.00000000000E+00 -0.74505805969E-08  0.93827000000E+00  0.93827000000E+00 0. -1.
     999902    2    1    2    0    0  0.21056026210E-01 -0.52494710376E-02  0.96044996931E-02  0.10201990160E+01  0.10199229739E+01 0.  0.
     999903    2    3    3    0    0 -0.31471902666E-01  0.12379563889E+00 -0.12892008494E-03  0.12918467093E+00  0.19308591772E-01 0.  0.
         14    1    1    2    0    0 -0.21056026210E-01  0.52494710376E-02 -0.96044996931E-02  0.23730983972E-01  0.00000000000E+00 0.  1.
     999901    1    3    3    0    0  0.52527928876E-01 -0.12904510993E+00  0.97334197781E-02  0.89101434510E+00  0.88000000000E+00 0. -1.
        -11    1    4    4    0    0 -0.83751920174E-02  0.71631084580E-01 -0.95992718500E-03  0.72127239657E-01  0.51100000000E-03 0. -1.
         11    1    4    4    0    0 -0.23096710649E-01  0.52164554315E-01  0.83100710006E-03  0.57057431273E-01  0.51100000000E-03 0.  1.
</event>
<event>
 8    1  0.1099478E+005  0.1043930E+01  0.7957747E-01            NaN
         13   -1    0    0    0    0  0.00000000000E+00  0.00000000000E+00  0.74505805969E-08  0.10566000000E+00  0.10566000000E+00 0.  1.
     999900   -1    0    0    0    0 -0.00000000000E+00 -0.00000000000E+00 -0.74505805969E-08  0.93827000000E+00  0.93827000000E+00 0.  1.
     999902    2    1    2    0    0 -0.85649655254E-02 -0.17772730604E-01 -0.13401771187E-01  0.10200797158E+01  0.10198008582E+01 0.  0.
     999903    2    3    3    0    0 -0.31088275371E-01 -0.12791785228E+00 -0.11209958812E-01  0.13292468344E+00  0.14623627922E-01 0.  0.
         14    1    1    2    0    0  0.85649655254E-02  0.17772730604E-01  0.13401771187E-01  0.23850284244E-01  0.00000000000E+00 0.  1.
     999901    1    3    3    0    0  0.22523309845E-01  0.11014512168E+00 -0.21918123750E-02  0.88715503231E+00  0.88000000000E+00 0.  1.
        -11    1    4    4    0    0 -0.26033599968E-01 -0.10316721658E+00 -0.14718282126E-01  0.10741560340E+00  0.51100000000E-03 0.  1.
         11    1    4    4    0    0 -0.50546754030E-02 -0.24750635703E-01  0.35083233139E-02  0.25509080043E-01  0.51100000000E-03 0. -1.
</event>
<event>
 8    1  0.1099478E+005  0.1043930E+01  0.7957747E-01            NaN
         13   -1    0    0    0    0  0.00000000000E+00  0.00000000000E+00  0.74505805969E-08  0.10566000000E+00  0.10566000000E+00 0. -1.
     999900   -1    0    0    0    0 -0.00000000000E+00 -0.00000000000E+00 -0.74505805969E-08  0.93827000000E+00  0.93827000000E+00 0.  1.
     999902    2    1    2    0    0  0.18503444389E-01  0.14493335211E-01 -0.80487539363E-02  0.10190861545E+01  0.10187832810E+01 0.  0.
     999903    2    3    3    0    0 -0.68544798835E-01  0.57032864865E-02  0.10520461140E+00  0.12752517151E+00  0.21534674018E-01 0.  0.
         14    1    1    2    0    0 -0.18503444389E-01 -0.14493335211E-01  0.80487539363E-02  0.24843845510E-01  0.00000000000E+00 0. -1.
     999901    1    3    3    0    0  0.87048243224E-01  0.87900487248E-02 -0.11325336534E+00  0.89156098298E+00  0.88000000000E+00 0.  1.
        -11    1    4    4    0    0 -0.55029758144E-01  0.11312590637E-01  0.72735095106E-01  0.91907040913E-01  0.51100000000E-03 0.  1.
         11    1    4    4    0    0 -0.13515040691E-01 -0.56093041500E-02  0.32469516297E-01  0.35618130601E-01  0.51100000000E-03 0. -1.
</event>
<event>
 8    1  0.1099478E+005  0.1043930E+01  0.7957747E-01            NaN
         13   -1    0    0    0    0  0.00000000000E+00  0.00000000000E+00  0.74505805969E-08  0.10566000000E+00  0.10566000000E+00 0. -1.
     999900   -1    0    0    0    0 -0.00000000000E+00 -0.00000000000E+00 -0.74505805969E-08  0.93827000000E+00  0.93827000000E+00 0. -1.
     999902    2    1    2    0    0  0.19806447987E-01 -0.38264496264E-02 -0.12614625449E-01  0.10201378611E+01  0.10198603776E+01 0.  0.
     999903    2    3    3    0    0  0.69986625499E-01  0.82011643783E-01  0.70487004266E-01  0.13064805825E+00  0.21827961189E-01 0.  0.
         14    1    1    2    0    0 -0.19806447987E-01  0.38264496264E-02  0.12614625449E-01  0.23792138908E-01  0.00000000000E+00 0. -1.
     999901    1    3    3    0    0 -0.50180177512E-01 -0.85838093410E-01 -0.83101629715E-01  0.88948980284E+00  0.88000000000E+00 0. -1.
        -11    1    4    4    0    0  0.19183314110E-01  0.12743320446E-01  0.78611126143E-02  0.24340295166E-01  0.51100000000E-03 0.  1.
         11    1    4    4    0    0  0.50803311389E-01  0.69268323337E-01  0.62625891652E-01  0.10630776309E+00  0.51100000000E-03 0. -1.
</event>
<event>
 8    1  0.1099478E+005  0.1043930E+01  0.7957747E-01            NaN
         13   -1    0    0    0    0  0.00000000000E+00  0.00000000000E+00  0.74505805969E-08  0.10566000000E+00  0.10566000000E+00 0. -1.
     999900   -1    0    0    0    0 -0.00000000000E+00 -0.00000000000E+00 -0.74505805969E-08  0.93827000000E+00  0.93827000000E+00 0.  1.
     999902    2    1    2    0    0 -0.15216001779E-01 -0.86245631894E-02  0.18146015765E-01  0.10187270698E+01  0.10184152666E+01 0.  0.
     999903    2    3    3    0    0  0.56551385575E-01 -0.31884255652E-01  0.11146018103E+00  0.13058344147E+00  0.20346947211E-01 0.  0.
         14    1    1    2    0    0  0.15216001779E-01  0.86245631894E-02 -0.18146015765E-01  0.25202930157E-01  0.00000000000E+00 0. -1.
     999901    1    3    3    0    0 -0.71767387354E-01  0.23259692462E-01 -0.93314165269E-01  0.88814362837E+00  0.88000000000E+00 0.  1.
        -11    1    4    4    0    0  0.39591618178E-01 -0.31265772302E-01  0.75344400635E-01  0.90675711057E-01  0.51100000000E-03 0.  1.
         11    1    4    4    0    0  0.16959767397E-01 -0.61848334942E-03  0.36115780399E-01  0.39907730413E-01  0.51100000000E-03 0. -1.
</event>
<event>
 8    1  0.1099478E+005  0.1043930E+01  0.7957747E-01            NaN
         13   -1    0    0    0    0  0.00000000000E+00  0.00000000000E+00  0.74505805969E-08  0.10566000000E+00  0.10566000000E+00 0. -1.
     999900   -1    0    0    0    0 -0.00000000000E+00 -0.00000000000E+00 -0.74505805969E-08  0.93827000000E+00  0.93827000000E+00 0. -1.
     999902    2    1    2    0    0 -0.19863012811E-01  0.19171213691E-02  0.11456695121E-01  0.10209197741E+01  0.10206604306E+01 0.  0.
     999903    2    3    3    0    0  0.96583004972E-01 -0.82817964644E-01 -0.10665534193E-01  0.12893933549E+00  0.18014063933E-01 0.  0.
         14    1    1    2    0    0  0.19863012811E-01 -0.19171213691E-02 -0.11456695121E-01  0.23010225887E-01  0.00000000000E+00 0. -1.
     999901    1    3    3    0    0 -0.11644601778E+00  0.84735086013E-01  0.22122229314E-01  0.89198043862E+00  0.88000000000E+00 0.  1.
        -11    1    4    4    0    0  0.56439090029E-01 -0.56062758894E-01 -0.11207486481E-03  0.79552985488E-01  0.51100000000E-03 0.  1.
         11    1    4    4    0    0  0.40143914943E-01 -0.26755205749E-01 -0.10553459328E-01  0.49386350001E-01  0.51100000000E-03 0. -1.
</event>
<event>
 8    1  0.1099478E+005  0.1043930E+01  0.7957747E-01            NaN
         13   -1    0    0    0    0  0.00000000000E+00  0.00000000000E+00  0.74505805969E-08  0.10566000000E+00  0.10566000000E+00 0.  1.
     999900   -1    0    0    0    0 -0.00000000000E+00 -0.00000000000E+00 -0.74505805969E-08  0.93827000000E+00  0.93827000000E+00 0.  1.
     999902    2    1    2    0    0 -0.18692362469E-01 -0.85096221138E-03  0.15293669934E-01  0.10197633931E+01  0.10194769997E+01 0.  0.
     999903    2    3    3    0    0 -0.11474313104E+00 -0.37577783646E-01 -0.48062969972E-01  0.13151304919E+00  0.20188042967E-01 0.  0.
         14    1    1    2    0    0  0.18692362469E-01  0.85096221138E-03 -0.15293669934E-01  0.24166606949E-01  0.00000000000E+00 0. -1.
     999901    1    3    3    0    0  0.96050768572E-01  0.36726821434E-01  0.63356639906E-01  0.88825034386E+00  0.88000000000E+00 0. -1.
        -11    1    4    4    0    0 -0.96598287682E-01 -0.33939417684E-01 -0.47803855974E-01  0.11299815495E+00  0.51100000000E-03 0.  1.
         11    1    4    4    0    0 -0.18144843359E-01 -0.36383659622E-02 -0.25911399820E-03  0.18514894233E-01  0.51100000000E-03 0. -1.
</event>
<event>
 8    1  0.1099478E+005  0.1043930E+01  0.7957747E-01            NaN
         13   -1    0    0    0    0  0.00000000000E+00  0.00000000000E+00  0.74505805969E-08  0.10566000000E+00  0.10566000000E+00 0.  1.
     999900   -1    0    0    0    0 -0.00000000000E+00 -0.00000000000E+00 -0.74505805969E-08  0.93827000000E+00  0.93827000000E+00 0. -1.
     999902    2    1    2    0    0 -0.20475937441E-01 -0.39871909824E-03 -0.12050742507E-01  0.10201677740E+01  0.10198909960E+01 0.  0.
     999903    2    3    3    0    0 -0.47461840946E-01  0.25235833475E-01 -0.11977509672E+00  0.13281783975E+00  0.20125385025E-01 0.  0.
         14    1    1    2    0    0  0.20475937441E-01  0.39871909824E-03  0.12050742507E-01  0.23762226031E-01  0.00000000000E+00 0.  1.
     999901    1    3    3    0    0  0.26985903505E-01 -0.25634552573E-01  0.10772435422E+00  0.88734993422E+00  0.88000000000E+00 0.  1.
        -11    1    4    4    0    0 -0.47122942247E-02  0.64843372684E-02 -0.36273962594E-01  0.37152575011E-01  0.51100000000E-03 0. -1.
         11    1    4    4    0    0 -0.42749546721E-01  0.18751496206E-01 -0.83501134130E-01  0.95665264735E-01  0.51100000000E-03 0.  1.
</event>
<event>
 8    1  0.1099478E+005  0.1043930E+01  0.7957747E-01            NaN
         13   -1    0    0    0    0  0.00000000000E+00  0.00000000000E+00  0.74505805969E-08  0.10566000000E+00  0.10566000000E+00 0. -1.
     999900   -1    0    0    0    0 -0.00000000000E+00 -0.00000000000E+00 -0.74505805969E-08  0.93827000000E+00  0.93827000000E+00 0. -1.
     999902    2    1    2    0    0  0.12368132471E-01  0.75083445721E-02  0.17935501347E-01  0.10208859520E+01  0.10206258369E+01 0.  0.
     999903    2    3    3    0    0 -0.33881399890E-01 -0.11488580390E+00  0.48148087775E-01  0.13069937202E+00  0.20430132021E-01 0.  0.
         14    1    1    2    0    0 -0.12368132471E-01 -0.75083445721E-02 -0.17935501347E-01  0.23044047987E-01  0.00000000000E+00 0.  1.
     999901    1    3    3    0    0  0.46249532362E-01  0.12239414847E+00 -0.30212586428E-01  0.89018657999E+00  0.88000000000E+00 0.  1.
        -11    1    4    4    0    0 -0.18846207656E-01 -0.93231936143E-01  0.36674896981E-01  0.10194450770E+00  0.51100000000E-03 0. -1.
         11    1    4    4    0    0 -0.15035192234E-01 -0.21653867753E-01  0.11473190794E-01  0.28754864322E-01  0.51100000000E-03 0.  1.
</event>
<event>
 8    1  0.1099478E+005  0.1043930E+01  0.7957747E-01            NaN
         13   -1    0    0    0    0  0.00000000000E+00  0.00000000000E+00  0.74505805969E-08  0.10566000000E+00  0.10566000000E+00 0. -1.
     999900   -1    0    0    0    0 -0.00000000000E+00 -0.00000000000E+00 -0.74505805969E-08  0.93827000000E+00  0.93827000000E+00 0.  1.
     999902    2    1    2    0    0  0.76192736348E-02  0.25366672461E-02  0.25821213945E-01  0.10168888628E+01  0.10165292599E+01 0.  0.
     999903    2    3    3    0    0  0.10523639116E+00  0.35508845450E-01  0.64558169309E-01  0.13003102871E+00  0.20118028566E-01 0.  0.
         14    1    1    2    0    0 -0.76192736348E-02 -0.25366672461E-02 -0.25821213945E-01  0.27041137200E-01  0.00000000000E+00 0.  1.
     999901    1    3    3    0    0 -0.97617117529E-01 -0.32972178204E-01 -0.38736955364E-01  0.88685783409E+00  0.88000000000E+00 0.  1.
        -11    1    4    4    0    0  0.17407554853E-01  0.12412709773E-01  0.18121591387E-01  0.28031259787E-01  0.51100000000E-03 0. -1.
         11    1    4    4    0    0  0.87828836310E-01  0.23096135677E-01  0.46436577923E-01  0.10199976893E+00  0.51100000000E-03 0.  1.
</event>
<event>
 8    1  0.1099478E+005  0.1043930E+01  0.7957747E-01            NaN
         13   -1    0    0    0    0  0.00000000000E+00  0.00000000000E+00  0.74505805969E-08  0.10566000000E+00  0.10566000000E+00 0.  1.
     999900   -1    0    0    0    0 -0.00000000000E+00 -0.00000000000E+00 -0.74505805969E-08  0.93827000000E+00  0.93827000000E+00 0.  1.
     999902    2    1    2    0    0 -0.20572858568E-01  0.10837678887E-01 -0.26529117160E-02  0.10205262453E+01  0.10202578506E+01 0.  0.
     999903    2    3    3    0    0  0.10690004259E+00  0.19729862318E-01 -0.66463863701E-01  0.12901054210E+00  0.20233344328E-01 0.  0.
         14    1    1    2    0    0  0.20572858568E-01 -0.10837678887E-01  0.26529117160E-02  0.23403754697E-01  0.00000000000E+00 0. -1.
     999901    1    3    3    0    0 -0.12747290116E+00 -0.88921834310E-02  0.63810951985E-01  0.89151570320E+00  0.88000000000E+00 0. -1.
        -11    1    4    4    0    0  0.25312797301E-01  0.37353658042E-02 -0.26225981685E-01  0.36643606554E-01  0.51100000000E-03 0. -1.
         11    1    4    4    0    0  0.81587245291E-01  0.15994496514E-01 -0.40237882016E-01  0.92366935551E-01  0.51100000000E-03 0.  1.
</event>
<event>
 8    1  0.1099478E+005  0.1043930E+01  0.7957747E-01            NaN
         13   -1    0    0    0    0  0.00000000000E+00  0.00000000000E+00  0.74505805969E-08  0.10566000000E+00  0.10566000000E+00 0. -1.
     999900   -1    0    0    0    0 -0.00000000000E+00 -0.00000000000E+00 -0.74505805969E-08  0.93827000000E+00  0.93827000000E+00 0.  1.
     999902    2    1    2    0    0  0.13584605573E-01 -0.79938553515E-02 -0.18353492632E-01  0.10197371514E+01  0.10194501283E+01 0.  0.
     999903    2    3    3    0    0  0.10190270329E-01  0.53889995687E-01  0.11361605710E+00  0.12774102215E+00  0.20029654596E-01 0.  0.
         14    1    1    2    0    0 -0.13584605573E-01  0.79938553515E-02  0.18353492632E-01  0.24192848608E-01  0.00000000000E+00 0. -1.
     999901    1    3    3    0    0  0.33943352440E-02 -0.61883851038E-01 -0.13196954973E+00  0.89199612925E+00  0.88000000000E+00 0.  1.
        -11    1    4    4    0    0  0.95980601911E-03  0.29996077037E-01  0.41559762515E-01  0.51265591252E-01  0.51100000000E-03 0.  1.
         11    1    4    4    0    0  0.92304643102E-02  0.23893918650E-01  0.72056294587E-01  0.76475430895E-01  0.51100000000E-03 0. -1.
</event>
<event>
 8    1  0.1099478E+005  0.1043930E+01  0.7957747E-01            NaN
         13   -1    0    0    0    0  0.00000000000E+00  0.00000000000E+00  0.74505805969E-08  0.10566000000E+00  0.10566000000E+00 0. -1.
     999900   -1    0    0    0    0 -0.00000000000E+00 -0.00000000000E+00 -0.74505805969E-08  0.93827000000E+00  0.93827000000E+00 0. -1.
     999902    2    1    2    0    0 -0.45947264241E-02  0.14402503540E-01 -0.19612314578E-01  0.10191673971E+01  0.10188665255E+01 0.  0.
     999903    2    3    3    0    0  0.98812544921E-01 -0.71139996525E-01  0.31444070268E-01  0.12752994975E+00  0.21221224977E-01 0.  0.
         14    1    1    2    0    0  0.45947264241E-02 -0.14402503540E-01  0.19612314578E-01  0.24762602897E-01  0.00000000000E+00 0. -1.
     999901    1    3    3    0    0 -0.10340727134E+00  0.85542500065E-01 -0.51056384846E-01  0.89163744735E+00  0.88000000000E+00 0. -1.
        -11    1    4    4    0    0  0.53406089587E-01 -0.49987455851E-01  0.13959885543E-01  0.74472113390E-01  0.51100000000E-03 0.  1.
         11    1    4    4    0    0  0.45406455334E-01 -0.21152540674E-01  0.17484184725E-01  0.53057836362E-01  0.51100000000E-03 0. -1.
</event>
<event>
 8    1  0.1099478E+005  0.1043930E+01  0.7957747E-01            NaN
         13   -1    0    0    0    0  0.00000000000E+00  0.00000000000E+00  0.74505805969E-08  0.10566000000E+00  0.10566000000E+00 0. -1.
     999900   -1    0    0    0    0 -0.00000000000E+00 -0.00000000000E+00 -0.74505805969E-08  0.93827000000E+00  0.93827000000E+00 0.  1.
     999902    2    1    2    0    0 -0.12342589102E-01 -0.13421590557E-01  0.18008862179E-01  0.10183019350E+01  0.10179793874E+01 0.  0.
     999903    2    3    3    0    0 -0.95539595714E-02  0.49800772303E-01 -0.11400078181E+00  0.12620811161E+00  0.18997739763E-01 0.  0.
         14    1    1    2    0    0  0.12342589102E-01  0.13421590557E-01 -0.18008862179E-01  0.25628065003E-01  0.00000000000E+00 0.  1.
     999901    1    3    3    0    0 -0.27886295301E-02 -0.63222362859E-01  0.13200964399E+00  0.89209382339E+00  0.88000000000E+00 0. -1.
        -11    1    4    4    0    0 -0.35566127231E-02  0.20280989619E-01 -0.25856339045E-01  0.33057214399E-01  0.51100000000E-03 0. -1.
         11    1    4    4    0    0 -0.59973468483E-02  0.29519782684E-01 -0.88144442769E-01  0.93150897210E-01  0.51100000000E-03 0.  1.
</event>
<event>
 8    1  0.1209741E+005  0.1043930E+01  0.7957747E-01            NaN
         13   -1    0    0    0    0  0.00000000000E+00  0.00000000000E+00  0.74505805969E-08  0.10566000000E+00  0.10566000000E+00 0. -1.
     999900   -1    0    0    0    0 -0.00000000000E+00 -0.00000000000E+00 -0.74505805969E-08  0.93827000000E+00  0.93827000000E+00 0.  1.
     999902    2    1    2    0    0  0.12413859082E-01  0.18226830127E-01  0.10952517085E-01  0.10193072694E+01  0.10190098285E+01 0.  0.
     999903    2    3    3    0    0 -0.52516815230E-02  0.12859861876E+00  0.21776750918E-01  0.13217077079E+00  0.20729227343E-01 0.  0.
         14    1    1    2    0    0 -0.12413859082E-01 -0.18226830127E-01 -0.10952517085E-01  0.24622730642E-01  0.00000000000E+00 0. -1.
     999901    1    3    3    0    0  0.17665540604E-01 -0.11037178863E+00 -0.10824233834E-01  0.88713649857E+00  0.88000000000E+00 0. -1.
        -11    1    4    4    0    0 -0.38187067236E-02  0.79929498985E-01  0.23643536551E-01  0.83442107300E-01  0.51100000000E-03 0.  1.
         11    1    4    4    0    0 -0.14329747993E-02  0.48669119772E-01 -0.18667856322E-02  0.48728663492E-01  0.51100000000E-03 0. -1.
</event>
<event>
 8    1  0.1099478E+005  0.1043930E+01  0.7957747E-01            NaN
         13   -1    0    0    0    0  0.00000000000E+00  0.00000000000E+00  0.74505805969E-08  0.10566000000E+00  0.10566000000E+00 0. -1.
     999900   -1    0    0    0    0 -0.00000000000E+00 -0.00000000000E+00 -0.74505805969E-08  0.93827000000E+00  0.93827000000E+00 0. -1.
     999902    2    1    2    0    0  0.17903678061E-01  0.14717681421E-01  0.51390754216E-02  0.10201905406E+01  0.10199142990E+01 0.  0.
     999903    2    3    3    0    0 -0.28361598903E-02  0.80296172376E-01  0.10296331953E+00  0.13210255959E+00  0.19852505634E-01 0.  0.
         14    1    1    2    0    0 -0.17903678061E-01 -0.14717681421E-01 -0.51390754216E-02  0.23739459360E-01  0.00000000000E+00 0.  1.
     999901    1    3    3    0    0  0.20739837951E-01 -0.65578490955E-01 -0.97824244108E-01  0.88808798105E+00  0.88000000000E+00 0. -1.
        -11    1    4    4    0    0 -0.56468795981E-02  0.72192287209E-01  0.98954274156E-01  0.12262064702E+00  0.51100000000E-03 0.  1.
         11    1    4    4    0    0  0.28107197079E-02  0.81038851666E-02  0.40090453736E-02  0.94819125643E-02  0.51100000000E-03 0. -1.
</event>
<event>
 8    1  0.1099478E+005  0.1043930E+01  0.7957747E-01            NaN
         13   -1    0    0    0    0  0.00000000000E+00  0.00000000000E+00  0.74505805969E-08  0.10566000000E+00  0.10566000000E+00 0.  1.
     999900   -1    0    0    0    0 -0.00000000000E+00 -0.00000000000E+00 -0.74505805969E-08  0.93827000000E+00  0.93827000000E+00 0. -1.
     999902    2    1    2    0    0  0.21843790482E-01  0.61092873416E-02  0.50394575072E-02  0.10206948820E+01  0.10204303854E+01 0.  0.
     999903    2    3    3    0    0 -0.98591503219E-01  0.52135983525E-01 -0.60983390279E-01  0.12885289315E+00  0.21110397853E-01 0.  0.
         14    1    1    2    0    0 -0.21843790482E-01 -0.61092873416E-02 -0.50394575072E-02  0.23235117955E-01  0.00000000000E+00 0. -1.
     999901    1    3    3    0    0  0.12043529370E+00 -0.46026696184E-01  0.66022847786E-01  0.89184198890E+00  0.88000000000E+00 0.  1.
        -11    1    4    4    0    0 -0.85306127028E-01  0.35979717956E-01 -0.49755823069E-01  0.10510746150E+00  0.51100000000E-03 0. -1.
         11    1    4    4    0    0 -0.13285376191E-01  0.16156265569E-01 -0.11227567210E-01  0.23745431648E-01  0.51100000000E-03 0.  1.
</event>
<event>
 8    1  0.1099478E+005  0.1043930E+01  0.7957747E-01            NaN
         13   -1    0    0    0    0  0.00000000000E+00  0.00000000000E+00  0.74505805969E-08  0.10566000000E+00  0.10566000000E+00 0. -1.
     999900   -1    0    0    0    0 -0.00000000000E+00 -0.00000000000E+00 -0.74505805969E-08  0.93827000000E+00  0.93827000000E+00 0.  1.
     999902    2    1    2    0    0 -0.10880230953E-01 -0.13978423821E-01 -0.14728786126E-01  0.10208927932E+01  0.10206328342E+01 0.  0.
     999903    2    3    3    0    0 -0.28998136454E-01  0.11288490440E+00  0.51269491604E-01  0.12916506834E+00  0.21706233024E-01 0.  0.
         14    1    1    2    0    0  0.10880230953E-01  0.13978423821E-01  0.14728786126E-01  0.23037206837E-01  0.00000000000E+00 0. -1.
     999901    1    3    3    0    0  0.18117905502E-01 -0.12686332822E+00 -0.65998277730E-01  0.89172772482E+00  0.88000000000E+00 0.  1.
        -11    1    4    4    0    0 -0.15145797077E-01  0.22661377729E-01  0.12507992646E-01  0.29994069593E-01  0.51100000000E-03 0.  1.
         11    1    4    4    0    0 -0.13852339377E-01  0.90223526670E-01  0.38761498957E-01  0.99170998752E-01  0.51100000000E-03 0. -1.
</event>
<event>
 8    1  0.1099478E+005  0.1043930E+01  0.7957747E-01            NaN
         13   -1    0    0    0    0  0.00000000000E+00  0.00000000000E+00  0.74505805969E-08  0.10566000000E+00  0.10566000000E+00 0.  1.
     999900   -1    0    0    0    0 -0.00000000000E+00 -0.00000000000E+00 -0.74505805969E-08  0.93827000000E+00  0.93827000000E+00 0.  1.
     999902    2    1    2    0    0  0.75508135747E-02  0.47428105008E-04 -0.23299618487E-01  0.10194373632E+01  0.10191430951E+01 0.  0.
     999903    2    3    3    0    0  0.29982895562E-01  0.21302232716E-01 -0.12606331751E+00  0.13291869852E+00  0.20558726849E-01 0.  0.
         14    1    1    2    0    0 -0.75508135747E-02 -0.47428105008E-04  0.23299618487E-01  0.24492636786E-01  0.00000000000E+00 0.  1.
     999901    1    3    3    0    0 -0.22432081987E-01 -0.21254804611E-01  0.10276369902E+00  0.88651866470E+00  0.88000000000E+00 0. -1.
        -11    1    4    4    0    0  0.15408276317E-01  0.19654331875E-02 -0.72305145191E-01  0.73956561905E-01  0.51100000000E-03 0. -1.
         11    1    4    4    0    0  0.14574619245E-01  0.19336799529E-01 -0.53758172315E-01  0.58962136612E-01  0.51100000000E-03 0.  1.
</event>
<event>
 8    1  0.1099478E+005  0.1043930E+01  0.7957747E-01            NaN
         13   -1    0    0    0    0  0.00000000000E+00  0.00000000000E+00  0.74505805969E-08  0.10566000000E+00  0.10566000000E+00 0. -1.
     999900   -1    0    0    0    0 -0.00000000000E+00 -0.00000000000E+00 -0.74505805969E-08  0.93827000000E+00  0.93827000000E+00 0.  1.
     999902    2    1    2    0    0 -0.47352044367E-02  0.60453083038E-02 -0.20793894908E-01  0.10217634942E+01  0.10215230218E+01 0.  0.
     999903    2    3    3    0    0  0.65871148040E-01 -0.96689412087E-01 -0.58542554932E-01  0.13217671310E+00  0.18857417514E-01 0.  0.
         14    1    1    2    0    0  0.47352044367E-02 -0.60453083038E-02  0.20793894908E-01  0.22166505791E-01  0.00000000000E+00 0. -1.
     999901    1    3    3    0    0 -0.70606352476E-01  0.10273472039E+00  0.37748660024E-01  0.88958678111E+00  0.88000000000E+00 0. -1.
        -11    1    4    4    0    0  0.22582015022E-01 -0.46434936413E-01 -0.31896502922E-01  0.60694305679E-01  0.51100000000E-03 0. -1.
         11    1    4    4    0    0  0.43289133017E-01 -0.50254475674E-01 -0.26646052009E-01  0.71482407425E-01  0.51100000000E-03 0.  1.
</event>
<event>
 8    1  0.1099478E+005  0.1043930E+01  0.7957747E-01            NaN
         13   -1    0    0    0    0  0.00000000000E+00  0.00000000000E+00  0.74505805969E-08  0.10566000000E+00  0.10566000000E+00 0.  1.
     999900   -1    0    0    0    0 -0.00000000000E+00 -0.00000000000E+00 -0.74505805969E-08  0.93827000000E+00  0.93827000000E+00 0. -1.
     999902    2    1    2    0    0 -0.30532225709E-01 -0.88260381680E-02  0.22907956294E-02  0.10120652310E+01  0.10115634772E+01 0.  0.
     999903    2    3    3    0    0  0.11632961283E+00  0.17838382335E-01 -0.42835714033E-02  0.11947203521E+00  0.20110482520E-01 0.  0.
         14    1    1    2    0    0  0.30532225709E-01  0.88260381680E-02 -0.22907956294E-02  0.31864768964E-01  0.00000000000E+00 0. -1.
     999901    1    3    3    0    0 -0.14686183854E+00 -0.26664420503E-01  0.65743670328E-02  0.89259319583E+00  0.88000000000E+00 0.  1.
        -11    1    4    4    0    0  0.59297009759E-01  0.33362888769E-03 -0.72263702131E-02  0.59738833451E-01  0.51100000000E-03 0. -1.
         11    1    4    4    0    0  0.57032603070E-01  0.17504753447E-01  0.29427988097E-02  0.59733201756E-01  0.51100000000E-03 0.  1.
</event>
<event>
 8    1  0.1099478E+005  0.1043930E+01  0.7957747E-01            NaN
         13   -1    0    0    0    0  0.00000000000E+00  0.00000000000E+00  0.74505805969E-08  0.10566000000E+00  0.10566000000E+00 0.  1.
     999900   -1    0    0    0    0 -0.00000000000E+00 -0.00000000000E+00 -0.74505805969E-08  0.93827000000E+00  0.93827000000E+00 0. -1.
     999902    2    1    2    0    0 -0.87576106692E-02  0.10163538572E-01 -0.18217982850E-01  0.10213050545E+01  0.10210544188E+01 0.  0.
     999903    2    3    3    0    0  0.91419954179E-01  0.15442526446E-02 -0.93661231721E-01  0.13237225590E+00  0.19748292707E-01 0.  0.
         14    1    1    2    0    0  0.87576106692E-02 -0.10163538572E-01  0.18217982850E-01  0.22624945526E-01  0.00000000000E+00 0.  1.
     999901    1    3    3    0    0 -0.10017756485E+00  0.86192859271E-02  0.75443248871E-01  0.88893279858E+00  0.88000000000E+00 0.  1.
        -11    1    4    4    0    0  0.13475947610E-01  0.33202210379E-02 -0.24445906965E-01  0.28115627684E-01  0.51100000000E-03 0.  1.
         11    1    4    4    0    0  0.77944006569E-01 -0.17759683932E-02 -0.69215324756E-01  0.10425662821E+00  0.51100000000E-03 0. -1.
</event>
<event>
 8    1  0.1099478E+005  0.1043930E+01  0.7957747E-01            NaN
         13   -1    0    0    0    0  0.00000000000E+00  0.00000000000E+00  0.74505805969E-08  0.10566000000E+00  0.10566000000E+00 0.  1.
     999900   -1    0    0    0    0 -0.00000000000E+00 -0.00000000000E+00 -0.74505805969E-08  0.93827000000E+00  0.93827000000E+00 0. -1.
     999902    2    1    2    0    0 -0.11915820432E-01  0.19356944507E-01  0.82905911507E-02  0.10197347116E+01  0.10194476299E+01 0.  0.
     999903    2    3    3    0    0  0.92637652911E-01  0.77381698392E-01 -0.43985477338E-01  0.13011058416E+00  0.20600483289E-01 0.  0.
         14    1    1    2    0    0  0.11915820432E-01 -0.19356944507E-01 -0.82905911507E-02  0.24195288360E-01  0.00000000000E+00 0.  1.
     999901    1    3    3    0    0 -0.10455347334E+00 -0.58024753886E-01  0.52276068489E-01  0.88962412748E+00  0.88000000000E+00 0.  1.
        -11    1    4    4    0    0  0.80951797517E-01  0.72333563134E-01 -0.33506190592E-01  0.11361454047E+00  0.51100000000E-03 0.  1.
         11    1    4    4    0    0  0.11685855395E-01  0.50481352582E-02 -0.10479286746E-01  0.16496043695E-01  0.51100000000E-03 0. -1.
</event>
<event>
 8    1  0.1099478E+005  0.1043930E+01  0.7957747E-01            NaN
         13   -1    0    0    0    0  0.00000000000E+00  0.00000000000E+00  0.74505805969E-08  0.10566000000E+00  0.10566000000E+00 0.  1.
     999900   -1    0    0    0    0 -0.00000000000E+00 -0.00000000000E+00 -0.74505805969E-08  0.93827000000E+00  0.93827000000E+00 0. -1.
     999902    2    1    2    0    0 -0.21080901762E-01  0.17571478826E-01 -0.18597091347E-02  0.10164232771E+01  0.10160510117E+01 0.  0.
     999903    2    3    3    0    0 -0.12112858706E+00  0.39668259458E-01 -0.18445235616E-01  0.13032345950E+00  0.19956752445E-01 0.  0.
         14    1    1    2    0    0  0.21080901762E-01 -0.17571478826E-01  0.18597091347E-02  0.27506722911E-01  0.00000000000E+00 0. -1.
     999901    1    3    3    0    0  0.10004768529E+00 -0.22096780633E-01  0.16585526481E-01  0.88609981759E+00  0.88000000000E+00 0.  1.
        -11    1    4    4    0    0 -0.49398301272E-01  0.11192294154E-01  0.12651318963E-02  0.50668740824E-01  0.51100000000E-03 0. -1.
         11    1    4    4    0    0 -0.71730285783E-01  0.28475965304E-01 -0.19710367512E-01  0.79654718674E-01  0.51100000000E-03 0.  1.
</event>
<event>
 8    1  0.1099478E+005  0.1043930E+01  0.7957747E-01            NaN
         13   -1    0    0    0    0  0.00000000000E+00  0.00000000000E+00  0.74505805969E-08  0.10566000000E+00  0.10566000000E+00 0. -1.
     999900   -1    0    0    0    0 -0.00000000000E+00 -0.00000000000E+00 -0.74505805969E-08  0.93827000000E+00  0.93827000000E+00 0.  1.
     999902    2    1    2    0    0 -0.19093831006E-01  0.44926075275E-02 -0.16434478071E-01  0.10183399634E+01  0.10180183844E+01 0.  0.
     999903    2    3    3    0    0  0.98698604805E-01 -0.64070574597E-01 -0.44432147159E-01  0.12740795848E+00  0.20300715826E-01 0.  0.
         14    1    1    2    0    0  0.19093831006E-01 -0.44926075275E-02  0.16434478071E-01  0.25590036622E-01  0.00000000000E+00 0. -1.
     999901    1    3    3    0    0 -0.11779243581E+00  0.68563182125E-01  0.27997669088E-01  0.89093200490E+00  0.88000000000E+00 0. -1.
        -11    1    4    4    0    0  0.72116749581E-01 -0.54039559300E-01 -0.27023015053E-01  0.94082963405E-01  0.51100000000E-03 0.  1.
         11    1    4    4    0    0  0.26581855224E-01 -0.10031015298E-01 -0.17409132106E-01  0.33324995075E-01  0.51100000000E-03 0. -1.
</event>
<event>
 8    1  0.1099478E+005  0.1043930E+01  0.7957747E-01            NaN
         13   -1    0    0    0    0  0.00000000000E+00  0.00000000000E+00  0.74505805969E-08  0.10566000000E+00  0.10566000000E+00 0. -1.
     999900   -1    0    0    0    0 -0.00000000000E+00 -0.00000000000E+00 -0.74505805969E-08  0.93827000000E+00  0.93827000000E+00 0.  1.
     999902    2    1    2    0    0 -0.16898101726E-01  0.29138639059E-02 -0.14439288465E-01  0.10215128303E+01  0.10212668275E+01 0.  0.
     999903    2    3    3    0    0 -0.78391623986E-01 -0.10214958330E+00  0.22992526907E-01  0.13234416128E+00  0.20162754061E-01 0.  0.
         14    1    1    2    0    0  0.16898101726E-01 -0.29138639059E-02  0.14439288465E-01  0.22417169674E-01  0.00000000000E+00 0.  1.
     999901    1    3    3    0    0  0.61493522259E-01  0.10506344720E+00 -0.37431815373E-01  0.88916866905E+00  0.88000000000E+00 0.  1.
        -11    1    4    4    0    0 -0.44488249416E-01 -0.65040881727E-01  0.50234956444E-02  0.78962125486E-01  0.51100000000E-03 0. -1.
         11    1    4    4    0    0 -0.33903374570E-01 -0.37108701571E-01  0.17969031263E-01  0.53382035789E-01  0.51100000000E-03 0.  1.
</event>
<event>
 8    1  0.1099478E+005  0.1043930E+01  0.7957747E-01            NaN
         13   -1    0    0    0    0  0.00000000000E+00  0.00000000000E+00  0.74505805969E-08  0.10566000000E+00  0.10566000000E+00 0.  1.
     999900   -1    0    0    0    0 -0.00000000000E+00 -0.00000000000E+00 -0.74505805969E-08  0.93827000000E+00  0.93827000000E+00 0. -1.
     999902    2    1    2    0    0 -0.18821216018E-01 -0.14178193706E-01  0.28219426566E-02  0.10201976864E+01  0.10199216130E+01 0.  0.
     999903    2    3    3    0    0  0.37301955183E-01 -0.24865836559E-01  0.12105475456E+00  0.13045444597E+00  0.18824536722E-01 0.  0.
         14    1    1    2    0    0  0.18821216018E-01  0.14178193706E-01 -0.28219426566E-02  0.23732313614E-01  0.00000000000E+00 0. -1.
     999901    1    3    3    0    0 -0.56123171200E-01  0.10687642854E-01 -0.11823281191E+00  0.88974324042E+00  0.88000000000E+00 0. -1.
        -11    1    4    4    0    0  0.12049259303E-01 -0.19235432118E-01  0.53912656813E-01  0.58498052824E-01  0.51100000000E-03 0. -1.
         11    1    4    4    0    0  0.25252695880E-01 -0.56304044408E-02  0.67142097749E-01  0.71956393145E-01  0.51100000000E-03 0.  1.
</event>
<event>
 8    1  0.1099478E+005  0.1043930E+01  0.7957747E-01            NaN
         13   -1    0    0    0    0  0.00000000000E+00  0.00000000000E+00  0.74505805969E-08  0.10566000000E+00  0.10566000000E+00 0. -1.
     999900   -1    0    0    0    0 -0.00000000000E+00 -0.00000000000E+00 -0.74505805969E-08  0.93827000000E+00  0.93827000000E+00 0. -1.
     999902    2    1    2    0    0 -0.36028573664E-03 -0.23252104731E-01  0.36578961283E-03  0.10206722275E+01  0.10204072089E+01 0.  0.
     999903    2    3    3    0    0 -0.86166761280E-01  0.65109642216E-01  0.68504720186E-01  0.12948567943E+00  0.20240262641E-01 0.  0.
         14    1    1    2    0    0  0.36028573664E-03  0.23252104731E-01 -0.36578961283E-03  0.23257772514E-01  0.00000000000E+00 0.  1.
     999901    1    3    3    0    0  0.85806475544E-01 -0.88361746948E-01 -0.68138930573E-01  0.89118654805E+00  0.88000000000E+00 0. -1.
        -11    1    4    4    0    0 -0.60037033338E-01  0.33288323174E-01  0.40878975291E-01  0.79899371547E-01  0.51100000000E-03 0.  1.
         11    1    4    4    0    0 -0.26129727943E-01  0.31821319042E-01  0.27625744895E-01  0.49586307888E-01  0.51100000000E-03 0. -1.
</event>
<event>
 8    1  0.1099478E+005  0.1043930E+01  0.7957747E-01            NaN
         13   -1    0    0    0    0  0.00000000000E+00  0.00000000000E+00  0.74505805969E-08  0.10566000000E+00  0.10566000000E+00 0.  1.
     999900   -1    0    0    0    0 -0.00000000000E+00 -0.00000000000E+00 -0.74505805969E-08  0.93827000000E+00  0.93827000000E+00 0.  1.
     999902    2    1    2    0    0  0.23218565577E-01  0.41551044770E-02 -0.23505496256E-02  0.10202257438E+01  0.10199503304E+01 0.  0.
     999903    2    3    3    0    0 -0.84716862156E-01 -0.27524105154E-01 -0.91139703500E-01  0.12863326805E+00  0.17479959879E-01 0.  0.
         14    1    1    2    0    0 -0.23218565577E-01 -0.41551044770E-02  0.23505496256E-02  0.23704256247E-01  0.00000000000E+00 0.  1.
     999901    1    3    3    0    0  0.10793542773E+00  0.31679209631E-01  0.88789153874E-01  0.89159247570E+00  0.88000000000E+00 0. -1.
        -11    1    4    4    0    0 -0.16723833885E-01  0.15555165190E-02 -0.15870062955E-01  0.23113335342E-01  0.51100000000E-03 0.  1.
         11    1    4    4    0    0 -0.67993028271E-01 -0.29079621673E-01 -0.75269640545E-01  0.10551993271E+00  0.51100000000E-03 0. -1.
</event>
<event>
 8    1  0.1285298E+005  0.1043930E+01  0.7957747E-01            NaN
         13   -1    0    0    0    0  0.00000000000E+00  0.00000000000E+00  0.74505805969E-08  0.10566000000E+00  0.10566000000E+00 0. -1.
     999900   -1    0    0    0    0 -0.00000000000E+00 -0.00000000000E+00 -0.74505805969E-08  0.93827000000E+00  0.93827000000E+00 0. -1.
     999902    2    1    2    0    0 -0.20455396968E-01  0.13071847149E-01  0.10017781761E-01  0.10176687661E+01  0.10173298704E+01 0.  0.
     999903    2    3    3    0    0 -0.14203421040E-01  0.12612830133E+00  0.21920901205E-01  0.13033425576E+00  0.19909966104E-01 0.  0.
         14    1    1    2    0    0  0.20455396968E-01 -0.13071847149E-01 -0.10017781761E-01  0.26261233871E-01  0.00000000000E+00 0.  1.
     999901    1    3    3    0    0 -0.62519759284E-02 -0.11305645418E+00 -0.11903119443E-01  0.88733451037E+00  0.88000000000E+00 0. -1.
        -11    1    4    4    0    0  0.22423881399E-02  0.54939872054E-01  0.14663453295E-01  0.56909540759E-01  0.51100000000E-03 0. -1.
         11    1    4    4    0    0 -0.16445809180E-01  0.71188429274E-01  0.72574479095E-02  0.73424715003E-01  0.51100000000E-03 0.  1.
</event>
<event>
 8    1  0.1099478E+005  0.1043930E+01  0.7957747E-01            NaN
         13   -1    0    0    0    0  0.00000000000E+00  0.00000000000E+00  0.74505805969E-08  0.10566000000E+00  0.10566000000E+00 0. -1.
     999900   -1    0    0    0    0 -0.00000000000E+00 -0.00000000000E+00 -0.74505805969E-08  0.93827000000E+00  0.93827000000E+00 0. -1.
     999902    2    1    2    0    0 -0.17379449813E-01  0.13481886067E-02  0.16464931541E-01  0.10199517420E+01  0.10196698481E+01 0.  0.
     999903    2    3    3    0    0 -0.16976209718E-01  0.12670821051E+00  0.20859013557E-01  0.13105658185E+00  0.19939079561E-01 0.  0.
         14    1    1    2    0    0  0.17379449813E-01 -0.13481886067E-02 -0.16464931541E-01  0.23978258047E-01  0.00000000000E+00 0.  1.
     999901    1    3    3    0    0 -0.40324009572E-03 -0.12536002190E+00 -0.43940820158E-02  0.88889516010E+00  0.88000000000E+00 0.  1.
        -11    1    4    4    0    0  0.62571107519E-03  0.45376561062E-01  0.14295526993E-01  0.47582003122E-01  0.51100000000E-03 0. -1.
         11    1    4    4    0    0 -0.17601920793E-01  0.81331649446E-01  0.65634865637E-02  0.83474578730E-01  0.51100000000E-03 0.  1.
</event>
<event>
 8    1  0.1099478E+005  0.1043930E+01  0.7957747E-01            NaN
         13   -1    0    0    0    0  0.00000000000E+00  0.00000000000E+00  0.74505805969E-08  0.10566000000E+00  0.10566000000E+00 0.  1.
     999900   -1    0    0    0    0 -0.00000000000E+00 -0.00000000000E+00 -0.74505805969E-08  0.93827000000E+00  0.93827000000E+00 0.  1.
     999902    2    1    2    0    0 -0.86634808840E-02 -0.22230270598E-01  0.26183527509E-02  0.10199279875E+01  0.10196455282E+01 0.  0.
     999903    2    3    3    0    0  0.51249980724E-01 -0.97469563938E-01  0.69730405038E-01  0.13214727039E+00  0.21764541507E-01 0.  0.
         14    1    1    2    0    0  0.86634808840E-02  0.22230270598E-01 -0.26183527509E-02  0.24002012478E-01  0.00000000000E+00 0. -1.
     999901    1    3    3    0    0 -0.59913461608E-01  0.75239293340E-01 -0.67112052287E-01  0.88778071713E+00  0.88000000000E+00 0.  1.
        -11    1    4    4    0    0  0.88461660761E-02 -0.13673904902E-01  0.20260483199E-01  0.25999589034E-01  0.51100000000E-03 0. -1.
         11    1    4    4    0    0  0.42403814648E-01 -0.83795659035E-01  0.49469921840E-01  0.10614768136E+00  0.51100000000E-03 0.  1.
</event>
<event>
 8    1  0.1099478E+005  0.1043930E+01  0.7957747E-01            NaN
         13   -1    0    0    0    0  0.00000000000E+00  0.00000000000E+00  0.74505805969E-08  0.10566000000E+00  0.10566000000E+00 0. -1.
     999900   -1    0    0    0    0 -0.00000000000E+00 -0.00000000000E+00 -0.74505805969E-08  0.93827000000E+00  0.93827000000E+00 0. -1.
     999902    2    1    2    0    0  0.21696525965E-01 -0.47801408670E-02  0.74835959043E-02  0.10204865960E+01  0.10202172804E+01 0.  0.
     999903    2    3    3    0    0 -0.72761556184E-01 -0.56013824867E-01 -0.87079847147E-01  0.12892085838E+00  0.24614940804E-01 0.  0.
         14    1    1    2    0    0 -0.21696525965E-01  0.47801408670E-02 -0.74835959043E-02  0.23443404047E-01  0.00000000000E+00 0. -1.
     999901    1    3    3    0    0  0.94458082149E-01  0.51233684000E-01  0.94563443051E-01  0.89156573758E+00  0.88000000000E+00 0.  1.
        -11    1    4    4    0    0 -0.34679972547E-01 -0.39057210313E-01 -0.38406628272E-01  0.64834376603E-01  0.51100000000E-03 0.  1.
         11    1    4    4    0    0 -0.38081583637E-01 -0.16956614554E-01 -0.48673218874E-01  0.64086481773E-01  0.51100000000E-03 0. -1.
</event>
<event>
 8    1  0.1099478E+005  0.1043930E+01  0.7957747E-01            NaN
         13   -1    0    0    0    0  0.00000000000E+00  0.00000000000E+00  0.74505805969E-08  0.10566000000E+00  0.10566000000E+00 0. -1.
     999900   -1    0    0    0    0 -0.00000000000E+00 -0.00000000000E+00 -0.74505805969E-08  0.93827000000E+00  0.93827000000E+00 0. -1.
     999902    2    1    2    0    0  0.11966575136E-01  0.17756910154E-01 -0.10075969105E-01  0.10202650062E+01  0.10199905151E+01 0.  0.
     999903    2    3    3    0    0  0.85229334447E-01  0.73986814214E-01  0.66113907119E-01  0.13215795676E+00  0.18883556113E-01 0.  0.
         14    1    1    2    0    0 -0.11966575136E-01 -0.17756910154E-01  0.10075969105E-01  0.23664993812E-01  0.00000000000E+00 0. -1.
     999901    1    3    3    0    0 -0.73262759310E-01 -0.56229904059E-01 -0.76189876225E-01  0.88810704943E+00  0.88000000000E+00 0. -1.
        -11    1    4    4    0    0  0.30947808962E-01  0.30470203266E-01  0.35721659558E-01  0.56236093829E-01  0.51100000000E-03 0.  1.
         11    1    4    4    0    0  0.54281525485E-01  0.43516610947E-01  0.30392247561E-01  0.75921862926E-01  0.51100000000E-03 0. -1.
</event>
<event>
 8    1  0.1099478E+005  0.1043930E+01  0.7957747E-01            NaN
         13   -1    0    0    0    0  0.00000000000E+00  0.00000000000E+00  0.74505805969E-08  0.10566000000E+00  0.10566000000E+00 0. -1.
     999900   -1    0    0    0    0 -0.00000000000E+00 -0.00000000000E+00 -0.74505805969E-08  0.93827000000E+00  0.93827000000E+00 0. -1.
     999902    2    1    2    0    0  0.19790908506E-01  0.11673583573E-01  0.43750115109E-02  0.10205399735E+01  0.10202718972E+01 0.  0.
     999903    2    3    3    0    0 -0.40962008873E-01 -0.74939185614E-01  0.95179161710E-01  0.12956405777E+00  0.20832775393E-01 0.  0.
         14    1    1    2    0    0 -0.19790908506E-01 -0.11673583573E-01 -0.43750115109E-02  0.23390026478E-01  0.00000000000E+00 0. -1.
     999901    1    3    3    0    0  0.60752917379E-01  0.86612769187E-01 -0.90804150199E-01  0.89097591575E+00  0.88000000000E+00 0. -1.
        -11    1    4    4    0    0 -0.28085889988E-01 -0.58004820850E-01  0.57892461939E-01  0.86632411537E-01  0.51100000000E-03 0. -1.
         11    1    4    4    0    0 -0.12876118885E-01 -0.16934364764E-01  0.37286699771E-01  0.42931646234E-01  0.51100000000E-03 0.  1.
</event>
<event>
 8    1  0.1099478E+005  0.1043930E+01  0.7957747E-01            NaN
         13   -1    0    0    0    0  0.00000000000E+00  0.00000000000E+00  0.74505805969E-08  0.10566000000E+00  0.10566000000E+00 0. -1.
     999900   -1    0    0    0    0 -0.00000000000E+00 -0.00000000000E+00 -0.74505805969E-08  0.93827000000E+00  0.93827000000E+00 0.  1.
     999902    2    1    2    0    0 -0.20215488741E-01 -0.11642008330E-01 -0.46035848332E-02  0.10201519568E+01  0.10198748059E+01 0.  0.
     999903    2    3    3    0    0 -0.20431274384E-01 -0.11664311908E+00 -0.55689581308E-01  0.13243856906E+00  0.20386046872E-01 0.  0.
         14    1    1    2    0    0  0.20215488741E-01  0.11642008330E-01  0.46035848332E-02  0.23778043155E-01  0.00000000000E+00 0.  1.
     999901    1    3    3    0    0  0.21578564349E-03  0.10500111074E+00  0.51085996475E-01  0.88771338779E+00  0.88000000000E+00 0.  1.
        -11    1    4    4    0    0 -0.54669243894E-02 -0.84649970820E-01 -0.38557349190E-01  0.93179585316E-01  0.51100000000E-03 0.  1.
         11    1    4    4    0    0 -0.14964349995E-01 -0.31993148255E-01 -0.17132232118E-01  0.39258983741E-01  0.51100000000E-03 0. -1.
</event>
<event>
 8    1  0.1099478E+005  0.1043930E+01  0.7957747E-01            NaN
         13   -1    0    0    0    0  0.00000000000E+00  0.00000000000E+00  0.74505805969E-08  0.10566000000E+00  0.10566000000E+00 0.  1.
     999900   -1    0    0    0    0 -0.00000000000E+00 -0.00000000000E+00 -0.74505805969E-08  0.93827000000E+00  0.93827000000E+00 0.  1.
     999902    2    1    2    0    0  0.54437495092E-02  0.22209339407E-01  0.95792863258E-02  0.10191378260E+01  0.10188362265E+01 0.  0.
     999903    2    3    3    0    0  0.48934537610E-01 -0.12868661100E-02 -0.11736287081E+00  0.12865602855E+00  0.19547000835E-01 0.  0.
         14    1    1    2    0    0 -0.54437495092E-02 -0.22209339407E-01 -0.95792863258E-02  0.24792174010E-01  0.00000000000E+00 0.  1.
     999901    1    3    3    0    0 -0.43490788101E-01  0.23496205517E-01  0.12694215713E+00  0.89048179744E+00  0.88000000000E+00 0. -1.
        -11    1    4    4    0    0  0.28394080320E-01  0.48513135605E-02 -0.85715613296E-01  0.90427797298E-01  0.51100000000E-03 0. -1.
         11    1    4    4    0    0  0.20540457290E-01 -0.61381796705E-02 -0.31647257510E-01  0.38228231247E-01  0.51100000000E-03 0.  1.
</event>
<event>
 8    1  0.1099478E+005  0.1043930E+01  0.7957747E-01            NaN
         13   -1    0    0    0    0  0.00000000000E+00  0.00000000000E+00  0.74505805969E-08  0.10566000000E+00  0.10566000000E+00 0.  1.
     999900   -1    0    0    0    0 -0.00000000000E+00 -0.00000000000E+00 -0.74505805969E-08  0.93827000000E+00  0.93827000000E+00 0. -1.
     999902    2    1    2    0    0 -0.17217162239E-01  0.16181233018E-01 -0.17626280782E-02  0.10202367555E+01  0.10199616010E+01 0.  0.
     999903    2    3    3    0    0 -0.92641185137E-01  0.90363389735E-01  0.25750587032E-01  0.13347367969E+00  0.20104702161E-01 0.  0.
         14    1    1    2    0    0  0.17217162239E-01 -0.16181233018E-01  0.17626280782E-02  0.23693244507E-01  0.00000000000E+00 0.  1.
     999901    1    3    3    0    0  0.75424022898E-01 -0.74182156717E-01 -0.27513215110E-01  0.88676307580E+00  0.88000000000E+00 0.  1.
        -11    1    4    4    0    0 -0.69277078600E-01  0.54502964075E-01  0.16400602300E-01  0.89661182176E-01  0.51100000000E-03 0.  1.
         11    1    4    4    0    0 -0.23364106536E-01  0.35860425660E-01  0.93499847326E-02  0.43812497512E-01  0.51100000000E-03 0. -1.
</event>
<event>
 8    1  0.1099478E+005  0.1043930E+01  0.7957747E-01            NaN
         13   -1    0    0    0    0  0.00000000000E+00  0.00000000000E+00  0.74505805969E-08  0.10566000000E+00  0.10566000000E+00 0.  1.
     999900   -1    0    0    0    0 -0.00000000000E+00 -0.00000000000E+00 -0.74505805969E-08  0.93827000000E+00  0.93827000000E+00 0.  1.
     999902    2    1    2    0    0 -0.99574420544E-02 -0.21578923983E-02 -0.21693483188E-01  0.10199630568E+01  0.10196814321E+01 0.  0.
     999903    2    3    3    0    0 -0.29772680954E-01  0.66011694306E-01 -0.10920835173E+00  0.13277728798E+00  0.21433333817E-01 0.  0.
         14    1    1    2    0    0  0.99574420544E-02  0.21578923983E-02  0.21693483188E-01  0.23966943166E-01  0.00000000000E+00 0. -1.
     999901    1    3    3    0    0  0.19815238900E-01 -0.68169586705E-01  0.87514868544E-01  0.88718576886E+00  0.88000000000E+00 0. -1.
        -11    1    4    4    0    0  0.11166252889E-02  0.57999613565E-02 -0.19651263939E-01  0.20526073642E-01  0.51100000000E-03 0.  1.
         11    1    4    4    0    0 -0.30889306243E-01  0.60211732950E-01 -0.89557087794E-01  0.11225121434E+00  0.51100000000E-03 0. -1.
</event>
<event>
 8    1  0.1099478E+005  0.1043930E+01  0.7957747E-01            NaN
         13   -1    0    0    0    0  0.00000000000E+00  0.00000000000E+00  0.74505805969E-08  0.10566000000E+00  0.10566000000E+00 0. -1.
     999900   -1    0    0    0    0 -0.00000000000E+00 -0.00000000000E+00 -0.74505805969E-08  0.93827000000E+00  0.93827000000E+00 0.  1.
     999902    2    1    2    0    0 -0.63467885410E-02  0.10757811457E-02 -0.23017182440E-01  0.10200295875E+01  0.10197495426E+01 0.  0.
     999903    2    3    3    0    0  0.36685066964E-01 -0.85698901346E-03  0.12027701622E+00  0.12739937092E+00  0.20433073973E-01 0.  0.
         14    1    1    2    0    0  0.63467885410E-02 -0.10757811457E-02  0.23017182440E-01  0.23900412493E-01  0.00000000000E+00 0. -1.
     999901    1    3    3    0    0 -0.43031855505E-01  0.19327701591E-02 -0.14329419866E+00  0.89263021658E+00  0.88000000000E+00 0.  1.
        -11    1    4    4    0    0 -0.15026344179E-02  0.27476392400E-02  0.15483711348E-01  0.15805501248E-01  0.51100000000E-03 0.  1.
         11    1    4    4    0    0  0.38187701382E-01 -0.36046282535E-02  0.10479330487E+00  0.11159386968E+00  0.51100000000E-03 0. -1.
</event>
<event>
 8    1  0.1099478E+005  0.1043930E+01  0.7957747E-01            NaN
         13   -1    0    0    0    0  0.00000000000E+00  0.00000000000E+00  0.74505805969E-08  0.10566000000E+00  0.10566000000E+00 0. -1.
     999900   -1    0    0    0    0 -0.00000000000E+00 -0.00000000000E+00 -0.74505805969E-08  0.93827000000E+00  0.93827000000E+00 0. -1.
     999902    2    1    2    0    0 -0.15316114554E-01 -0.16646538291E-01  0.67233848929E-02  0.10203313876E+01  0.10200584523E+01 0.  0.
     999903    2    3    3    0    0  0.45800235894E-01 -0.79587876342E-02 -0.11891596887E+00  0.12926689359E+00  0.20196985320E-01 0.  0.
         14    1    1    2    0    0  0.15316114554E-01  0.16646538291E-01 -0.67233848929E-02  0.23598612385E-01  0.00000000000E+00 0.  1.
     999901    1    3    3    0    0 -0.61116350448E-01 -0.86877506564E-02  0.12563935377E+00  0.89106449403E+00  0.88000000000E+00 0.  1.
        -11    1    4    4    0    0  0.60093312349E-02  0.37396064604E-02 -0.34363916218E-01  0.35088980851E-01  0.51100000000E-03 0. -1.
         11    1    4    4    0    0  0.39790904659E-01 -0.11698394095E-01 -0.84552052655E-01  0.94177912735E-01  0.51100000000E-03 0.  1.
</event>
<event>
 8    1  0.1099478E+005  0.1043930E+01  0.7957747E-01            NaN
         13   -1    0    0    0    0  0.00000000000E+00  0.00000000000E+00  0.74505805969E-08  0.10566000000E+00  0.10566000000E+00 0.  1.
     999900   -1    0    0    0    0 -0.00000000000E+00 -0.00000000000E+00 -0.74505805969E-08  0.93827000000E+00  0.93827000000E+00 0. -1.
     999902    2    1    2    0    0 -0.10149363344E-01  0.19613760642E-01  0.48034427038E-02  0.10213295079E+01  0.10210794197E+01 0.  0.
     999903    2    3    3    0    0  0.11056259973E+00 -0.17069878499E-01  0.63907674535E-01  0.13036913971E+00  0.19911115341E-01 0.  0.
         14    1    1    2    0    0  0.10149363344E-01 -0.19613760642E-01 -0.48034427038E-02  0.22600492132E-01  0.00000000000E+00 0. -1.
     999901    1    3    3    0    0 -0.12071196307E+00  0.36683639141E-01 -0.59104231831E-01  0.89096036816E+00  0.88000000000E+00 0. -1.
        -11    1    4    4    0    0  0.88553224772E-01 -0.17724956416E-01  0.58779405637E-01  0.10775494117E+00  0.51100000000E-03 0.  1.
         11    1    4    4    0    0  0.22009374953E-01  0.65507791619E-03  0.51282688974E-02  0.22614198544E-01  0.51100000000E-03 0. -1.
</event>
<event>
 8    1  0.1099478E+005  0.1043930E+01  0.7957747E-01            NaN
         13   -1    0    0    0    0  0.00000000000E+00  0.00000000000E+00  0.74505805969E-08  0.10566000000E+00  0.10566000000E+00 0.  1.
     999900   -1    0    0    0    0 -0.00000000000E+00 -0.00000000000E+00 -0.74505805969E-08  0.93827000000E+00  0.93827000000E+00 0. -1.
     999902    2    1    2    0    0 -0.37273441644E-02 -0.22179506785E-01  0.66413479344E-02  0.10204793898E+01  0.10202099068E+01 0.  0.
     999903    2    3    3    0    0  0.94558546572E-01 -0.90566294590E-01  0.85827482327E-03  0.13235197046E+00  0.19306346229E-01 0.  0.
         14    1    1    2    0    0  0.37273441644E-02  0.22179506785E-01 -0.66413479344E-02  0.23450610187E-01  0.00000000000E+00 0. -1.
     999901    1    3    3    0    0 -0.98285890737E-01  0.68386787805E-01  0.57830731111E-02  0.88812741935E+00  0.88000000000E+00 0. -1.
        -11    1    4    4    0    0  0.53213155184E-01 -0.37987133812E-01  0.26708625028E-02  0.65437426961E-01  0.51100000000E-03 0. -1.
         11    1    4    4    0    0  0.41345391389E-01 -0.52579160778E-01 -0.18125876795E-02  0.66914543503E-01  0.51100000000E-03 0.  1.
</event>
<event>
 8    1  0.1099478E+005  0.1043930E+01  0.7957747E-01            NaN
         13   -1    0    0    0    0  0.00000000000E+00  0.00000000000E+00  0.74505805969E-08  0.10566000000E+00  0.10566000000E+00 0. -1.
     999900   -1    0    0    0    0 -0.00000000000E+00 -0.00000000000E+00 -0.74505805969E-08  0.93827000000E+00  0.93827000000E+00 0. -1.
     999902    2    1    2    0    0  0.83787692558E-02  0.14429736530E-01 -0.16488226799E-01  0.10204718949E+01  0.10202022376E+01 0.  0.
     999903    2    3    3    0    0 -0.58025255934E-02 -0.62531678923E-01  0.10954469067E+00  0.12805469155E+00  0.21309260960E-01 0.  0.
         14    1    1    2    0    0 -0.83787692558E-02 -0.14429736530E-01  0.16488226799E-01  0.23458105072E-01  0.00000000000E+00 0. -1.
     999901    1    3    3    0    0  0.14181294849E-01  0.76961415453E-01 -0.12603291747E+00  0.89241720337E+00  0.88000000000E+00 0. -1.
        -11    1    4    4    0    0  0.70251644028E-02 -0.19053016240E-01  0.25911746774E-01  0.32924916168E-01  0.51100000000E-03 0.  1.
         11    1    4    4    0    0 -0.12827689996E-01 -0.43478662683E-01  0.83632943896E-01  0.95129775387E-01  0.51100000000E-03 0. -1.
</event>
<event>
 8    1  0.1099478E+005  0.1043930E+01  0.7957747E-01            NaN
         13   -1    0    0    0    0  0.00000000000E+00  0.00000000000E+00  0.74505805969E-08  0.10566000000E+00  0.10566000000E+00 0. -1.
     999900   -1    0    0    0    0 -0.00000000000E+00 -0.00000000000E+00 -0.74505805969E-08  0.93827000000E+00  0.93827000000E+00 0.  1.
     999902    2    1    2    0    0 -0.11431750264E-01  0.21281717436E-01  0.72366005880E-02  0.10187116575E+01  0.10183994679E+01 0.  0.
     999903    2    3    3    0    0  0.91571408002E-01 -0.47333790980E-01 -0.70768071245E-01  0.12663404459E+00  0.20056191270E-01 0.  0.
         14    1    1    2    0    0  0.11431750264E-01 -0.21281717436E-01 -0.72366005880E-02  0.25218342515E-01  0.00000000000E+00 0. -1.
     999901    1    3    3    0    0 -0.10300315827E+00  0.68615508416E-01  0.78004671833E-01  0.89207761290E+00  0.88000000000E+00 0. -1.
        -11    1    4    4    0    0  0.50321444391E-01 -0.36901251460E-01 -0.44155353966E-01  0.76445448065E-01  0.51100000000E-03 0. -1.
         11    1    4    4    0    0  0.41249963611E-01 -0.10432539520E-01 -0.26612717279E-01  0.50188596521E-01  0.51100000000E-03 0.  1.
</event>
<event>
 8    1  0.1099478E+005  0.1043930E+01  0.7957747E-01            NaN
         13   -1    0    0    0    0  0.00000000000E+00  0.00000000000E+00  0.74505805969E-08  0.10566000000E+00  0.10566000000E+00 0.  1.
     999900   -1    0    0    0    0 -0.00000000000E+00 -0.00000000000E+00 -0.74505805969E-08  0.93827000000E+00  0.93827000000E+00 0.  1.
     999902    2    1    2    0    0  0.20399864340E-01 -0.22346990201E-03 -0.99599148421E-02  0.10212274824E+01  0.10209751057E+01 0.  0.
     999903    2    3    3    0    0  0.63780925450E-01  0.50622676928E-01 -0.10417557175E+00  0.13367813887E+00  0.19662990420E-01 0.  0.
         14    1    1    2    0    0 -0.20399864340E-01  0.22346990201E-03  0.99599148421E-02  0.22702517648E-01  0.00000000000E+00 0. -1.
     999901    1    3    3    0    0 -0.43381061111E-01 -0.50846146830E-01  0.94215656905E-01  0.88754934348E+00  0.88000000000E+00 0. -1.
        -11    1    4    4    0    0  0.71421923863E-02  0.15575918591E-01 -0.20177161326E-01  0.26476387824E-01  0.51100000000E-03 0. -1.
         11    1    4    4    0    0  0.56638733064E-01  0.35046758337E-01 -0.83998410421E-01  0.10720175105E+00  0.51100000000E-03 0.  1.
</event>
<event>
 8    1  0.1099478E+005  0.1043930E+01  0.7957747E-01            NaN
         13   -1    0    0    0    0  0.00000000000E+00  0.00000000000E+00  0.74505805969E-08  0.10566000000E+00  0.10566000000E+00 0.  1.
     999900   -1    0    0    0    0 -0.00000000000E+00 -0.00000000000E+00 -0.74505805969E-08  0.93827000000E+00  0.93827000000E+00 0.  1.
     999902    2    1    2    0    0  0.12117216975E-02 -0.21515604601E-01  0.10045369556E-01  0.10201539835E+01  0.10198768804E+01 0.  0.
     999903    2    3    3    0    0  0.10906445684E+00  0.26062006666E-01 -0.61131693958E-01  0.12944526796E+00  0.21088135410E-01 0.  0.
         14    1    1    2    0    0 -0.12117216975E-02  0.21515604601E-01 -0.10045369556E-01  0.23776016494E-01  0.00000000000E+00 0. -1.
     999901    1    3    3    0    0 -0.10785273514E+00 -0.47577611267E-01  0.71177063514E-01  0.89070871554E+00  0.88000000000E+00 0. -1.
        -11    1    4    4    0    0  0.65911399633E-01  0.26168133411E-01 -0.36642600906E-01  0.79824965581E-01  0.51100000000E-03 0.  1.
         11    1    4    4    0    0  0.43153057207E-01 -0.10612674517E-03 -0.24489093052E-01  0.49620302384E-01  0.51100000000E-03 0. -1.
</event>
<event>
 8    1  0.1099478E+005  0.1043930E+01  0.7957747E-01            NaN
         13   -1    0    0    0    0  0.00000000000E+00  0.00000000000E+00  0.74505805969E-08  0.10566000000E+00  0.10566000000E+00 0. -1.
     999900   -1    0    0    0    0 -0.00000000000E+00 -0.00000000000E+00 -0.74505805969E-08  0.93827000000E+00  0.93827000000E+00 0. -1.
     999902    2    1    2    0    0 -0.93461177610E-02  0.72642847604E-02 -0.19868114157E-01  0.10208029226E+01  0.10205409081E+01 0.  0.
     999903    2    3    3    0    0 -0.70285183904E-01  0.20474175970E-01  0.10539129233E+00  0.12974849667E+00  0.19187207435E-01 0.  0.
         14    1    1    2    0    0  0.93461177610E-02 -0.72642847604E-02  0.19868114157E-01  0.23127077430E-01  0.00000000000E+00 0.  1.
     999901    1    3    3    0    0  0.60939066143E-01 -0.13209891210E-01 -0.12525940649E+00  0.89105442590E+00  0.88000000000E+00 0. -1.
        -11    1    4    4    0    0 -0.72987981032E-02  0.86597696310E-02  0.19908841241E-01  0.22910415631E-01  0.51100000000E-03 0. -1.
         11    1    4    4    0    0 -0.62986385801E-01  0.11814406339E-01  0.85482451094E-01  0.10683808104E+00  0.51100000000E-03 0.  1.
</event>
<event>
 8    1  0.1099478E+005  0.1043930E+01  0.7957747E-01            NaN
         13   -1    0    0    0    0  0.00000000000E+00  0.00000000000E+00  0.74505805969E-08  0.10566000000E+00  0.10566000000E+00 0.  1.
     999900   -1    0    0    0    0 -0.00000000000E+00 -0.00000000000E+00 -0.74505805969E-08  0.93827000000E+00  0.93827000000E+00 0.  1.
     999902    2    1    2    0    0  0.10691954938E-01  0.20851883589E-01  0.21666771714E-02  0.10203967588E+01  0.10201253511E+01 0.  0.
     999903    2    3    3    0    0  0.73531198178E-02 -0.10287122385E+00 -0.73989586260E-01  0.12847841527E+00  0.19891888997E-01 0.  0.
         14    1    1    2    0    0 -0.10691954938E-01 -0.20851883589E-01 -0.21666771714E-02  0.23533241161E-01  0.00000000000E+00 0. -1.
     999901    1    3    3    0    0  0.33388351206E-02  0.12372310744E+00  0.76156263431E-01  0.89191834357E+00  0.88000000000E+00 0.  1.
        -11    1    4    4    0    0  0.51429379545E-03 -0.58864312766E-01 -0.53123986970E-01  0.79294961555E-01  0.51100000000E-03 0.  1.
         11    1    4    4    0    0  0.68388260224E-02 -0.44006911085E-01 -0.20865599290E-01  0.49183453715E-01  0.51100000000E-03 0. -1.
</event>
<event>
 8    1  0.1099478E+005  0.1043930E+01  0.7957747E-01            NaN
         13   -1    0    0    0    0  0.00000000000E+00  0.00000000000E+00  0.74505805969E-08  0.10566000000E+00  0.10566000000E+00 0. -1.
     999900   -1    0    0    0    0 -0.00000000000E+00 -0.00000000000E+00 -0.74505805969E-08  0.93827000000E+00  0.93827000000E+00 0. -1.
     999902    2    1    2    0    0 -0.17917264735E-01 -0.14776654886E-01 -0.20992846230E-02  0.10206108040E+01  0.10203443675E+01 0.  0.
     999903    2    3    3    0    0 -0.52874648774E-01  0.10612598768E+00  0.49717466118E-01  0.13014775407E+00  0.20202913333E-01 0.  0.
         14    1    1    2    0    0  0.17917264735E-01  0.14776654886E-01  0.20992846230E-02  0.23319195980E-01  0.00000000000E+00 0.  1.
     999901    1    3    3    0    0  0.34957384038E-01 -0.12090264257E+00 -0.51816750741E-01  0.89046304996E+00  0.88000000000E+00 0. -1.
        -11    1    4    4    0    0 -0.10948587600E-01  0.23875598491E-01  0.20469931567E-01  0.33304579162E-01  0.51100000000E-03 0. -1.
         11    1    4    4    0    0 -0.41926061173E-01  0.82250389188E-01  0.29247534551E-01  0.96843174904E-01  0.51100000000E-03 0.  1.
</event>
<event>
 8    1  0.1099478E+005  0.1043930E+01  0.7957747E-01            NaN
         13   -1    0    0    0    0  0.00000000000E+00  0.00000000000E+00  0.74505805969E-08  0.10566000000E+00  0.10566000000E+00 0.  1.
     999900   -1    0    0    0    0 -0.00000000000E+00 -0.00000000000E+00 -0.74505805969E-08  0.93827000000E+00  0.93827000000E+00 0.  1.
     999902    2    1    2    0    0 -0.19521388512E-01 -0.71546435014E-02 -0.11166739008E-01  0.10203297968E+01  0.10200568242E+01 0.  0.
     999903    2    3    3    0    0 -0.95887623221E-01 -0.78461861397E-02 -0.90338987103E-01  0.13348114851E+00  0.20002137178E-01 0.  0.
         14    1    1    2    0    0  0.19521388512E-01  0.71546435014E-02  0.11166739008E-01  0.23600203244E-01  0.00000000000E+00 0. -1.
     999901    1    3    3    0    0  0.76366234708E-01  0.69154263822E-03  0.79172248095E-01  0.88684864825E+00  0.88000000000E+00 0. -1.
        -11    1    4    4    0    0 -0.27586915781E-01 -0.10385881245E-01 -0.21627561660E-01  0.36563875559E-01  0.51100000000E-03 0.  1.
         11    1    4    4    0    0 -0.68300707440E-01  0.25396951049E-02 -0.68711425443E-01  0.96917272947E-01  0.51100000000E-03 0. -1.
</event>
<event>
 8    1  0.1099478E+005  0.1043930E+01  0.7957747E-01            NaN
         13   -1    0    0    0    0  0.00000000000E+00  0.00000000000E+00  0.74505805969E-08  0.10566000000E+00  0.10566000000E+00 0. -1.
     999900   -1    0    0    0    0 -0.00000000000E+00 -0.00000000000E+00 -0.74505805969E-08  0.93827000000E+00  0.93827000000E+00 0.  1.
     999902    2    1    2    0    0  0.14432566032E-01  0.14579640666E-01  0.11973671965E-01  0.10201763960E+01  0.10198998212E+01 0.  0.
     999903    2    3    3    0    0  0.74479621469E-01 -0.36546247849E-01  0.10095126630E+00  0.13218060902E+00  0.19942742736E-01 0.  0.
         14    1    1    2    0    0 -0.14432566032E-01 -0.14579640666E-01 -0.11973671965E-01  0.23753604033E-01  0.00000000000E+00 0.  1.
     999901    1    3    3    0    0 -0.60047055437E-01  0.51125888516E-01 -0.88977594332E-01  0.88799578695E+00  0.88000000000E+00 0.  1.
        -11    1    4    4    0    0  0.40381438204E-01 -0.28826461652E-01  0.50489276573E-01  0.70788795813E-01  0.51100000000E-03 0.  1.
         11    1    4    4    0    0  0.34098183265E-01 -0.77197861975E-02  0.50461989724E-01  0.61391813206E-01  0.51100000000E-03 0. -1.
</event>
<event>
 8    1  0.1099478E+005  0.1043930E+01  0.7957747E-01            NaN
         13   -1    0    0    0    0  0.00000000000E+00  0.00000000000E+00  0.74505805969E-08  0.10566000000E+00  0.10566000000E+00 0. -1.
     999900   -1    0    0    0    0 -0.00000000000E+00 -0.00000000000E+00 -0.74505805969E-08  0.93827000000E+00  0.93827000000E+00 0. -1.
     999902    2    1    2    0    0 -0.15501464264E-01  0.18522560219E-01  0.25546436306E-02  0.10196420022E+01  0.10193526896E+01 0.  0.
     999903    2    3    3    0    0 -0.47754448394E-01 -0.91711088050E-01  0.74802508624E-01  0.12924239184E+00  0.20414934221E-01 0.  0.
         14    1    1    2    0    0  0.15501464264E-01 -0.18522560219E-01 -0.25546436306E-02  0.24287997765E-01  0.00000000000E+00 0.  1.
     999901    1    3    3    0    0  0.32252984131E-01  0.11023364827E+00 -0.72247864993E-01  0.89039961040E+00  0.88000000000E+00 0. -1.
        -11    1    4    4    0    0 -0.29478789634E-01 -0.67112764463E-01  0.42584560826E-01  0.84775162246E-01  0.51100000000E-03 0.  1.
         11    1    4    4    0    0 -0.18275658761E-01 -0.24598323588E-01  0.32217947797E-01  0.44467229593E-01  0.51100000000E-03 0. -1.
</event>
<event>
 8    1  0.1099478E+005  0.1043930E+01  0.7957747E-01            NaN
         13   -1    0    0    0    0  0.00000000000E+00  0.00000000000E+00  0.74505805969E-08  0.10566000000E+00  0.10566000000E+00 0.  1.
     999900   -1    0    0    0    0 -0.00000000000E+00 -0.00000000000E+00 -0.74505805969E-08  0.93827000000E+00  0.93827000000E+00 0. -1.
     999902    2    1    2    0    0  0.39634778634E-02 -0.13374285289E-01 -0.18906432140E-01  0.10204345996E+01  0.10201640742E+01 0.  0.
     999903    2    3    3    0    0 -0.96685757268E-01  0.80242600538E-01  0.21026861717E-01  0.12886909006E+00  0.19444867162E-01 0.  0.
         14    1    1    2    0    0 -0.39634778634E-02  0.13374285289E-01  0.18906432140E-01  0.23495400402E-01  0.00000000000E+00 0.  1.
     999901    1    3    3    0    0  0.10064923513E+00 -0.93616885827E-01 -0.39933293857E-01  0.89156550954E+00  0.88000000000E+00 0. -1.
        -11    1    4    4    0    0 -0.88698362490E-01  0.75674165287E-01  0.14318380891E-01  0.11747023433E+00  0.51100000000E-03 0.  1.
         11    1    4    4    0    0 -0.79873947780E-02  0.45684352514E-02  0.67084808267E-02  0.11398855732E-01  0.51100000000E-03 0. -1.
</event>
<event>
 8    1  0.1099478E+005  0.1043930E+01  0.7957747E-01            NaN
         13   -1    0    0    0    0  0.00000000000E+00  0.00000000000E+00  0.74505805969E-08  0.10566000000E+00  0.10566000000E+00 0. -1.
     999900   -1    0    0    0    0 -0.00000000000E+00 -0.00000000000E+00 -0.74505805969E-08  0.93827000000E+00  0.93827000000E+00 0. -1.
     999902    2    1    2    0    0  0.10914045663E-01 -0.74842777083E-02 -0.19283878622E-01  0.10205419949E+01  0.10202739655E+01 0.  0.
     999903    2    3    3    0    0 -0.10787587825E+00 -0.72340848026E-02 -0.71355685611E-01  0.13103506316E+00  0.19723509274E-01 0.  0.
         14    1    1    2    0    0 -0.10914045663E-01  0.74842777083E-02  0.19283878622E-01  0.23388005051E-01  0.00000000000E+00 0. -1.
     999901    1    3    3    0    0  0.11878992391E+00 -0.25019290567E-03  0.52071806989E-01  0.88950693179E+00  0.88000000000E+00 0.  1.
        -11    1    4    4    0    0 -0.36838189264E-01 -0.47318341386E-02 -0.13991401210E-01  0.39692100869E-01  0.51100000000E-03 0. -1.
         11    1    4    4    0    0 -0.71037688982E-01 -0.25022506640E-02 -0.57364284401E-01  0.91342962291E-01  0.51100000000E-03 0.  1.
</event>
<event>
 8    1  0.1099478E+005  0.1043930E+01  0.7957747E-01            NaN
         13   -1    0    0    0    0  0.00000000000E+00  0.00000000000E+00  0.74505805969E-08  0.10566000000E+00  0.10566000000E+00 0.  1.
     999900   -1    0    0    0    0 -0.00000000000E+00 -0.00000000000E+00 -0.74505805969E-08  0.93827000000E+00  0.93827000000E+00 0. -1.
     999902    2    1    2    0    0  0.41759262772E-03 -0.32535883692E-02  0.29689041234E-01  0.10140602931E+01  0.10136202833E+01 0.  0.
     999903    2    3    3    0    0 -0.93980952727E-01 -0.80075210882E-01  0.34790443237E-03  0.12519947758E+00  0.20744379396E-01 0.  0.
         14    1    1    2    0    0 -0.41759262772E-03  0.32535883692E-02 -0.29689041234E-01  0.29869706900E-01  0.00000000000E+00 0. -1.
     999901    1    3    3    0    0  0.94398545355E-01  0.76821622513E-01  0.29341136802E-01  0.88886081552E+00  0.88000000000E+00 0. -1.
        -11    1    4    4    0    0 -0.82493516965E-01 -0.60111184349E-01 -0.15334871531E-02  0.10208402191E+00  0.51100000000E-03 0.  1.
         11    1    4    4    0    0 -0.11487435762E-01 -0.19964026534E-01  0.18813915854E-02  0.23115455677E-01  0.51100000000E-03 0. -1.
</event>
<event>
 8    1  0.1099478E+005  0.1043930E+01  0.7957747E-01            NaN
         13   -1    0    0    0    0  0.00000000000E+00  0.00000000000E+00  0.74505805969E-08  0.10566000000E+00  0.10566000000E+00 0. -1.
     999900   -1    0    0    0    0 -0.00000000000E+00 -0.00000000000E+00 -0.74505805969E-08  0.93827000000E+00  0.93827000000E+00 0. -1.
     999902    2    1    2    0    0 -0.60544954854E-02 -0.22487978027E-01 -0.22538709178E-02  0.10205324359E+01  0.10202641848E+01 0.  0.
     999903    2    3    3    0    0  0.86352047635E-01 -0.91025913596E-01  0.36528719850E-01  0.13219662825E+00  0.19980191932E-01 0.  0.
         14    1    1    2    0    0  0.60544954854E-02  0.22487978027E-01  0.22538709178E-02  0.23397564092E-01  0.00000000000E+00 0. -1.
     999901    1    3    3    0    0 -0.92406543121E-01  0.68537935569E-01 -0.38782590768E-01  0.88833580766E+00  0.88000000000E+00 0. -1.
        -11    1    4    4    0    0  0.50794661828E-01 -0.46164640839E-01  0.11000955058E-01  0.69516572609E-01  0.51100000000E-03 0.  1.
         11    1    4    4    0    0  0.35557385807E-01 -0.44861272756E-01  0.25527764792E-01  0.62680055640E-01  0.51100000000E-03 0. -1.
</event>
<event>
 8    1  0.1099478E+005  0.1043930E+01  0.7957747E-01            NaN
         13   -1    0    0    0    0  0.00000000000E+00  0.00000000000E+00  0.74505805969E-08  0.10566000000E+00  0.10566000000E+00 0.  1.
     999900   -1    0    0    0    0 -0.00000000000E+00 -0.00000000000E+00 -0.74505805969E-08  0.93827000000E+00  0.93827000000E+00 0.  1.
     999902    2    1    2    0    0 -0.80561393393E-02  0.87337239128E-02 -0.20638994468E-01  0.10201151431E+01  0.10198371232E+01 0.  0.
     999903    2    3    3    0    0 -0.59798964591E-02 -0.12114997233E+00 -0.43480054275E-01  0.13028605880E+00  0.19257908526E-01 0.  0.
         14    1    1    2    0    0  0.80561393393E-02 -0.87337239128E-02  0.20638994468E-01  0.23814856857E-01  0.00000000000E+00 0.  1.
     999901    1    3    3    0    0 -0.20762428802E-02  0.12988369624E+00  0.22841059806E-01  0.88982908435E+00  0.88000000000E+00 0. -1.
        -11    1    4    4    0    0  0.24830619617E-02 -0.73490264157E-01 -0.33752937924E-01  0.80910484253E-01  0.51100000000E-03 0. -1.
         11    1    4    4    0    0 -0.84629584208E-02 -0.47659708171E-01 -0.97271163501E-02  0.49375574545E-01  0.51100000000E-03 0.  1.
</event>
<event>
 8    1  0.1099478E+005  0.1043930E+01  0.7957747E-01            NaN
         13   -1    0    0    0    0  0.00000000000E+00  0.00000000000E+00  0.74505805969E-08  0.10566000000E+00  0.10566000000E+00 0. -1.
     999900   -1    0    0    0    0 -0.00000000000E+00 -0.00000000000E+00 -0.74505805969E-08  0.93827000000E+00  0.93827000000E+00 0. -1.
     999902    2    1    2    0    0 -0.22476581387E-01 -0.71422456309E-03  0.63341020336E-03  0.10214331550E+01  0.10211853808E+01 0.  0.
     999903    2    3    3    0    0 -0.88691266758E-02 -0.12345260237E+00 -0.40472654681E-01  0.13186045936E+00  0.20734959018E-01 0.  0.
         14    1    1    2    0    0  0.22476581387E-01  0.71422456309E-03 -0.63341020336E-03  0.22496845025E-01  0.00000000000E+00 0.  1.
     999901    1    3    3    0    0 -0.13607454712E-01  0.12273837781E+00  0.41106064884E-01  0.88957269561E+00  0.88000000000E+00 0.  1.
        -11    1    4    4    0    0 -0.14195548084E-01 -0.65060429366E-01 -0.17237070447E-01  0.68787722548E-01  0.51100000000E-03 0. -1.
         11    1    4    4    0    0  0.53264214086E-02 -0.58392173006E-01 -0.23235584234E-01  0.63072736813E-01  0.51100000000E-03 0.  1.
</event>
<event>
 8    1  0.1099478E+005  0.1043930E+01  0.7957747E-01            NaN
         13   -1    0    0    0    0  0.00000000000E+00  0.00000000000E+00  0.74505805969E-08  0.10566000000E+00  0.10566000000E+00 0. -1.
     999900   -1    0    0    0    0 -0.00000000000E+00 -0.00000000000E+00 -0.74505805969E-08  0.93827000000E+00  0.93827000000E+00 0. -1.
     999902    2    1    2    0    0  0.19630211793E-02 -0.96582123817E-03 -0.24132293800E-01  0.10196987419E+01  0.10194107957E+01 0.  0.
     999903    2    3    3    0    0  0.44015927694E-01 -0.12008442600E+00  0.10221111629E-01  0.13001461518E+00  0.21015655590E-01 0.  0.
         14    1    1    2    0    0 -0.19630211793E-02  0.96582123817E-03  0.24132293800E-01  0.24231258054E-01  0.00000000000E+00 0. -1.
     999901    1    3    3    0    0 -0.42052906514E-01  0.11911860476E+00 -0.34353405430E-01  0.88968412676E+00  0.88000000000E+00 0.  1.
        -11    1    4    4    0    0  0.89831324173E-02 -0.45690259074E-01 -0.32749372979E-02  0.46682788880E-01  0.51100000000E-03 0.  1.
         11    1    4    4    0    0  0.35032795276E-01 -0.74394166927E-01  0.13496048927E-01  0.83331826305E-01  0.51100000000E-03 0. -1.
</event>
<event>
 8    1  0.1099478E+005  0.1043930E+01  0.7957747E-01            NaN
         13   -1    0    0    0    0  0.00000000000E+00  0.00000000000E+00  0.74505805969E-08  0.10566000000E+00  0.10566000000E+00 0. -1.
     999900   -1    0    0    0    0 -0.00000000000E+00 -0.00000000000E+00 -0.74505805969E-08  0.93827000000E+00  0.93827000000E+00 0. -1.
     999902    2    1    2    0    0  0.12143313915E-01 -0.20445001113E-01  0.31545393696E-02  0.10199423102E+01  0.10196601919E+01 0.  0.
     999903    2    3    3    0    0  0.10823923687E+00 -0.26203488396E-01 -0.67438379319E-01  0.13188209447E+00  0.21037980798E-01 0.  0.
         14    1    1    2    0    0 -0.12143313915E-01  0.20445001113E-01 -0.31545393696E-02  0.23987689801E-01  0.00000000000E+00 0. -1.
     999901    1    3    3    0    0 -0.96095922952E-01  0.57584872837E-02  0.70592918688E-01  0.88806021572E+00  0.88000000000E+00 0.  1.
        -11    1    4    4    0    0  0.56600218743E-01 -0.24350501528E-01 -0.34874044679E-01  0.70802484418E-01  0.51100000000E-03 0.  1.
         11    1    4    4    0    0  0.51639018124E-01 -0.18529868683E-02 -0.32564334639E-01  0.61079610057E-01  0.51100000000E-03 0. -1.
</event>
<event>
 8    1  0.1099478E+005  0.1043930E+01  0.7957747E-01            NaN
         13   -1    0    0    0    0  0.00000000000E+00  0.00000000000E+00  0.74505805969E-08  0.10566000000E+00  0.10566000000E+00 0.  1.
     999900   -1    0    0    0    0 -0.00000000000E+00 -0.00000000000E+00 -0.74505805969E-08  0.93827000000E+00  0.93827000000E+00 0.  1.
     999902    2    1    2    0    0 -0.86085925609E-02  0.62397235538E-02 -0.25231254737E-01  0.10165501126E+01  0.10161813191E+01 0.  0.
     999903    2    3    3    0    0 -0.10457829485E+00  0.70014351676E-01  0.13795636055E-01  0.12818054701E+00  0.20032570035E-01 0.  0.
         14    1    1    2    0    0  0.86085925609E-02 -0.62397235538E-02  0.25231254737E-01  0.27379887354E-01  0.00000000000E+00 0.  1.
     999901    1    3    3    0    0  0.95969702289E-01 -0.63774628122E-01 -0.39026890793E-01  0.88836956564E+00  0.88000000000E+00 0.  1.
        -11    1    4    4    0    0 -0.43144337974E-01  0.30772301123E-01  0.15645318092E-01  0.55257628567E-01  0.51100000000E-03 0.  1.
         11    1    4    4    0    0 -0.61433956877E-01  0.39242050553E-01 -0.18496820363E-02  0.72922918440E-01  0.51100000000E-03 0. -1.
</event>
<event>
 8    1  0.1099478E+005  0.1043930E+01  0.7957747E-01            NaN
         13   -1    0    0    0    0  0.00000000000E+00  0.00000000000E+00  0.74505805969E-08  0.10566000000E+00  0.10566000000E+00 0. -1.
     999900   -1    0    0    0    0 -0.00000000000E+00 -0.00000000000E+00 -0.74505805969E-08  0.93827000000E+00  0.93827000000E+00 0. -1.
     999902    2    1    2    0    0  0.10242184181E-01 -0.25283968764E-01 -0.37381917147E-02  0.10163953765E+01  0.10160223452E+01 0.  0.
     999903    2    3    3    0    0 -0.78968820248E-01  0.19928804173E-01 -0.94214128170E-01  0.12612087209E+00  0.19923368762E-01 0.  0.
         14    1    1    2    0    0 -0.10242184181E-01  0.25283968764E-01  0.37381917147E-02  0.27534623487E-01  0.00000000000E+00 0. -1.
     999901    1    3    3    0    0  0.89211004430E-01 -0.45212772937E-01  0.90475936456E-01  0.89027450442E+00  0.88000000000E+00 0.  1.
        -11    1    4    4    0    0 -0.16145562507E-01  0.90868419490E-02 -0.11983624828E-01  0.22070755998E-01  0.51100000000E-03 0.  1.
         11    1    4    4    0    0 -0.62823257741E-01  0.10841962224E-01 -0.82230503342E-01  0.10405011609E+00  0.51100000000E-03 0. -1.
</event>
<event>
 8    1  0.1099478E+005  0.1043930E+01  0.7957747E-01            NaN
         13   -1    0    0    0    0  0.00000000000E+00  0.00000000000E+00  0.74505805969E-08  0.10566000000E+00  0.10566000000E+00 0. -1.
     999900   -1    0    0    0    0 -0.00000000000E+00 -0.00000000000E+00 -0.74505805969E-08  0.93827000000E+00  0.93827000000E+00 0. -1.
     999902    2    1    2    0    0 -0.14615373884E-01 -0.14351988667E-01 -0.12403402805E-01  0.10199835361E+01  0.10197023981E+01 0.  0.
     999903    2    3    3    0    0  0.65050929986E-01  0.98683245209E-01  0.42268298195E-01  0.12750794597E+00  0.22397787333E-01 0.  0.
         14    1    1    2    0    0  0.14615373884E-01  0.14351988667E-01  0.12403402805E-01  0.23946463906E-01  0.00000000000E+00 0. -1.
     999901    1    3    3    0    0 -0.79666303870E-01 -0.11303523388E+00 -0.54671701000E-01  0.89247559012E+00  0.88000000000E+00 0. -1.
        -11    1    4    4    0    0  0.21420172935E-01  0.20913896650E-01  0.18593915648E-01  0.35244995415E-01  0.51100000000E-03 0.  1.
         11    1    4    4    0    0  0.43630757051E-01  0.77769348558E-01  0.23674382547E-01  0.92262950560E-01  0.51100000000E-03 0. -1.
</event>
<event>
 8    1  0.1099478E+005  0.1043930E+01  0.7957747E-01            NaN
         13   -1    0    0    0    0  0.00000000000E+00  0.00000000000E+00  0.74505805969E-08  0.10566000000E+00  0.10566000000E+00 0.  1.
     999900   -1    0    0    0    0 -0.00000000000E+00 -0.00000000000E+00 -0.74505805969E-08  0.93827000000E+00  0.93827000000E+00 0.  1.
     999902    2    1    2    0    0 -0.89756642809E-02  0.17594113116E-02  0.21782507433E-01  0.10203051041E+01  0.10200315533E+01 0.  0.
     999903    2    3    3    0    0 -0.77195149848E-01  0.58149181760E-01 -0.83887006362E-01  0.12957520642E+00  0.20304821688E-01 0.  0.
         14    1    1    2    0    0  0.89756642809E-02 -0.17594113116E-02 -0.21782507433E-01  0.23624895926E-01  0.00000000000E+00 0. -1.
     999901    1    3    3    0    0  0.68219485567E-01 -0.56389770449E-01  0.10566951380E+00  0.89072989765E+00  0.88000000000E+00 0. -1.
        -11    1    4    4    0    0 -0.57936671354E-01  0.35073882485E-01 -0.49422766989E-01  0.83843342837E-01  0.51100000000E-03 0.  1.
         11    1    4    4    0    0 -0.19258478494E-01  0.23075299275E-01 -0.34464239373E-01  0.45731863587E-01  0.51100000000E-03 0. -1.
</event>
<event>
 8    1  0.1099478E+005  0.1043930E+01  0.7957747E-01            NaN
         13   -1    0    0    0    0  0.00000000000E+00  0.00000000000E+00  0.74505805969E-08  0.10566000000E+00  0.10566000000E+00 0.  1.
     999900   -1    0    0    0    0 -0.00000000000E+00 -0.00000000000E+00 -0.74505805969E-08  0.93827000000E+00  0.93827000000E+00 0. -1.
     999902    2    1    2    0    0 -0.94215982042E-02  0.12120370721E-02 -0.21535615232E-01  0.10203924073E+01  0.10201208980E+01 0.  0.
     999903    2    3    3    0    0  0.11246313354E+00 -0.10792445723E-01 -0.63231571856E-01  0.13093271275E+00  0.19511798904E-01 0.  0.
         14    1    1    2    0    0  0.94215982042E-02 -0.12120370721E-02  0.21535615232E-01  0.23537592698E-01  0.00000000000E+00 0.  1.
     999901    1    3    3    0    0 -0.12188473175E+00  0.12004482795E-01  0.41695956624E-01  0.88945969456E+00  0.88000000000E+00 0.  1.
        -11    1    4    4    0    0  0.73978561399E-01 -0.13002342060E-01 -0.33488620305E-01  0.82241335451E-01  0.51100000000E-03 0. -1.
         11    1    4    4    0    0  0.38484572145E-01  0.22098963370E-02 -0.29742951551E-01  0.48691377296E-01  0.51100000000E-03 0.  1.
</event>
<event>
 8    1  0.1099478E+005  0.1043930E+01  0.7957747E-01            NaN
         13   -1    0    0    0    0  0.00000000000E+00  0.00000000000E+00  0.74505805969E-08  0.10566000000E+00  0.10566000000E+00 0.  1.
     999900   -1    0    0    0    0 -0.00000000000E+00 -0.00000000000E+00 -0.74505805969E-08  0.93827000000E+00  0.93827000000E+00 0. -1.
     999902    2    1    2    0    0  0.18110816632E-01 -0.13693272607E-01  0.24974702759E-02  0.10210882673E+01  0.10208327507E+01 0.  0.
     999903    2    3    3    0    0  0.10247945906E-01  0.33668021940E-01 -0.12441127751E+00  0.13068906067E+00  0.19050157724E-01 0.  0.
         14    1    1    2    0    0 -0.18110816632E-01  0.13693272607E-01 -0.24974702759E-02  0.22841732674E-01  0.00000000000E+00 0. -1.
     999901    1    3    3    0    0  0.78628707264E-02 -0.47361294547E-01  0.12690874779E+00  0.89039920666E+00  0.88000000000E+00 0.  1.
        -11    1    4    4    0    0  0.10410130950E-01  0.18341711584E-01 -0.43601408013E-01  0.48436898249E-01  0.51100000000E-03 0. -1.
         11    1    4    4    0    0 -0.16218504461E-03  0.15326310356E-01 -0.80809869497E-01  0.82252162416E-01  0.51100000000E-03 0.  1.
</event>
<event>
 8    1  0.1099478E+005  0.1043930E+01  0.7957747E-01            NaN
         13   -1    0    0    0    0  0.00000000000E+00  0.00000000000E+00  0.74505805969E-08  0.10566000000E+00  0.10566000000E+00 0. -1.
     999900   -1    0    0    0    0 -0.00000000000E+00 -0.00000000000E+00 -0.74505805969E-08  0.93827000000E+00  0.93827000000E+00 0. -1.
     999902    2    1    2    0    0 -0.55534640879E-02  0.18535658381E-02 -0.21415292177E-01  0.10217288422E+01  0.10214876091E+01 0.  0.
     999903    2    3    3    0    0 -0.92415773104E-01 -0.18127521113E-01  0.87927766152E-01  0.13049362689E+00  0.20688461955E-01 0.  0.
         14    1    1    2    0    0  0.55534640879E-02 -0.18535658381E-02  0.21415292177E-01  0.22201157824E-01  0.00000000000E+00 0. -1.
     999901    1    3    3    0    0  0.86862309016E-01  0.19981086951E-01 -0.10934305833E+00  0.89123521529E+00  0.88000000000E+00 0. -1.
        -11    1    4    4    0    0 -0.80399481068E-01 -0.13284827108E-01  0.83792622768E-01  0.11688467795E+00  0.51100000000E-03 0.  1.
         11    1    4    4    0    0 -0.12016292036E-01 -0.48426940047E-02  0.41351433840E-02  0.13608948943E-01  0.51100000000E-03 0. -1.
</event>
<event>
 8    1  0.1099478E+005  0.1043930E+01  0.7957747E-01            NaN
         13   -1    0    0    0    0  0.00000000000E+00  0.00000000000E+00  0.74505805969E-08  0.10566000000E+00  0.10566000000E+00 0. -1.
     999900   -1    0    0    0    0 -0.00000000000E+00 -0.00000000000E+00 -0.74505805969E-08  0.93827000000E+00  0.93827000000E+00 0. -1.
     999902    2    1    2    0    0 -0.10498715814E-01 -0.14224899015E-01  0.20006588465E-01  0.10172310418E+01  0.10168806017E+01 0.  0.
     999903    2    3    3    0    0  0.95970252240E-01  0.75618462091E-02  0.82506227751E-01  0.12834606145E+00  0.19949010964E-01 0.  0.
         14    1    1    2    0    0  0.10498715814E-01  0.14224899015E-01 -0.20006588465E-01  0.26698958177E-01  0.00000000000E+00 0.  1.
     999901    1    3    3    0    0 -0.10646896805E+00 -0.21786745225E-01 -0.62499639286E-01  0.88888498038E+00  0.88000000000E+00 0. -1.
        -11    1    4    4    0    0  0.86091395811E-01  0.11987901606E-01  0.77302079173E-01  0.11632416251E+00  0.51100000000E-03 0. -1.
         11    1    4    4    0    0  0.98788564285E-02 -0.44260553966E-02  0.52041485779E-02  0.12021898940E-01  0.51100000000E-03 0.  1.
</event>
<event>
 8    1  0.1099478E+005  0.1043930E+01  0.7957747E-01            NaN
         13   -1    0    0    0    0  0.00000000000E+00  0.00000000000E+00  0.74505805969E-08  0.10566000000E+00  0.10566000000E+00 0. -1.
     999900   -1    0    0    0    0 -0.00000000000E+00 -0.00000000000E+00 -0.74505805969E-08  0.93827000000E+00  0.93827000000E+00 0.  1.
     999902    2    1    2    0    0 -0.15840437918E-02  0.32784847209E-02  0.22431810175E-01  0.10212046009E+01  0.10209517095E+01 0.  0.
     999903    2    3    3    0    0 -0.85893386006E-01 -0.84131978892E-01  0.51558447679E-01  0.13238683816E+00  0.20301176320E-01 0.  0.
         14    1    1    2    0    0  0.15840437918E-02 -0.32784847209E-02 -0.22431810175E-01  0.22725399106E-01  0.00000000000E+00 0.  1.
     999901    1    3    3    0    0  0.84309342214E-01  0.87410463613E-01 -0.29126637504E-01  0.88881776273E+00  0.88000000000E+00 0. -1.
        -11    1    4    4    0    0 -0.30697422818E-01 -0.29218660879E-01  0.28891098084E-01  0.51293455535E-01  0.51100000000E-03 0.  1.
         11    1    4    4    0    0 -0.55195963188E-01 -0.54913318013E-01  0.22667349595E-01  0.81093382629E-01  0.51100000000E-03 0. -1.
</event>
<event>
 8    1  0.1099478E+005  0.1043930E+01  0.7957747E-01            NaN
         13   -1    0    0    0    0  0.00000000000E+00  0.00000000000E+00  0.74505805969E-08  0.10566000000E+00  0.10566000000E+00 0. -1.
     999900   -1    0    0    0    0 -0.00000000000E+00 -0.00000000000E+00 -0.74505805969E-08  0.93827000000E+00  0.93827000000E+00 0. -1.
     999902    2    1    2    0    0 -0.31978309651E-02 -0.24548191742E-01  0.19120032797E-02  0.10191006706E+01  0.10187981553E+01 0.  0.
     999903    2    3    3    0    0  0.45138536887E-01 -0.12001736553E+00  0.26885641517E-01  0.13226672325E+00  0.18165704472E-01 0.  0.
         14    1    1    2    0    0  0.31978309651E-02  0.24548191742E-01 -0.19120032797E-02  0.24829329375E-01  0.00000000000E+00 0. -1.
     999901    1    3    3    0    0 -0.48336367852E-01  0.95469173791E-01 -0.24973638238E-01  0.88683394737E+00  0.88000000000E+00 0. -1.
        -11    1    4    4    0    0  0.40820061208E-01 -0.90813464150E-01  0.16254694689E-01  0.10088527587E+00  0.51100000000E-03 0. -1.
         11    1    4    4    0    0  0.43184756791E-02 -0.29203901383E-01  0.10630946829E-01  0.31381447380E-01  0.51100000000E-03 0.  1.
</event>
<event>
 8    1  0.1099478E+005  0.1043930E+01  0.7957747E-01            NaN
         13   -1    0    0    0    0  0.00000000000E+00  0.00000000000E+00  0.74505805969E-08  0.10566000000E+00  0.10566000000E+00 0.  1.
     999900   -1    0    0    0    0 -0.00000000000E+00 -0.00000000000E+00 -0.74505805969E-08  0.93827000000E+00  0.93827000000E+00 0.  1.
     999902    2    1    2    0    0 -0.22821792557E-01 -0.52318886893E-02 -0.26580588175E-02  0.10203657866E+01  0.10200936557E+01 0.  0.
     999903    2    3    3    0    0 -0.12611610449E+00 -0.18164540866E-01  0.34342149668E-01  0.13345768328E+00  0.19908481240E-01 0.  0.
         14    1    1    2    0    0  0.22821792557E-01  0.52318886893E-02  0.26580588175E-02  0.23564213363E-01  0.00000000000E+00 0.  1.
     999901    1    3    3    0    0  0.10329431194E+00  0.12932652177E-01 -0.37000208486E-01  0.88690810336E+00  0.88000000000E+00 0.  1.
        -11    1    4    4    0    0 -0.11118749091E+00 -0.12423720981E-01  0.35594276292E-01  0.11740622046E+00  0.51100000000E-03 0.  1.
         11    1    4    4    0    0 -0.14928613587E-01 -0.57408198849E-02 -0.12521266236E-02  0.16051462820E-01  0.51100000000E-03 0. -1.
</event>
<event>
 8    1  0.1099478E+005  0.1043930E+01  0.7957747E-01            NaN
         13   -1    0    0    0    0  0.00000000000E+00  0.00000000000E+00  0.74505805969E-08  0.10566000000E+00  0.10566000000E+00 0. -1.
     999900   -1    0    0    0    0 -0.00000000000E+00 -0.00000000000E+00 -0.74505805969E-08  0.93827000000E+00  0.93827000000E+00 0.  1.
     999902    2    1    2    0    0  0.78768827415E-02  0.21419817367E-01  0.68721141951E-02  0.10200955751E+01  0.10198170927E+01 0.  0.
     999903    2    3    3    0    0  0.54674963729E-01 -0.10591905139E+00 -0.43539070798E-01  0.12827354381E+00  0.18715080837E-01 0.  0.
         14    1    1    2    0    0 -0.78768827415E-02 -0.21419817367E-01 -0.68721141951E-02  0.23834424920E-01  0.00000000000E+00 0. -1.
     999901    1    3    3    0    0 -0.46798080988E-01  0.12733886876E+00  0.50411184993E-01  0.89182203127E+00  0.88000000000E+00 0.  1.
        -11    1    4    4    0    0  0.15417805926E-01 -0.41803431658E-01 -0.23926267095E-01  0.50576308842E-01  0.51100000000E-03 0.  1.
         11    1    4    4    0    0  0.39257157803E-01 -0.64115619730E-01 -0.19612803703E-01  0.77697234972E-01  0.51100000000E-03 0. -1.
</event>
<event>
 8    1  0.1099478E+005  0.1043930E+01  0.7957747E-01            NaN
         13   -1    0    0    0    0  0.00000000000E+00  0.00000000000E+00  0.74505805969E-08  0.10566000000E+00  0.10566000000E+00 0. -1.
     999900   -1    0    0    0    0 -0.00000000000E+00 -0.00000000000E+00 -0.74505805969E-08  0.93827000000E+00  0.93827000000E+00 0. -1.
     999902    2    1    2    0    0 -0.59389622923E-02 -0.61846636513E-02  0.21171266185E-01  0.10210882871E+01  0.10208327709E+01 0.  0.
     999903    2    3    3    0    0 -0.76080053630E-01  0.92288623114E-01 -0.46548759699E-01  0.13024443835E+00  0.22168946191E-01 0.  0.
         14    1    1    2    0    0  0.59389622923E-02  0.61846636513E-02 -0.21171266185E-01  0.22841712927E-01  0.00000000000E+00 0.  1.
     999901    1    3    3    0    0  0.70141091337E-01 -0.98473286765E-01  0.67720025884E-01  0.89084384872E+00  0.88000000000E+00 0.  1.
        -11    1    4    4    0    0 -0.56183167969E-01  0.53453802717E-01 -0.35132872042E-01  0.85137754298E-01  0.51100000000E-03 0.  1.
         11    1    4    4    0    0 -0.19896885661E-01  0.38834820396E-01 -0.11415887657E-01  0.45106684053E-01  0.51100000000E-03 0. -1.
</event>
<event>
 8    1  0.1099478E+005  0.1043930E+01  0.7957747E-01            NaN
         13   -1    0    0    0    0  0.00000000000E+00  0.00000000000E+00  0.74505805969E-08  0.10566000000E+00  0.10566000000E+00 0.  1.
     999900   -1    0    0    0    0 -0.00000000000E+00 -0.00000000000E+00 -0.74505805969E-08  0.93827000000E+00  0.93827000000E+00 0. -1.
     999902    2    1    2    0    0 -0.14363019655E-02  0.26584052191E-01 -0.74815845251E-02  0.10162759062E+01  0.10158995859E+01 0.  0.
     999903    2    3    3    0    0  0.67252998124E-01 -0.99087171391E-01 -0.27605534799E-01  0.12447074268E+00  0.19739983336E-01 0.  0.
         14    1    1    2    0    0  0.14363019655E-02 -0.26584052191E-01  0.74815845251E-02  0.27654093752E-01  0.00000000000E+00 0.  1.
     999901    1    3    3    0    0 -0.68689300089E-01  0.12567122358E+00  0.20123950274E-01  0.89180516356E+00  0.88000000000E+00 0.  1.
        -11    1    4    4    0    0  0.89136047855E-02 -0.50067634264E-02 -0.53650257914E-02  0.11557017480E-01  0.51100000000E-03 0. -1.
         11    1    4    4    0    0  0.58339393338E-01 -0.94080407964E-01 -0.22240509007E-01  0.11291372521E+00  0.51100000000E-03 0.  1.
</event>
<event>
 8    1  0.1099478E+005  0.1043930E+01  0.7957747E-01            NaN
         13   -1    0    0    0    0  0.00000000000E+00  0.00000000000E+00  0.74505805969E-08  0.10566000000E+00  0.10566000000E+00 0.  1.
     999900   -1    0    0    0    0 -0.00000000000E+00 -0.00000000000E+00 -0.74505805969E-08  0.93827000000E+00  0.93827000000E+00 0.  1.
     999902    2    1    2    0    0  0.17749619012E-01 -0.10848343103E-01 -0.15234001497E-01  0.10181460840E+01  0.10178195508E+01 0.  0.
     999903    2    3    3    0    0 -0.27294690096E-01 -0.62097393828E-01 -0.10980733570E+00  0.13045268505E+00  0.18951665742E-01 0.  0.
         14    1    1    2    0    0 -0.17749619012E-01  0.10848343103E-01  0.15234001497E-01  0.25783916009E-01  0.00000000000E+00 0. -1.
     999901    1    3    3    0    0  0.45044309108E-01  0.51249050725E-01  0.94573334207E-01  0.88769339894E+00  0.88000000000E+00 0. -1.
        -11    1    4    4    0    0 -0.11538552626E-01 -0.19022945524E-01 -0.52693188052E-01  0.57200033577E-01  0.51100000000E-03 0.  1.
         11    1    4    4    0    0 -0.15756137470E-01 -0.43074448304E-01 -0.57114147652E-01  0.73252651472E-01  0.51100000000E-03 0. -1.
</event>
<event>
 8    1  0.1099478E+005  0.1043930E+01  0.7957747E-01            NaN
         13   -1    0    0    0    0  0.00000000000E+00  0.00000000000E+00  0.74505805969E-08  0.10566000000E+00  0.10566000000E+00 0. -1.
     999900   -1    0    0    0    0 -0.00000000000E+00 -0.00000000000E+00 -0.74505805969E-08  0.93827000000E+00  0.93827000000E+00 0.  1.
     999902    2    1    2    0    0 -0.28179128603E-02 -0.24030501835E-01  0.17807557263E-02  0.10196693994E+01  0.10193807470E+01 0.  0.
     999903    2    3    3    0    0 -0.14270657270E-01  0.30975652726E-01 -0.12295538856E+00  0.12909882493E+00  0.19629984779E-01 0.  0.
         14    1    1    2    0    0  0.28179128603E-02  0.24030501835E-01 -0.17807557263E-02  0.24260600617E-01  0.00000000000E+00 0. -1.
     999901    1    3    3    0    0  0.11452744409E-01 -0.55006154562E-01  0.12473614428E+00  0.89057057445E+00  0.88000000000E+00 0. -1.
        -11    1    4    4    0    0 -0.18015128602E-01  0.21833081770E-01 -0.75739253357E-01  0.80857429703E-01  0.51100000000E-03 0. -1.
         11    1    4    4    0    0  0.37444713319E-02  0.91425709561E-02 -0.47216135198E-01  0.48241395226E-01  0.51100000000E-03 0.  1.
</event>
<event>
 8    1  0.1099478E+005  0.1043930E+01  0.7957747E-01            NaN
         13   -1    0    0    0    0  0.00000000000E+00  0.00000000000E+00  0.74505805969E-08  0.10566000000E+00  0.10566000000E+00 0. -1.
     999900   -1    0    0    0    0 -0.00000000000E+00 -0.00000000000E+00 -0.74505805969E-08  0.93827000000E+00  0.93827000000E+00 0.  1.
     999902    2    1    2    0    0  0.11311815414E-02  0.14971141829E-02 -0.22407796779E-01  0.10214437758E+01  0.10211962382E+01 0.  0.
     999903    2    3    3    0    0  0.27628519654E-01 -0.90436323805E-01  0.86300913334E-01  0.12960777652E+00  0.20205551971E-01 0.  0.
         14    1    1    2    0    0 -0.11311815414E-02 -0.14971141829E-02  0.22407796779E-01  0.22486224206E-01  0.00000000000E+00 0. -1.
     999901    1    3    3    0    0 -0.26497338112E-01  0.91933437988E-01 -0.10870871011E+00  0.89183599927E+00  0.88000000000E+00 0.  1.
        -11    1    4    4    0    0 -0.72230994016E-03 -0.23992301721E-01  0.16332273764E-01  0.29037158278E-01  0.51100000000E-03 0. -1.
         11    1    4    4    0    0  0.28350829594E-01 -0.66444022084E-01  0.69968639569E-01  0.10057061824E+00  0.51100000000E-03 0.  1.
</event>
<event>
 8    1  0.1099478E+005  0.1043930E+01  0.7957747E-01            NaN
         13   -1    0    0    0    0  0.00000000000E+00  0.00000000000E+00  0.74505805969E-08  0.10566000000E+00  0.10566000000E+00 0. -1.
     999900   -1    0    0    0    0 -0.00000000000E+00 -0.00000000000E+00 -0.74505805969E-08  0.93827000000E+00  0.93827000000E+00 0. -1.
     999902    2    1    2    0    0 -0.30698592569E-02 -0.24917928569E-01  0.36806825889E-02  0.10185553153E+01  0.10182391937E+01 0.  0.
     999903    2    3    3    0    0  0.10719636410E+00 -0.47132815647E-01  0.52950246402E-01  0.13002865213E+00  0.19777739840E-01 0.  0.
         14    1    1    2    0    0  0.30698592569E-02  0.24917928569E-01 -0.36806825889E-02  0.25374684714E-01  0.00000000000E+00 0. -1.
     999901    1    3    3    0    0 -0.11026622336E+00  0.22214887079E-01 -0.49269563814E-01  0.88852666316E+00  0.88000000000E+00 0. -1.
        -11    1    4    4    0    0  0.83309530320E-02 -0.85479805584E-02  0.98400864363E-02  0.15477763796E-01  0.51100000000E-03 0.  1.
         11    1    4    4    0    0  0.98865411069E-01 -0.38584835089E-01  0.43110159966E-01  0.11455088833E+00  0.51100000000E-03 0. -1.
</event>
<event>
 8    1  0.1099478E+005  0.1043930E+01  0.7957747E-01            NaN
         13   -1    0    0    0    0  0.00000000000E+00  0.00000000000E+00  0.74505805969E-08  0.10566000000E+00  0.10566000000E+00 0.  1.
     999900   -1    0    0    0    0 -0.00000000000E+00 -0.00000000000E+00 -0.74505805969E-08  0.93827000000E+00  0.93827000000E+00 0. -1.
     999902    2    1    2    0    0 -0.15645884810E-01 -0.97872526869E-02  0.16173404357E-01  0.10193909895E+01  0.10190955924E+01 0.  0.
     999903    2    3    3    0    0  0.51596076716E-01  0.50486374148E-01 -0.10240000776E+00  0.12685861166E+00  0.19907703390E-01 0.  0.
         14    1    1    2    0    0  0.15645884810E-01  0.97872526869E-02 -0.16173404357E-01  0.24539010476E-01  0.00000000000E+00 0. -1.
     999901    1    3    3    0    0 -0.67241961525E-01 -0.60273626835E-01  0.11857341212E+00  0.89253237787E+00  0.88000000000E+00 0.  1.
        -11    1    4    4    0    0  0.46718499638E-01  0.43635614689E-01 -0.76899952316E-01  0.10000274429E+00  0.51100000000E-03 0. -1.
         11    1    4    4    0    0  0.48775770773E-02  0.68507594586E-02 -0.25500055448E-01  0.26855867369E-01  0.51100000000E-03 0.  1.
</event>
<event>
 8    1  0.1099478E+005  0.1043930E+01  0.7957747E-01            NaN
         13   -1    0    0    0    0  0.00000000000E+00  0.00000000000E+00  0.74505805969E-08  0.10566000000E+00  0.10566000000E+00 0.  1.
     999900   -1    0    0    0    0 -0.00000000000E+00 -0.00000000000E+00 -0.74505805969E-08  0.93827000000E+00  0.93827000000E+00 0. -1.
     999902    2    1    2    0    0 -0.15492214920E-02  0.18434039336E-01 -0.14336702025E-01  0.10205258354E+01  0.10202574312E+01 0.  0.
     999903    2    3    3    0    0  0.69743630083E-01 -0.97469334985E-01  0.41260571117E-01  0.12833341245E+00  0.20064516535E-01 0.  0.
         14    1    1    2    0    0  0.15492214920E-02 -0.18434039336E-01  0.14336702025E-01  0.23404164553E-01  0.00000000000E+00 0.  1.
     999901    1    3    3    0    0 -0.71292851575E-01  0.11590337432E+00 -0.55597273142E-01  0.89219242299E+00  0.88000000000E+00 0. -1.
        -11    1    4    4    0    0  0.36835728377E-01 -0.66315875668E-01  0.30446041594E-01  0.81742821216E-01  0.51100000000E-03 0. -1.
         11    1    4    4    0    0  0.32907901706E-01 -0.31153459317E-01  0.10814529522E-01  0.46590591238E-01  0.51100000000E-03 0.  1.
</event>
<event>
 8    1  0.1099478E+005  0.1043930E+01  0.7957747E-01            NaN
         13   -1    0    0    0    0  0.00000000000E+00  0.00000000000E+00  0.74505805969E-08  0.10566000000E+00  0.10566000000E+00 0.  1.
     999900   -1    0    0    0    0 -0.00000000000E+00 -0.00000000000E+00 -0.74505805969E-08  0.93827000000E+00  0.93827000000E+00 0.  1.
     999902    2    1    2    0    0 -0.16814144160E-01  0.75856789369E-03  0.17167469452E-01  0.10198881016E+01  0.10196046915E+01 0.  0.
     999903    2    3    3    0    0  0.45314773535E-01 -0.11938028257E+00  0.74884837626E-02  0.12950221420E+00  0.20240195764E-01 0.  0.
         14    1    1    2    0    0  0.16814144160E-01 -0.75856789369E-03 -0.17167469452E-01  0.24041898354E-01  0.00000000000E+00 0. -1.
     999901    1    3    3    0    0 -0.62128917696E-01  0.12013885047E+00  0.96789856896E-02  0.89038588745E+00  0.88000000000E+00 0.  1.
        -11    1    4    4    0    0  0.39762898786E-01 -0.79700801686E-01  0.80055854268E-02  0.89429617176E-01  0.51100000000E-03 0. -1.
         11    1    4    4    0    0  0.55518747496E-02 -0.39679480888E-01 -0.51710166427E-03  0.40072597020E-01  0.51100000000E-03 0.  1.
</event>
<event>
 8    1  0.1099478E+005  0.1043930E+01  0.7957747E-01            NaN
         13   -1    0    0    0    0  0.00000000000E+00  0.00000000000E+00  0.74505805969E-08  0.10566000000E+00  0.10566000000E+00 0. -1.
     999900   -1    0    0    0    0 -0.00000000000E+00 -0.00000000000E+00 -0.74505805969E-08  0.93827000000E+00  0.93827000000E+00 0. -1.
     999902    2    1    2    0    0  0.16395158317E-01 -0.14109326366E-01  0.77697270000E-02  0.10209464632E+01  0.10206877278E+01 0.  0.
     999903    2    3    3    0    0 -0.57573740228E-01  0.11629209574E-01  0.11576466149E+00  0.13089209628E+00  0.16772296738E-01 0.  0.
         14    1    1    2    0    0 -0.16395158317E-01  0.14109326366E-01 -0.77697270000E-02  0.22983536812E-01  0.00000000000E+00 0.  1.
     999901    1    3    3    0    0  0.73968898545E-01 -0.25738535940E-01 -0.10799493449E+00  0.89005436691E+00  0.88000000000E+00 0. -1.
        -11    1    4    4    0    0 -0.17598852218E-01  0.42236741849E-02  0.20719891906E-01  0.27516069207E-01  0.51100000000E-03 0.  1.
         11    1    4    4    0    0 -0.39974888010E-01  0.74055353891E-02  0.95044769586E-01  0.10337602707E+00  0.51100000000E-03 0. -1.
</event>
<event>
 8    1  0.1099478E+005  0.1043930E+01  0.7957747E-01            NaN
         13   -1    0    0    0    0  0.00000000000E+00  0.00000000000E+00  0.74505805969E-08  0.10566000000E+00  0.10566000000E+00 0.  1.
     999900   -1    0    0    0    0 -0.00000000000E+00 -0.00000000000E+00 -0.74505805969E-08  0.93827000000E+00  0.93827000000E+00 0.  1.
     999902    2    1    2    0    0  0.37347881381E-02  0.23980947008E-01 -0.38920614449E-02  0.10193498738E+01  0.10190534739E+01 0.  0.
     999903    2    3    3    0    0 -0.39702314462E-01 -0.11220458291E+00 -0.41800273579E-01  0.12701007698E+00  0.14770056969E-01 0.  0.
         14    1    1    2    0    0 -0.37347881381E-02 -0.23980947008E-01  0.38920614449E-02  0.24580126202E-01  0.00000000000E+00 0. -1.
     999901    1    3    3    0    0  0.43437102600E-01  0.13618552992E+00  0.37908212134E-01  0.89233979682E+00  0.88000000000E+00 0. -1.
        -11    1    4    4    0    0 -0.17368719593E-01 -0.61152614118E-01 -0.28775041527E-01  0.69782367182E-01  0.51100000000E-03 0.  1.
         11    1    4    4    0    0 -0.22333594869E-01 -0.51051968793E-01 -0.13025232052E-01  0.57227709795E-01  0.51100000000E-03 0. -1.
</event>
<event>
 8    1  0.1099478E+005  0.1043930E+01  0.7957747E-01            NaN
         13   -1    0    0    0    0  0.00000000000E+00  0.00000000000E+00  0.74505805969E-08  0.10566000000E+00  0.10566000000E+00 0. -1.
     999900   -1    0    0    0    0 -0.00000000000E+00 -0.00000000000E+00 -0.74505805969E-08  0.93827000000E+00  0.93827000000E+00 0.  1.
     999902    2    1    2    0    0 -0.15299062559E-01 -0.15806353592E-01 -0.24383767298E-01  0.10110899294E+01  0.10105564680E+01 0.  0.
     999903    2    3    3    0    0  0.82587882638E-01 -0.20842347302E-01 -0.86727901087E-01  0.12345599231E+00  0.21552062763E-01 0.  0.
         14    1    1    2    0    0  0.15299062559E-01  0.15806353592E-01  0.24383767298E-01  0.32840070595E-01  0.00000000000E+00 0. -1.
     999901    1    3    3    0    0 -0.97886945197E-01  0.50359937106E-02  0.62344133790E-01  0.88763393710E+00  0.88000000000E+00 0. -1.
        -11    1    4    4    0    0  0.59391409251E-01 -0.20478489374E-01 -0.51319264011E-01  0.81121119319E-01  0.51100000000E-03 0.  1.
         11    1    4    4    0    0  0.23196473387E-01 -0.36385792815E-03 -0.35408637076E-01  0.42334872987E-01  0.51100000000E-03 0. -1.
</event>
<event>
 8    1  0.1099478E+005  0.1043930E+01  0.7957747E-01            NaN
         13   -1    0    0    0    0  0.00000000000E+00  0.00000000000E+00  0.74505805969E-08  0.10566000000E+00  0.10566000000E+00 0. -1.
     999900   -1    0    0    0    0 -0.00000000000E+00 -0.00000000000E+00 -0.74505805969E-08  0.93827000000E+00  0.93827000000E+00 0. -1.
     999902    2    1    2    0    0 -0.21851323883E-01  0.72899169862E-02  0.41859661012E-02  0.10205174914E+01  0.10202488935E+01 0.  0.
     999903    2    3    3    0    0 -0.10753073085E+00  0.25906930533E-01 -0.70699939341E-01  0.13299540562E+00  0.21337042106E-01 0.  0.
         14    1    1    2    0    0  0.21851323883E-01 -0.72899169862E-02 -0.41859661012E-02  0.23412508565E-01  0.00000000000E+00 0. -1.
     999901    1    3    3    0    0  0.85679406972E-01 -0.18617013547E-01  0.74885905443E-01  0.88752208581E+00  0.88000000000E+00 0. -1.
        -11    1    4    4    0    0 -0.23900853997E-01  0.65014051847E-02 -0.27057120449E-01  0.36686073368E-01  0.51100000000E-03 0.  1.
         11    1    4    4    0    0 -0.83629876858E-01  0.19405525348E-01 -0.43642818892E-01  0.96309332254E-01  0.51100000000E-03 0. -1.
</event>
<event>
 8    1  0.1099478E+005  0.1043930E+01  0.7957747E-01            NaN
         13   -1    0    0    0    0  0.00000000000E+00  0.00000000000E+00  0.74505805969E-08  0.10566000000E+00  0.10566000000E+00 0.  1.
     999900   -1    0    0    0    0 -0.00000000000E+00 -0.00000000000E+00 -0.74505805969E-08  0.93827000000E+00  0.93827000000E+00 0.  1.
     999902    2    1    2    0    0 -0.13293620851E-01 -0.18093891999E-01 -0.11344858093E-01  0.10187741838E+01  0.10184635597E+01 0.  0.
     999903    2    3    3    0    0  0.68458616019E-02 -0.12798001304E+00 -0.23086046667E-01  0.13163360089E+00  0.19201296181E-01 0.  0.
         14    1    1    2    0    0  0.13293620851E-01  0.18093891999E-01  0.11344858093E-01  0.25155816190E-01  0.00000000000E+00 0.  1.
     999901    1    3    3    0    0 -0.20139482453E-01  0.10988612104E+00  0.11741188574E-01  0.88714058292E+00  0.88000000000E+00 0.  1.
        -11    1    4    4    0    0 -0.22176464041E-02 -0.77074411465E-01 -0.67364160119E-02  0.77401700756E-01  0.51100000000E-03 0. -1.
         11    1    4    4    0    0  0.90635080060E-02 -0.50905601572E-01 -0.16349630656E-01  0.54231900136E-01  0.51100000000E-03 0.  1.
</event>
<event>
 8    1  0.1099478E+005  0.1043930E+01  0.7957747E-01            NaN
         13   -1    0    0    0    0  0.00000000000E+00  0.00000000000E+00  0.74505805969E-08  0.10566000000E+00  0.10566000000E+00 0. -1.
     999900   -1    0    0    0    0 -0.00000000000E+00 -0.00000000000E+00 -0.74505805969E-08  0.93827000000E+00  0.93827000000E+00 0.  1.
     999902    2    1    2    0    0 -0.13900196575E-01  0.58344448350E-02  0.18065271680E-01  0.10204010763E+01  0.10201297693E+01 0.  0.
     999903    2    3    3    0    0 -0.23225563144E-01 -0.98835745279E-01  0.81813632899E-01  0.13185920065E+00  0.19632802640E-01 0.  0.
         14    1    1    2    0    0  0.13900196575E-01 -0.58344448350E-02 -0.18065271680E-01  0.23528923737E-01  0.00000000000E+00 0.  1.
     999901    1    3    3    0    0  0.93253665693E-02  0.10467019011E+00 -0.63748361219E-01  0.88854187561E+00  0.88000000000E+00 0. -1.
        -11    1    4    4    0    0 -0.23808380222E-01 -0.66604986226E-01  0.50466678358E-01  0.86891943841E-01  0.51100000000E-03 0.  1.
         11    1    4    4    0    0  0.58281707758E-03 -0.32230759053E-01  0.31346954541E-01  0.44967256809E-01  0.51100000000E-03 0. -1.
</event>
<event>
 8    1  0.1099478E+005  0.1043930E+01  0.7957747E-01            NaN
         13   -1    0    0    0    0  0.00000000000E+00  0.00000000000E+00  0.74505805969E-08  0.10566000000E+00  0.10566000000E+00 0.  1.
     999900   -1    0    0    0    0 -0.00000000000E+00 -0.00000000000E+00 -0.74505805969E-08  0.93827000000E+00  0.93827000000E+00 0.  1.
     999902    2    1    2    0    0  0.22738979866E-01  0.36341683448E-02  0.49246597094E-02  0.10203817377E+01  0.10201099793E+01 0.  0.
     999903    2    3    3    0    0  0.65491733520E-02  0.91147971700E-01 -0.90962462743E-01  0.13071038495E+00  0.21452055612E-01 0.  0.
         14    1    1    2    0    0 -0.22738979866E-01 -0.36341683448E-02 -0.49246597094E-02  0.23548262318E-01  0.00000000000E+00 0. -1.
     999901    1    3    3    0    0  0.16189806514E-01 -0.87513803356E-01  0.95887122452E-01  0.88967135273E+00  0.88000000000E+00 0. -1.
        -11    1    4    4    0    0 -0.14921753338E-02  0.17951405811E-01 -0.30517885333E-01  0.35441247213E-01  0.51100000000E-03 0.  1.
         11    1    4    4    0    0  0.80413486857E-02  0.73196565890E-01 -0.60444577409E-01  0.95269137741E-01  0.51100000000E-03 0. -1.
</event>
<event>
 8    1  0.1099478E+005  0.1043930E+01  0.7957747E-01            NaN
         13   -1    0    0    0    0  0.00000000000E+00  0.00000000000E+00  0.74505805969E-08  0.10566000000E+00  0.10566000000E+00 0. -1.
     999900   -1    0    0    0    0 -0.00000000000E+00 -0.00000000000E+00 -0.74505805969E-08  0.93827000000E+00  0.93827000000E+00 0.  1.
     999902    2    1    2    0    0  0.19014417760E-01 -0.12981981556E-01 -0.47357049451E-02  0.10204245362E+01  0.10201537763E+01 0.  0.
     999903    2    3    3    0    0  0.79512247816E-01  0.63418904201E-01  0.80293314366E-01  0.13097132386E+00  0.19034610043E-01 0.  0.
         14    1    1    2    0    0 -0.19014417760E-01  0.12981981556E-01  0.47357049451E-02  0.23505463816E-01  0.00000000000E+00 0. -1.
     999901    1    3    3    0    0 -0.60497830056E-01 -0.76400885757E-01 -0.85029019311E-01  0.88945321232E+00  0.88000000000E+00 0.  1.
        -11    1    4    4    0    0  0.24406397986E-01  0.15495531440E-01  0.33418972501E-01  0.44191318166E-01  0.51100000000E-03 0.  1.
         11    1    4    4    0    0  0.55105849830E-01  0.47923372761E-01  0.46874341865E-01  0.86780005696E-01  0.51100000000E-03 0. -1.
</event>
<event>
 8    1  0.1099478E+005  0.1043930E+01  0.7957747E-01            NaN
         13   -1    0    0    0    0  0.00000000000E+00  0.00000000000E+00  0.74505805969E-08  0.10566000000E+00  0.10566000000E+00 0. -1.
     999900   -1    0    0    0    0 -0.00000000000E+00 -0.00000000000E+00 -0.74505805969E-08  0.93827000000E+00  0.93827000000E+00 0. -1.
     999902    2    1    2    0    0 -0.21743622428E-01  0.15667689480E-02 -0.11301666104E-01  0.10193746027E+01  0.10190788061E+01 0.  0.
     999903    2    3    3    0    0  0.96048248835E-01 -0.72520083885E-01  0.35932663420E-01  0.12718915750E+00  0.20037385386E-01 0.  0.
         14    1    1    2    0    0  0.21743622428E-01 -0.15667689480E-02  0.11301666104E-01  0.24555397328E-01  0.00000000000E+00 0. -1.
     999901    1    3    3    0    0 -0.11779187126E+00  0.74086852833E-01 -0.47234329524E-01  0.89218544518E+00  0.88000000000E+00 0. -1.
        -11    1    4    4    0    0  0.59084188635E-01 -0.52755607058E-01  0.30667891823E-01  0.84940426963E-01  0.51100000000E-03 0.  1.
         11    1    4    4    0    0  0.36964060200E-01 -0.19764476827E-01  0.52647715971E-02  0.42248730533E-01  0.51100000000E-03 0. -1.
</event>
<event>
 8    1  0.1099478E+005  0.1043930E+01  0.7957747E-01            NaN
         13   -1    0    0    0    0  0.00000000000E+00  0.00000000000E+00  0.74505805969E-08  0.10566000000E+00  0.10566000000E+00 0. -1.
     999900   -1    0    0    0    0 -0.00000000000E+00 -0.00000000000E+00 -0.74505805969E-08  0.93827000000E+00  0.93827000000E+00 0.  1.
     999902    2    1    2    0    0  0.21171616660E-01 -0.72404392819E-02  0.51583495779E-02  0.10209676420E+01  0.10207093887E+01 0.  0.
     999903    2    3    3    0    0 -0.61275021001E-01 -0.66438986119E-01 -0.90917697921E-01  0.12993872953E+00  0.21196192163E-01 0.  0.
         14    1    1    2    0    0 -0.21171616660E-01  0.72404392819E-02 -0.51583495779E-02  0.22962357967E-01  0.00000000000E+00 0.  1.
     999901    1    3    3    0    0  0.82446637662E-01  0.59198546837E-01  0.96076047498E-01  0.89102891250E+00  0.88000000000E+00 0.  1.
        -11    1    4    4    0    0 -0.52885033505E-01 -0.46229725066E-01 -0.62154744772E-01  0.93794923462E-01  0.51100000000E-03 0.  1.
         11    1    4    4    0    0 -0.83899874962E-02 -0.20209261052E-01 -0.28762953148E-01  0.36143806070E-01  0.51100000000E-03 0. -1.
</event>
<event>
 8    1  0.1099478E+005  0.1043930E+01  0.7957747E-01            NaN
         13   -1    0    0    0    0  0.00000000000E+00  0.00000000000E+00  0.74505805969E-08  0.10566000000E+00  0.10566000000E+00 0. -1.
     999900   -1    0    0    0    0 -0.00000000000E+00 -0.00000000000E+00 -0.74505805969E-08  0.93827000000E+00  0.93827000000E+00 0.  1.
     999902    2    1    2    0    0 -0.19146337240E-01  0.10911140298E-01  0.39968667552E-02  0.10215333450E+01  0.10212877972E+01 0.  0.
     999903    2    3    3    0    0  0.29554091042E-01 -0.13385180398E-01  0.12598042949E+00  0.13145355502E+00  0.18877530565E-01 0.  0.
         14    1    1    2    0    0  0.19146337240E-01 -0.10911140298E-01 -0.39968667552E-02  0.22396655022E-01  0.00000000000E+00 0.  1.
     999901    1    3    3    0    0 -0.48700428282E-01  0.24296320697E-01 -0.12198356274E+00  0.89007978996E+00  0.88000000000E+00 0.  1.
        -11    1    4    4    0    0  0.16545044182E-02 -0.27368535635E-02  0.45412759693E-01  0.45528096997E-01  0.51100000000E-03 0. -1.
         11    1    4    4    0    0  0.27899586624E-01 -0.10648326835E-01  0.80567669801E-01  0.85925458022E-01  0.51100000000E-03 0.  1.
</event>
<event>
 8    1  0.1099478E+005  0.1043930E+01  0.7957747E-01            NaN
         13   -1    0    0    0    0  0.00000000000E+00  0.00000000000E+00  0.74505805969E-08  0.10566000000E+00  0.10566000000E+00 0.  1.
     999900   -1    0    0    0    0 -0.00000000000E+00 -0.00000000000E+00 -0.74505805969E-08  0.93827000000E+00  0.93827000000E+00 0.  1.
     999902    2    1    2    0    0 -0.21792502665E-01  0.75054117268E-02 -0.64352447831E-02  0.10199997523E+01  0.10197189995E+01 0.  0.
     999903    2    3    3    0    0  0.86998878390E-01 -0.72375346165E-01  0.55000915447E-01  0.12759238916E+00  0.21159430484E-01 0.  0.
         14    1    1    2    0    0  0.21792502665E-01 -0.75054117268E-02  0.64352447831E-02  0.23930247659E-01  0.00000000000E+00 0. -1.
     999901    1    3    3    0    0 -0.10879138105E+00  0.79880757892E-01 -0.61436160230E-01  0.89240736318E+00  0.88000000000E+00 0.  1.
        -11    1    4    4    0    0  0.82864041966E-01 -0.67285743960E-01  0.56603838135E-01  0.12082249958E+00  0.51100000000E-03 0.  1.
         11    1    4    4    0    0  0.41348364236E-02 -0.50896022049E-02 -0.16029226882E-02  0.67698895854E-02  0.51100000000E-03 0. -1.
</event>
<event>
 8    1  0.1099478E+005  0.1043930E+01  0.7957747E-01            NaN
         13   -1    0    0    0    0  0.00000000000E+00  0.00000000000E+00  0.74505805969E-08  0.10566000000E+00  0.10566000000E+00 0. -1.
     999900   -1    0    0    0    0 -0.00000000000E+00 -0.00000000000E+00 -0.74505805969E-08  0.93827000000E+00  0.93827000000E+00 0.  1.
     999902    2    1    2    0    0  0.72213768803E-02 -0.21987749986E-01  0.10539847588E-01  0.10184997460E+01  0.10181822208E+01 0.  0.
     999903    2    3    3    0    0 -0.80102260682E-01 -0.10094229112E+00 -0.28020775446E-02  0.13055985823E+00  0.20791985030E-01 0.  0.
         14    1    1    2    0    0 -0.72213768803E-02  0.21987749986E-01 -0.10539847588E-01  0.25430254043E-01  0.00000000000E+00 0.  1.
     999901    1    3    3    0    0  0.87323637563E-01  0.78954541130E-01  0.13341925132E-01  0.88793988772E+00  0.88000000000E+00 0. -1.
        -11    1    4    4    0    0 -0.42398843943E-01 -0.42197164203E-01  0.63507464732E-02  0.60156925921E-01  0.51100000000E-03 0.  1.
         11    1    4    4    0    0 -0.37703416739E-01 -0.58745126914E-01 -0.91528240178E-02  0.70402932314E-01  0.51100000000E-03 0. -1.
</event>
<event>
 8    1  0.1099478E+005  0.1043930E+01  0.7957747E-01            NaN
         13   -1    0    0    0    0  0.00000000000E+00  0.00000000000E+00  0.74505805969E-08  0.10566000000E+00  0.10566000000E+00 0.  1.
     999900   -1    0    0    0    0 -0.00000000000E+00 -0.00000000000E+00 -0.74505805969E-08  0.93827000000E+00  0.93827000000E+00 0.  1.
     999902    2    1    2    0    0  0.20179979229E-01 -0.31307396666E-02 -0.13798672191E-01  0.10192837742E+01  0.10189857584E+01 0.  0.
     999903    2    3    3    0    0 -0.28610251789E-01 -0.83826515111E-02 -0.12584311222E+00  0.13082329349E+00  0.19733977642E-01 0.  0.
         14    1    1    2    0    0 -0.20179979229E-01  0.31307396666E-02  0.13798672191E-01  0.24646225812E-01  0.00000000000E+00 0.  1.
     999901    1    3    3    0    0  0.48790231017E-01  0.52519118446E-02  0.11204444003E+00  0.88846048070E+00  0.88000000000E+00 0. -1.
        -11    1    4    4    0    0 -0.21455362194E-01  0.35896260716E-02 -0.73764331621E-01  0.76906798936E-01  0.51100000000E-03 0. -1.
         11    1    4    4    0    0 -0.71548895945E-02 -0.11972277583E-01 -0.52078780596E-01  0.53916494554E-01  0.51100000000E-03 0.  1.
</event>
<event>
 8    1  0.1099478E+005  0.1043930E+01  0.7957747E-01            NaN
         13   -1    0    0    0    0  0.00000000000E+00  0.00000000000E+00  0.74505805969E-08  0.10566000000E+00  0.10566000000E+00 0. -1.
     999900   -1    0    0    0    0 -0.00000000000E+00 -0.00000000000E+00 -0.74505805969E-08  0.93827000000E+00  0.93827000000E+00 0.  1.
     999902    2    1    2    0    0  0.47525144019E-02  0.15771125726E-01  0.17166373032E-01  0.10201392631E+01  0.10198618127E+01 0.  0.
     999903    2    3    3    0    0 -0.12420335865E+00  0.32153131313E-01 -0.11286522122E-01  0.13013501897E+00  0.18639727100E-01 0.  0.
         14    1    1    2    0    0 -0.47525144019E-02 -0.15771125726E-01 -0.17166373032E-01  0.23790736914E-01  0.00000000000E+00 0. -1.
     999901    1    3    3    0    0  0.12895587306E+00 -0.16382005586E-01  0.28452895154E-01  0.89000424412E+00  0.88000000000E+00 0.  1.
        -11    1    4    4    0    0 -0.62161001894E-01  0.25473843940E-01 -0.38469850404E-02  0.67290172361E-01  0.51100000000E-03 0.  1.
         11    1    4    4    0    0 -0.62042356761E-01  0.66792873726E-02 -0.74395370812E-02  0.62844846609E-01  0.51100000000E-03 0. -1.
</event>
<event>
 8    1  0.1099478E+005  0.1043930E+01  0.7957747E-01            NaN
         13   -1    0    0    0    0  0.00000000000E+00  0.00000000000E+00  0.74505805969E-08  0.10566000000E+00  0.10566000000E+00 0. -1.
     999900   -1    0    0    0    0 -0.00000000000E+00 -0.00000000000E+00 -0.74505805969E-08  0.93827000000E+00  0.93827000000E+00 0.  1.
     999902    2    1    2    0    0 -0.54814944210E-02 -0.14769628800E-01  0.16902962779E-01  0.10208237483E+01  0.10205622109E+01 0.  0.
     999903    2    3    3    0    0  0.10411897567E+00  0.49357409535E-01  0.58548291296E-01  0.13073449803E+00  0.19664475396E-01 0.  0.
         14    1    1    2    0    0  0.54814944210E-02  0.14769628800E-01 -0.16902962779E-01  0.23106251679E-01  0.00000000000E+00 0.  1.
     999901    1    3    3    0    0 -0.10960047009E+00 -0.64127038334E-01 -0.41645328518E-01  0.89008925029E+00  0.88000000000E+00 0.  1.
        -11    1    4    4    0    0  0.66641785117E-01  0.39680213753E-01  0.32614774599E-01  0.84140546291E-01  0.51100000000E-03 0. -1.
         11    1    4    4    0    0  0.37477190550E-01  0.96771957817E-02  0.25933516697E-01  0.46593951742E-01  0.51100000000E-03 0.  1.
</event>
<event>
 8    1  0.1099478E+005  0.1043930E+01  0.7957747E-01            NaN
         13   -1    0    0    0    0  0.00000000000E+00  0.00000000000E+00  0.74505805969E-08  0.10566000000E+00  0.10566000000E+00 0.  1.
     999900   -1    0    0    0    0 -0.00000000000E+00 -0.00000000000E+00 -0.74505805969E-08  0.93827000000E+00  0.93827000000E+00 0. -1.
     999902    2    1    2    0    0  0.83883289454E-02 -0.11922868269E-01  0.19133830589E-01  0.10198754303E+01  0.10195917178E+01 0.  0.
     999903    2    3    3    0    0  0.68055966692E-01  0.10713726827E+00 -0.86834273959E-02  0.12942085934E+00  0.23756011170E-01 0.  0.
         14    1    1    2    0    0 -0.83883289454E-02  0.11922868269E-01 -0.19133830589E-01  0.24054569696E-01  0.00000000000E+00 0. -1.
     999901    1    3    3    0    0 -0.59667637747E-01 -0.11906013654E+00  0.27817257985E-01  0.89045457096E+00  0.88000000000E+00 0. -1.
        -11    1    4    4    0    0  0.22087820190E-01  0.55213529861E-01 -0.84745288406E-02  0.60070662061E-01  0.51100000000E-03 0.  1.
         11    1    4    4    0    0  0.45968146502E-01  0.51923738408E-01 -0.20889855530E-03  0.69350197280E-01  0.51100000000E-03 0. -1.
</event>
<event>
 8    1  0.1099478E+005  0.1043930E+01  0.7957747E-01            NaN
         13   -1    0    0    0    0  0.00000000000E+00  0.00000000000E+00  0.74505805969E-08  0.10566000000E+00  0.10566000000E+00 0.  1.
     999900   -1    0    0    0    0 -0.00000000000E+00 -0.00000000000E+00 -0.74505805969E-08  0.93827000000E+00  0.93827000000E+00 0. -1.
     999902    2    1    2    0    0  0.18577666037E-01  0.14789618818E-01 -0.48807942213E-02  0.10196877919E+01  0.10193995823E+01 0.  0.
     999903    2    3    3    0    0  0.22037549706E-02  0.12826418266E+00 -0.24349967528E-01  0.13203716791E+00  0.19604481663E-01 0.  0.
         14    1    1    2    0    0 -0.18577666037E-01 -0.14789618818E-01  0.48807942213E-02  0.24242208076E-01  0.00000000000E+00 0.  1.
     999901    1    3    3    0    0  0.16373911067E-01 -0.11347456384E+00  0.19469173307E-01  0.88765062401E+00  0.88000000000E+00 0.  1.
        -11    1    4    4    0    0 -0.80458694156E-02  0.78616010955E-01 -0.13108314992E-01  0.80108065986E-01  0.51100000000E-03 0.  1.
         11    1    4    4    0    0  0.10249624386E-01  0.49648171707E-01 -0.11241652537E-01  0.51929101924E-01  0.51100000000E-03 0. -1.
</event>
<event>
 8    1  0.1099478E+005  0.1043930E+01  0.7957747E-01            NaN
         13   -1    0    0    0    0  0.00000000000E+00  0.00000000000E+00  0.74505805969E-08  0.10566000000E+00  0.10566000000E+00 0. -1.
     999900   -1    0    0    0    0 -0.00000000000E+00 -0.00000000000E+00 -0.74505805969E-08  0.93827000000E+00  0.93827000000E+00 0. -1.
     999902    2    1    2    0    0  0.10759688979E-01  0.16658323234E-01  0.13005626189E-01  0.10202146684E+01  0.10199389946E+01 0.  0.
     999903    2    3    3    0    0 -0.10256121366E+00  0.45146386270E-01 -0.61598994132E-01  0.12936168049E+00  0.19570630074E-01 0.  0.
         14    1    1    2    0    0 -0.10759688979E-01 -0.16658323234E-01 -0.13005626189E-01  0.23715331590E-01  0.00000000000E+00 0.  1.
     999901    1    3    3    0    0  0.11332090264E+00 -0.28488063037E-01  0.74604620320E-01  0.89085298792E+00  0.88000000000E+00 0. -1.
        -11    1    4    4    0    0 -0.59324297836E-01  0.34457391385E-01 -0.43794421130E-01  0.81393467662E-01  0.51100000000E-03 0. -1.
         11    1    4    4    0    0 -0.43236915821E-01  0.10688994885E-01 -0.17804573001E-01  0.47968212830E-01  0.51100000000E-03 0.  1.
</event>
<event>
 8    1  0.1099478E+005  0.1043930E+01  0.7957747E-01            NaN
         13   -1    0    0    0    0  0.00000000000E+00  0.00000000000E+00  0.74505805969E-08  0.10566000000E+00  0.10566000000E+00 0. -1.
     999900   -1    0    0    0    0 -0.00000000000E+00 -0.00000000000E+00 -0.74505805969E-08  0.93827000000E+00  0.93827000000E+00 0.  1.
     999902    2    1    2    0    0 -0.84642106430E-03  0.37362570089E-02  0.24115996689E-01  0.10195116188E+01  0.10192191538E+01 0.  0.
     999903    2    3    3    0    0  0.11413587439E+00 -0.10421873779E-01 -0.53534580584E-01  0.12852845784E+00  0.22759610704E-01 0.  0.
         14    1    1    2    0    0  0.84642106430E-03 -0.37362570089E-02 -0.24115996689E-01  0.24418381219E-01  0.00000000000E+00 0.  1.
     999901    1    3    3    0    0 -0.11498229546E+00  0.14158130788E-01  0.77650577273E-01  0.89098316094E+00  0.88000000000E+00 0.  1.
        -11    1    4    4    0    0  0.31575274251E-01 -0.59723709862E-02 -0.26136783286E-01  0.41425351185E-01  0.51100000000E-03 0.  1.
         11    1    4    4    0    0  0.82560600141E-01 -0.44495027933E-02 -0.27397797298E-01  0.87103106652E-01  0.51100000000E-03 0. -1.
</event>
<event>
 8    1  0.1099478E+005  0.1043930E+01  0.7957747E-01            NaN
         13   -1    0    0    0    0  0.00000000000E+00  0.00000000000E+00  0.74505805969E-08  0.10566000000E+00  0.10566000000E+00 0. -1.
     999900   -1    0    0    0    0 -0.00000000000E+00 -0.00000000000E+00 -0.74505805969E-08  0.93827000000E+00  0.93827000000E+00 0.  1.
     999902    2    1    2    0    0 -0.46137776693E-02 -0.26775142461E-02 -0.27104800206E-01  0.10163052607E+01  0.10159297499E+01 0.  0.
     999903    2    3    3    0    0 -0.11978527790E+00  0.28322845095E-01 -0.30044481329E-01  0.12825450851E+00  0.19896023208E-01 0.  0.
         14    1    1    2    0    0  0.46137776693E-02  0.26775142461E-02  0.27104800206E-01  0.27624739295E-01  0.00000000000E+00 0. -1.
     999901    1    3    3    0    0  0.11517150023E+00 -0.31000359341E-01  0.29396811231E-02  0.88805075219E+00  0.88000000000E+00 0.  1.
        -11    1    4    4    0    0 -0.82855497640E-01  0.23736866797E-01 -0.12437598349E-01  0.87082876090E-01  0.51100000000E-03 0.  1.
         11    1    4    4    0    0 -0.36929780260E-01  0.45859782979E-02 -0.17606882980E-01  0.41171632422E-01  0.51100000000E-03 0. -1.
</event>
<event>
 8    1  0.1099478E+005  0.1043930E+01  0.7957747E-01            NaN
         13   -1    0    0    0    0  0.00000000000E+00  0.00000000000E+00  0.74505805969E-08  0.10566000000E+00  0.10566000000E+00 0. -1.
     999900   -1    0    0    0    0 -0.00000000000E+00 -0.00000000000E+00 -0.74505805969E-08  0.93827000000E+00  0.93827000000E+00 0. -1.
     999902    2    1    2    0    0 -0.14873089936E-01 -0.15997629093E-01  0.60693027133E-03  0.10220781968E+01  0.10218445767E+01 0.  0.
     999903    2    3    3    0    0  0.56631314357E-01 -0.10990339916E+00 -0.44718082741E-01  0.13304190374E+00  0.20361196313E-01 0.  0.
         14    1    1    2    0    0  0.14873089936E-01  0.15997629093E-01 -0.60693027133E-03  0.21851803248E-01  0.00000000000E+00 0. -1.
     999901    1    3    3    0    0 -0.71504404293E-01  0.93905770064E-01  0.45325013012E-01  0.88903629301E+00  0.88000000000E+00 0. -1.
        -11    1    4    4    0    0  0.47415917386E-01 -0.77025412789E-01 -0.38627640562E-01  0.98354151785E-01  0.51100000000E-03 0.  1.
         11    1    4    4    0    0  0.92153969708E-02 -0.32877986367E-01 -0.60904421786E-02  0.34687751957E-01  0.51100000000E-03 0. -1.
</event>
<event>
 8    1  0.1099478E+005  0.1043930E+01  0.7957747E-01            NaN
         13   -1    0    0    0    0  0.00000000000E+00  0.00000000000E+00  0.74505805969E-08  0.10566000000E+00  0.10566000000E+00 0.  1.
     999900   -1    0    0    0    0 -0.00000000000E+00 -0.00000000000E+00 -0.74505805969E-08  0.93827000000E+00  0.93827000000E+00 0. -1.
     999902    2    1    2    0    0  0.71338680739E-02  0.18142672677E-01  0.12932997879E-01  0.10205353194E+01  0.10202671352E+01 0.  0.
     999903    2    3    3    0    0  0.62330837108E-01  0.97567995350E-01  0.63964749217E-01  0.13376628132E+00  0.19931931806E-01 0.  0.
         14    1    1    2    0    0 -0.71338680739E-02 -0.18142672677E-01 -0.12932997879E-01  0.23394680586E-01  0.00000000000E+00 0. -1.
     999901    1    3    3    0    0 -0.55196969034E-01 -0.79425322673E-01 -0.51031751338E-01  0.88676903809E+00  0.88000000000E+00 0. -1.
        -11    1    4    4    0    0  0.42648269374E-01  0.71611871465E-01  0.55392092355E-01  0.10007836945E+00  0.51100000000E-03 0.  1.
         11    1    4    4    0    0  0.19682567733E-01  0.25956123885E-01  0.85726568626E-02  0.33687911874E-01  0.51100000000E-03 0. -1.
</event>
<event>
 8    1  0.1099478E+005  0.1043930E+01  0.7957747E-01            NaN
         13   -1    0    0    0    0  0.00000000000E+00  0.00000000000E+00  0.74505805969E-08  0.10566000000E+00  0.10566000000E+00 0.  1.
     999900   -1    0    0    0    0 -0.00000000000E+00 -0.00000000000E+00 -0.74505805969E-08  0.93827000000E+00  0.93827000000E+00 0. -1.
     999902    2    1    2    0    0 -0.10899227293E-01 -0.14015660682E-01 -0.14306514767E-01  0.10211285030E+01  0.10208738959E+01 0.  0.
     999903    2    3    3    0    0  0.10251905758E+00 -0.79181340520E-01  0.60778359902E-02  0.13122637642E+00  0.20089298718E-01 0.  0.
         14    1    1    2    0    0  0.10899227293E-01  0.14015660682E-01  0.14306514767E-01  0.22801496984E-01  0.00000000000E+00 0.  1.
     999901    1    3    3    0    0 -0.11341828487E+00  0.65165679839E-01 -0.20384350758E-01  0.88990212660E+00  0.88000000000E+00 0. -1.
        -11    1    4    4    0    0  0.73448303406E-01 -0.54241299903E-01 -0.47138092349E-02  0.91428950595E-01  0.51100000000E-03 0. -1.
         11    1    4    4    0    0  0.29070754175E-01 -0.24940040617E-01  0.10791645225E-01  0.39797425821E-01  0.51100000000E-03 0.  1.
</event>
<event>
 8    1  0.1099478E+005  0.1043930E+01  0.7957747E-01            NaN
         13   -1    0    0    0    0  0.00000000000E+00  0.00000000000E+00  0.74505805969E-08  0.10566000000E+00  0.10566000000E+00 0. -1.
     999900   -1    0    0    0    0 -0.00000000000E+00 -0.00000000000E+00 -0.74505805969E-08  0.93827000000E+00  0.93827000000E+00 0. -1.
     999902    2    1    2    0    0  0.20557581397E-01  0.73708566175E-02  0.10712734068E-01  0.10196049851E+01  0.10193147793E+01 0.  0.
     999903    2    3    3    0    0 -0.83176088054E-01 -0.24718622602E-01  0.93531729181E-01  0.12907177693E+00  0.19546542095E-01 0.  0.
         14    1    1    2    0    0 -0.20557581397E-01 -0.73708566175E-02 -0.10712734068E-01  0.24325014931E-01  0.00000000000E+00 0.  1.
     999901    1    3    3    0    0  0.10373366945E+00  0.32089479220E-01 -0.82818995113E-01  0.89053320814E+00  0.88000000000E+00 0.  1.
        -11    1    4    4    0    0 -0.17940299947E-01 -0.14155826761E-01  0.24058608389E-01  0.33186134937E-01  0.51100000000E-03 0. -1.
         11    1    4    4    0    0 -0.65235788107E-01 -0.10562795842E-01  0.69473120792E-01  0.95885641989E-01  0.51100000000E-03 0.  1.
</event>
<event>
 8    1  0.1099478E+005  0.1043930E+01  0.7957747E-01            NaN
         13   -1    0    0    0    0  0.00000000000E+00  0.00000000000E+00  0.74505805969E-08  0.10566000000E+00  0.10566000000E+00 0. -1.
     999900   -1    0    0    0    0 -0.00000000000E+00 -0.00000000000E+00 -0.74505805969E-08  0.93827000000E+00  0.93827000000E+00 0. -1.
     999902    2    1    2    0    0 -0.12846161265E-01  0.20053582958E-01 -0.62490481978E-02  0.10193084515E+01  0.10190110395E+01 0.  0.
     999903    2    3    3    0    0 -0.15941412913E-01  0.89840601148E-01  0.92000785531E-01  0.13108953796E+00  0.19871088632E-01 0.  0.
         14    1    1    2    0    0  0.12846161265E-01 -0.20053582958E-01  0.62490481978E-02  0.24621548531E-01  0.00000000000E+00 0. -1.
     999901    1    3    3    0    0  0.30952516475E-02 -0.69787018190E-01 -0.98249833728E-01  0.88821891351E+00  0.88000000000E+00 0. -1.
        -11    1    4    4    0    0 -0.11568739440E-01  0.59979014820E-01  0.73957733150E-01  0.95923539158E-01  0.51100000000E-03 0.  1.
         11    1    4    4    0    0 -0.43726734730E-02  0.29861586328E-01  0.18043052381E-01  0.35165998799E-01  0.51100000000E-03 0. -1.
</event>
<event>
 8    1  0.1099478E+005  0.1043930E+01  0.7957747E-01            NaN
         13   -1    0    0    0    0  0.00000000000E+00  0.00000000000E+00  0.74505805969E-08  0.10566000000E+00  0.10566000000E+00 0. -1.
     999900   -1    0    0    0    0 -0.00000000000E+00 -0.00000000000E+00 -0.74505805969E-08  0.93827000000E+00  0.93827000000E+00 0.  1.
     999902    2    1    2    0    0  0.20693612294E-01  0.10954654875E-01  0.49909962517E-02  0.10199896555E+01  0.10197086629E+01 0.  0.
     999903    2    3    3    0    0 -0.10809118403E+00 -0.11284408213E-01 -0.63870968744E-01  0.12767689083E+00  0.20269333262E-01 0.  0.
         14    1    1    2    0    0 -0.20693612294E-01 -0.10954654875E-01 -0.49909962517E-02  0.23940344542E-01  0.00000000000E+00 0. -1.
     999901    1    3    3    0    0  0.12878479632E+00  0.22239063088E-01  0.68861964996E-01  0.89231276463E+00  0.88000000000E+00 0.  1.
        -11    1    4    4    0    0 -0.22929035628E-01 -0.88155584222E-02 -0.82051676692E-02  0.25904452177E-01  0.51100000000E-03 0.  1.
         11    1    4    4    0    0 -0.85162148401E-01 -0.24688497907E-02 -0.55665801075E-01  0.10177243866E+00  0.51100000000E-03 0. -1.
</event>
<event>
 8    1  0.1099478E+005  0.1043930E+01  0.7957747E-01            NaN
         13   -1    0    0    0    0  0.00000000000E+00  0.00000000000E+00  0.74505805969E-08  0.10566000000E+00  0.10566000000E+00 0.  1.
     999900   -1    0    0    0    0 -0.00000000000E+00 -0.00000000000E+00 -0.74505805969E-08  0.93827000000E+00  0.93827000000E+00 0.  1.
     999902    2    1    2    0    0 -0.54100157480E-02  0.12445041176E-01  0.22188887332E-01  0.10179205009E+01  0.10175881545E+01 0.  0.
     999903    2    3    3    0    0 -0.31710351553E-01 -0.87067080862E-01  0.88242040354E-01  0.12946262962E+00  0.19689891202E-01 0.  0.
         14    1    1    2    0    0  0.54100157480E-02 -0.12445041176E-01 -0.22188887332E-01  0.26009499059E-01  0.00000000000E+00 0. -1.
     999901    1    3    3    0    0  0.26300335805E-01  0.99512122038E-01 -0.66053153022E-01  0.88845787133E+00  0.88000000000E+00 0.  1.
        -11    1    4    4    0    0 -0.81093407389E-02 -0.36611937032E-01  0.47126947364E-01  0.60227947245E-01  0.51100000000E-03 0. -1.
         11    1    4    4    0    0 -0.23601010814E-01 -0.50455143830E-01  0.41115092990E-01  0.69234682371E-01  0.51100000000E-03 0.  1.
</event>
<event>
 8    1  0.1099478E+005  0.1043930E+01  0.7957747E-01            NaN
         13   -1    0    0    0    0  0.00000000000E+00  0.00000000000E+00  0.74505805969E-08  0.10566000000E+00  0.10566000000E+00 0.  1.
     999900   -1    0    0    0    0 -0.00000000000E+00 -0.00000000000E+00 -0.74505805969E-08  0.93827000000E+00  0.93827000000E+00 0.  1.
     999902    2    1    2    0    0  0.20056590134E-01 -0.55389455067E-02  0.12862350823E-01  0.10194680542E+01  0.10191745320E+01 0.  0.
     999903    2    3    3    0    0 -0.11633087845E+00  0.92413446318E-02 -0.46036960430E-01  0.12689361614E+00  0.19086968281E-01 0.  0.
         14    1    1    2    0    0 -0.20056590134E-01  0.55389455067E-02 -0.12862350823E-01  0.24461945830E-01  0.00000000000E+00 0.  1.
     999901    1    3    3    0    0  0.13638746859E+00 -0.14780290139E-01  0.58899311253E-01  0.89257443803E+00  0.88000000000E+00 0. -1.
        -11    1    4    4    0    0 -0.29938151263E-01  0.10359985069E-01 -0.94349217828E-02  0.33059054156E-01  0.51100000000E-03 0.  1.
         11    1    4    4    0    0 -0.86392727190E-01 -0.11186404369E-02 -0.36602038647E-01  0.93834561980E-01  0.51100000000E-03 0. -1.
</event>
<event>
 8    1  0.1099478E+005  0.1043930E+01  0.7957747E-01            NaN
         13   -1    0    0    0    0  0.00000000000E+00  0.00000000000E+00  0.74505805969E-08  0.10566000000E+00  0.10566000000E+00 0. -1.
     999900   -1    0    0    0    0 -0.00000000000E+00 -0.00000000000E+00 -0.74505805969E-08  0.93827000000E+00  0.93827000000E+00 0.  1.
     999902    2    1    2    0    0  0.73132131311E-02  0.14366511675E-01 -0.19528902643E-01  0.10186069318E+01  0.10182921112E+01 0.  0.
     999903    2    3    3    0    0 -0.30417145229E-01  0.12137551803E+00  0.28492780854E-01  0.13002345826E+00  0.20905550401E-01 0.  0.
         14    1    1    2    0    0 -0.73132131311E-02 -0.14366511675E-01  0.19528902643E-01  0.25323068188E-01  0.00000000000E+00 0. -1.
     999901    1    3    3    0    0  0.37730358360E-01 -0.10700900635E+00 -0.48021683497E-01  0.88858347355E+00  0.88000000000E+00 0.  1.
        -11    1    4    4    0    0 -0.96348198123E-02  0.79786599555E-01  0.18126993015E-01  0.82386772107E-01  0.51100000000E-03 0. -1.
         11    1    4    4    0    0 -0.20782325417E-01  0.41588918471E-01  0.10365787838E-01  0.47636686154E-01  0.51100000000E-03 0.  1.
</event>
<event>
 8    1  0.1099478E+005  0.1043930E+01  0.7957747E-01            NaN
         13   -1    0    0    0    0  0.00000000000E+00  0.00000000000E+00  0.74505805969E-08  0.10566000000E+00  0.10566000000E+00 0.  1.
     999900   -1    0    0    0    0 -0.00000000000E+00 -0.00000000000E+00 -0.74505805969E-08  0.93827000000E+00  0.93827000000E+00 0.  1.
     999902    2    1    2    0    0 -0.13535541157E-01  0.12538019225E-01 -0.13522673558E-01  0.10210547841E+01  0.10207985094E+01 0.  0.
     999903    2    3    3    0    0  0.11147158374E+00 -0.49638167921E-01 -0.39501576502E-01  0.12966959079E+00  0.19077906955E-01 0.  0.
         14    1    1    2    0    0  0.13535541157E-01 -0.12538019225E-01  0.13522673558E-01  0.22875215860E-01  0.00000000000E+00 0.  1.
     999901    1    3    3    0    0 -0.12500712490E+00  0.62176187146E-01  0.25978902944E-01  0.89138519335E+00  0.88000000000E+00 0.  1.
        -11    1    4    4    0    0  0.25156943832E-01 -0.16894647616E-01 -0.32213361349E-02  0.30478501743E-01  0.51100000000E-03 0.  1.
         11    1    4    4    0    0  0.86314639908E-01 -0.32743520305E-01 -0.36280240368E-01  0.99191089048E-01  0.51100000000E-03 0. -1.
</event>
<event>
 8    1  0.1099478E+005  0.1043930E+01  0.7957747E-01            NaN
         13   -1    0    0    0    0  0.00000000000E+00  0.00000000000E+00  0.74505805969E-08  0.10566000000E+00  0.10566000000E+00 0.  1.
     999900   -1    0    0    0    0 -0.00000000000E+00 -0.00000000000E+00 -0.74505805969E-08  0.93827000000E+00  0.93827000000E+00 0. -1.
     999902    2    1    2    0    0  0.13296917076E-01 -0.15774948782E-01 -0.11391305455E-01  0.10203626740E+01  0.10200904704E+01 0.  0.
     999903    2    3    3    0    0  0.12548865708E+00  0.32862531487E-01  0.15723189843E-02  0.13181293060E+00  0.23341539253E-01 0.  0.
         14    1    1    2    0    0 -0.13296917076E-01  0.15774948782E-01  0.11391305455E-01  0.23567325957E-01  0.00000000000E+00 0.  1.
     999901    1    3    3    0    0 -0.11219174001E+00 -0.48637480268E-01 -0.12963624439E-01  0.88854974344E+00  0.88000000000E+00 0.  1.
        -11    1    4    4    0    0  0.41386562108E-02  0.16684867556E-02  0.46686696497E-02  0.64784196053E-02  0.51100000000E-03 0. -1.
         11    1    4    4    0    0  0.12135000087E+00  0.31194044731E-01 -0.30963506654E-02  0.12533451100E+00  0.51100000000E-03 0.  1.
</event>
<event>
 8    1  0.1099478E+005  0.1043930E+01  0.7957747E-01            NaN
         13   -1    0    0    0    0  0.00000000000E+00  0.00000000000E+00  0.74505805969E-08  0.10566000000E+00  0.10566000000E+00 0. -1.
     999900   -1    0    0    0    0 -0.00000000000E+00 -0.00000000000E+00 -0.74505805969E-08  0.93827000000E+00  0.93827000000E+00 0. -1.
     999902    2    1    2    0    0 -0.46740644407E-02 -0.19404352949E-02 -0.23095378025E-01  0.10202866362E+01  0.10200126525E+01 0.  0.
     999903    2    3    3    0    0 -0.71183973426E-01 -0.56278374306E-01  0.89230963340E-01  0.12899914799E+00  0.21076097261E-01 0.  0.
         14    1    1    2    0    0  0.46740644407E-02  0.19404352949E-02  0.23095378025E-01  0.23643363839E-01  0.00000000000E+00 0. -1.
     999901    1    3    3    0    0  0.66509908985E-01  0.54337939012E-01 -0.11232634136E+00  0.89128748817E+00  0.88000000000E+00 0. -1.
        -11    1    4    4    0    0 -0.72551419571E-01 -0.55207968798E-01  0.86198050020E-01  0.12546710026E+00  0.51100000000E-03 0. -1.
         11    1    4    4    0    0  0.13674461452E-02 -0.10704055087E-02  0.30329133206E-02  0.35320477238E-02  0.51100000000E-03 0.  1.
</event>
<event>
 8    1  0.1099478E+005  0.1043930E+01  0.7957747E-01            NaN
         13   -1    0    0    0    0  0.00000000000E+00  0.00000000000E+00  0.74505805969E-08  0.10566000000E+00  0.10566000000E+00 0. -1.
     999900   -1    0    0    0    0 -0.00000000000E+00 -0.00000000000E+00 -0.74505805969E-08  0.93827000000E+00  0.93827000000E+00 0. -1.
     999902    2    1    2    0    0 -0.60095732231E-02 -0.10862503280E-01 -0.19193579286E-01  0.10210716879E+01  0.10208157960E+01 0.  0.
     999903    2    3    3    0    0  0.94889566717E-01  0.86153965390E-01 -0.81587116522E-02  0.12994060888E+00  0.19785389448E-01 0.  0.
         14    1    1    2    0    0  0.60095732231E-02  0.10862503280E-01  0.19193579286E-01  0.22858312134E-01  0.00000000000E+00 0. -1.
     999901    1    3    3    0    0 -0.10089913994E+00 -0.97016468670E-01 -0.11034867634E-01  0.89113107899E+00  0.88000000000E+00 0. -1.
        -11    1    4    4    0    0  0.37933003836E-01  0.34053211419E-01 -0.12954182688E-01  0.52598535702E-01  0.51100000000E-03 0. -1.
         11    1    4    4    0    0  0.56956562881E-01  0.52100753972E-01  0.47954710361E-02  0.77342073176E-01  0.51100000000E-03 0.  1.
</event>
<event>
 8    1  0.1099478E+005  0.1043930E+01  0.7957747E-01            NaN
         13   -1    0    0    0    0  0.00000000000E+00  0.00000000000E+00  0.74505805969E-08  0.10566000000E+00  0.10566000000E+00 0.  1.
     999900   -1    0    0    0    0 -0.00000000000E+00 -0.00000000000E+00 -0.74505805969E-08  0.93827000000E+00  0.93827000000E+00 0.  1.
     999902    2    1    2    0    0 -0.18361014248E-02 -0.16422576639E-01 -0.84822824120E-02  0.10253552481E+01  0.10251869895E+01 0.  0.
     999903    2    3    3    0    0 -0.34202563022E-01  0.10141023082E+00  0.76047402113E-01  0.13289940838E+00  0.20620260601E-01 0.  0.
         14    1    1    2    0    0  0.18361014248E-02  0.16422576639E-01  0.84822824120E-02  0.18574751864E-01  0.00000000000E+00 0.  1.
     999901    1    3    3    0    0  0.32366461598E-01 -0.11783280746E+00 -0.84529684525E-01  0.89245583976E+00  0.88000000000E+00 0.  1.
        -11    1    4    4    0    0 -0.18605303960E-01  0.72452830132E-01  0.43058700681E-01  0.86312703323E-01  0.51100000000E-03 0.  1.
         11    1    4    4    0    0 -0.15597259062E-01  0.28957400687E-01  0.32988701432E-01  0.46586705056E-01  0.51100000000E-03 0. -1.
</event>
<event>
 8    1  0.1099478E+005  0.1043930E+01  0.7957747E-01            NaN
         13   -1    0    0    0    0  0.00000000000E+00  0.00000000000E+00  0.74505805969E-08  0.10566000000E+00  0.10566000000E+00 0.  1.
     999900   -1    0    0    0    0 -0.00000000000E+00 -0.00000000000E+00 -0.74505805969E-08  0.93827000000E+00  0.93827000000E+00 0. -1.
     999902    2    1    2    0    0  0.24571294553E-02  0.20517997750E-01  0.10547842879E-01  0.10207290796E+01  0.10204653700E+01 0.  0.
     999903    2    3    3    0    0  0.40738592849E-01  0.11961846558E+00  0.38979924188E-01  0.13388368362E+00  0.20909232321E-01 0.  0.
         14    1    1    2    0    0 -0.24571294553E-02 -0.20517997750E-01 -0.10547842879E-01  0.23200920374E-01  0.00000000000E+00 0. -1.
     999901    1    3    3    0    0 -0.38281463394E-01 -0.99100467828E-01 -0.28432081309E-01  0.88684539600E+00  0.88000000000E+00 0. -1.
        -11    1    4    4    0    0  0.20243333844E-01  0.87339307402E-01  0.30623159958E-01  0.94741681584E-01  0.51100000000E-03 0. -1.
         11    1    4    4    0    0  0.20495259005E-01  0.32279158176E-01  0.83567642294E-02  0.39142002039E-01  0.51100000000E-03 0.  1.
</event>
<event>
 8    1  0.1099478E+005  0.1043930E+01  0.7957747E-01            NaN
         13   -1    0    0    0    0  0.00000000000E+00  0.00000000000E+00  0.74505805969E-08  0.10566000000E+00  0.10566000000E+00 0. -1.
     999900   -1    0    0    0    0 -0.00000000000E+00 -0.00000000000E+00 -0.74505805969E-08  0.93827000000E+00  0.93827000000E+00 0.  1.
     999902    2    1    2    0    0 -0.64899224959E-02  0.22606782053E-01 -0.24468207822E-02  0.10202831689E+01  0.10200091039E+01 0.  0.
     999903    2    3    3    0    0  0.89583996238E-01  0.87779937873E-01 -0.35474467159E-01  0.13204414504E+00  0.21133114854E-01 0.  0.
         14    1    1    2    0    0  0.64899224959E-02 -0.22606782053E-01  0.24468207822E-02  0.23646831093E-01  0.00000000000E+00 0. -1.
     999901    1    3    3    0    0 -0.96073918734E-01 -0.65173155821E-01  0.33027646377E-01  0.88823902387E+00  0.88000000000E+00 0.  1.
        -11    1    4    4    0    0  0.33114939099E-01  0.30337929876E-01 -0.23234390222E-01  0.50567649646E-01  0.51100000000E-03 0.  1.
         11    1    4    4    0    0  0.56469057139E-01  0.57442007997E-01 -0.12240076938E-01  0.81476495392E-01  0.51100000000E-03 0. -1.
</event>
<event>
 8    1  0.1099478E+005  0.1043930E+01  0.7957747E-01            NaN
         13   -1    0    0    0    0  0.00000000000E+00  0.00000000000E+00  0.74505805969E-08  0.10566000000E+00  0.10566000000E+00 0. -1.
     999900   -1    0    0    0    0 -0.00000000000E+00 -0.00000000000E+00 -0.74505805969E-08  0.93827000000E+00  0.93827000000E+00 0.  1.
     999902    2    1    2    0    0 -0.93384902879E-02  0.21852456115E-01 -0.35962084622E-02  0.10198952345E+01  0.10196119945E+01 0.  0.
     999903    2    3    3    0    0  0.10897195473E+00 -0.63070468161E-01 -0.87443924447E-02  0.12791105957E+00  0.20784703205E-01 0.  0.
         14    1    1    2    0    0  0.93384902879E-02 -0.21852456115E-01  0.35962084622E-02  0.24034765537E-01  0.00000000000E+00 0.  1.
     999901    1    3    3    0    0 -0.11831044502E+00  0.84922924276E-01  0.51481839826E-02  0.89198417490E+00  0.88000000000E+00 0. -1.
        -11    1    4    4    0    0  0.45393171520E-01 -0.18851334700E-01 -0.11246740494E-01  0.50424826558E-01  0.51100000000E-03 0.  1.
         11    1    4    4    0    0  0.63578783214E-01 -0.44219133461E-01  0.25023480493E-02  0.77486233008E-01  0.51100000000E-03 0. -1.
</event>
<event>
 8    1  0.1099478E+005  0.1043930E+01  0.7957747E-01            NaN
         13   -1    0    0    0    0  0.00000000000E+00  0.00000000000E+00  0.74505805969E-08  0.10566000000E+00  0.10566000000E+00 0.  1.
     999900   -1    0    0    0    0 -0.00000000000E+00 -0.00000000000E+00 -0.74505805969E-08  0.93827000000E+00  0.93827000000E+00 0.  1.
     999902    2    1    2    0    0 -0.83683495288E-02 -0.21567268967E-01  0.48077343983E-02  0.10203018246E+01  0.10200281969E+01 0.  0.
     999903    2    3    3    0    0 -0.69886667454E-01  0.10649794248E+00  0.16940142586E-02  0.12890129894E+00  0.19665125085E-01 0.  0.
         14    1    1    2    0    0  0.83683495288E-02  0.21567268967E-01 -0.48077343983E-02  0.23628175439E-01  0.00000000000E+00 0. -1.
     999901    1    3    3    0    0  0.61518317925E-01 -0.12806521144E+00  0.31137201398E-02  0.89140052562E+00  0.88000000000E+00 0.  1.
        -11    1    4    4    0    0 -0.47216764290E-01  0.80824707075E-01  0.84501780709E-02  0.93987886103E-01  0.51100000000E-03 0.  1.
         11    1    4    4    0    0 -0.22669903164E-01  0.25673235402E-01 -0.67561638124E-02  0.34913412837E-01  0.51100000000E-03 0. -1.
</event>
<event>
 8    1  0.1099478E+005  0.1043930E+01  0.7957747E-01            NaN
         13   -1    0    0    0    0  0.00000000000E+00  0.00000000000E+00  0.74505805969E-08  0.10566000000E+00  0.10566000000E+00 0. -1.
     999900   -1    0    0    0    0 -0.00000000000E+00 -0.00000000000E+00 -0.74505805969E-08  0.93827000000E+00  0.93827000000E+00 0.  1.
     999902    2    1    2    0    0  0.14324667263E-01  0.13738353374E-01 -0.12683019112E-01  0.10203758619E+01  0.10201039664E+01 0.  0.
     999903    2    3    3    0    0 -0.91608804488E-01 -0.86660552851E-01 -0.13548765753E-01  0.12835423086E+00  0.19723464355E-01 0.  0.
         14    1    1    2    0    0 -0.14324667263E-01 -0.13738353374E-01  0.12683019112E-01  0.23554138053E-01  0.00000000000E+00 0. -1.
     999901    1    3    3    0    0  0.10593347175E+00  0.10039890623E+00  0.86574664067E-03  0.89202163109E+00  0.88000000000E+00 0.  1.
        -11    1    4    4    0    0 -0.77932288455E-01 -0.80806546016E-01 -0.15543134405E-01  0.11333573845E+00  0.51100000000E-03 0. -1.
         11    1    4    4    0    0 -0.13676516034E-01 -0.58540068353E-02  0.19943686524E-02  0.15018492407E-01  0.51100000000E-03 0.  1.
</event>
<event>
 8    1  0.1099478E+005  0.1043930E+01  0.7957747E-01            NaN
         13   -1    0    0    0    0  0.00000000000E+00  0.00000000000E+00  0.74505805969E-08  0.10566000000E+00  0.10566000000E+00 0.  1.
     999900   -1    0    0    0    0 -0.00000000000E+00 -0.00000000000E+00 -0.74505805969E-08  0.93827000000E+00  0.93827000000E+00 0.  1.
     999902    2    1    2    0    0  0.21295283511E-01  0.84154815138E-02  0.54323786672E-02  0.10203966159E+01  0.10201252049E+01 0.  0.
     999903    2    3    3    0    0  0.54561306708E-01 -0.22328536436E-01 -0.11544061237E+00  0.13097989530E+00  0.18806867334E-01 0.  0.
         14    1    1    2    0    0 -0.21295283511E-01 -0.84154815138E-02 -0.54323786672E-02  0.23533384094E-01  0.00000000000E+00 0. -1.
     999901    1    3    3    0    0 -0.33266023196E-01  0.30744017950E-01  0.12087299103E+00  0.88941672061E+00  0.88000000000E+00 0. -1.
        -11    1    4    4    0    0  0.52574060798E-01 -0.20803464320E-01 -0.96325545087E-01  0.11169461828E+00  0.51100000000E-03 0. -1.
         11    1    4    4    0    0  0.19872459100E-02 -0.15250721167E-02 -0.19115067280E-01  0.19285277011E-01  0.51100000000E-03 0.  1.
</event>
<event>
 8    1  0.1099478E+005  0.1043930E+01  0.7957747E-01            NaN
         13   -1    0    0    0    0  0.00000000000E+00  0.00000000000E+00  0.74505805969E-08  0.10566000000E+00  0.10566000000E+00 0. -1.
     999900   -1    0    0    0    0 -0.00000000000E+00 -0.00000000000E+00 -0.74505805969E-08  0.93827000000E+00  0.93827000000E+00 0. -1.
     999902    2    1    2    0    0 -0.18845059171E-01  0.69337695493E-02  0.12671864893E-01  0.10201857465E+01  0.10199093919E+01 0.  0.
     999903    2    3    3    0    0 -0.75452015464E-01  0.67508280153E-01 -0.81143083353E-01  0.13132419182E+00  0.20284695090E-01 0.  0.
         14    1    1    2    0    0  0.18845059171E-01 -0.69337695493E-02 -0.12671864893E-01  0.23744253519E-01  0.00000000000E+00 0.  1.
     999901    1    3    3    0    0  0.56606956294E-01 -0.60574510603E-01  0.93814948246E-01  0.88886155466E+00  0.88000000000E+00 0.  1.
        -11    1    4    4    0    0 -0.14610105951E-01  0.22818532120E-01 -0.28244084126E-01  0.39142432386E-01  0.51100000000E-03 0.  1.
         11    1    4    4    0    0 -0.60841909513E-01  0.44689748033E-01 -0.52898999227E-01  0.92181759436E-01  0.51100000000E-03 0. -1.
</event>
<event>
 8    1  0.1099478E+005  0.1043930E+01  0.7957747E-01            NaN
         13   -1    0    0    0    0  0.00000000000E+00  0.00000000000E+00  0.74505805969E-08  0.10566000000E+00  0.10566000000E+00 0. -1.
     999900   -1    0    0    0    0 -0.00000000000E+00 -0.00000000000E+00 -0.74505805969E-08  0.93827000000E+00  0.93827000000E+00 0.  1.
     999902    2    1    2    0    0  0.36425914367E-02 -0.24723919082E-01  0.42715179243E-02  0.10185767652E+01  0.10182611847E+01 0.  0.
     999903    2    3    3    0    0 -0.11383003123E+00  0.25970014077E-01  0.44260322228E-01  0.12842576884E+00  0.30041377069E-01 0.  0.
         14    1    1    2    0    0 -0.36425914367E-02  0.24723919082E-01 -0.42715179243E-02  0.25353234755E-01  0.00000000000E+00 0.  1.
     999901    1    3    3    0    0  0.11747262267E+00 -0.50693933159E-01 -0.39988804303E-01  0.89015099641E+00  0.88000000000E+00 0.  1.
        -11    1    4    4    0    0 -0.16016681334E-01 -0.66760109743E-02  0.47617010654E-02  0.18001058900E-01  0.51100000000E-03 0. -1.
         11    1    4    4    0    0 -0.97813349899E-01  0.32646025052E-01  0.39498621162E-01  0.11042470994E+00  0.51100000000E-03 0.  1.
</event>
<event>
 8    1  0.1099478E+005  0.1043930E+01  0.7957747E-01            NaN
         13   -1    0    0    0    0  0.00000000000E+00  0.00000000000E+00  0.74505805969E-08  0.10566000000E+00  0.10566000000E+00 0.  1.
     999900   -1    0    0    0    0 -0.00000000000E+00 -0.00000000000E+00 -0.74505805969E-08  0.93827000000E+00  0.93827000000E+00 0. -1.
     999902    2    1    2    0    0 -0.21015583750E-01  0.10072325250E-01  0.58361248134E-02  0.10199057029E+01  0.10196227126E+01 0.  0.
     999903    2    3    3    0    0  0.49363648200E-01  0.39308493734E-01 -0.11191242656E+00  0.12879812740E+00  0.90905972992E-02 0.  0.
         14    1    1    2    0    0  0.21015583750E-01 -0.10072325250E-01 -0.58361248134E-02  0.24024297059E-01  0.00000000000E+00 0.  1.
     999901    1    3    3    0    0 -0.70379231950E-01 -0.29236168483E-01  0.11774855138E+00  0.89110757554E+00  0.88000000000E+00 0.  1.
        -11    1    4    4    0    0  0.11518076037E-01  0.57971514631E-02 -0.18059485375E-01  0.22196377490E-01  0.51100000000E-03 0. -1.
         11    1    4    4    0    0  0.37845572162E-01  0.33511342271E-01 -0.93852941188E-01  0.10660174991E+00  0.51100000000E-03 0.  1.
</event>
<event>
 8    1  0.1099478E+005  0.1043930E+01  0.7957747E-01            NaN
         13   -1    0    0    0    0  0.00000000000E+00  0.00000000000E+00  0.74505805969E-08  0.10566000000E+00  0.10566000000E+00 0. -1.
     999900   -1    0    0    0    0 -0.00000000000E+00 -0.00000000000E+00 -0.74505805969E-08  0.93827000000E+00  0.93827000000E+00 0.  1.
     999902    2    1    2    0    0 -0.15948591824E-01 -0.40629495031E-03  0.18610395526E-01  0.10194173608E+01  0.10191226060E+01 0.  0.
     999903    2    3    3    0    0 -0.10223585947E+00 -0.52713012619E-01 -0.58242281452E-01  0.13032354170E+00  0.19006038833E-01 0.  0.
         14    1    1    2    0    0  0.15948591824E-01  0.40629495031E-03 -0.18610395526E-01  0.24512639156E-01  0.00000000000E+00 0.  1.
     999901    1    3    3    0    0  0.86287267649E-01  0.52306717668E-01  0.76852676979E-01  0.88909381914E+00  0.88000000000E+00 0. -1.
        -11    1    4    4    0    0 -0.83198428981E-01 -0.42281494599E-01 -0.55112110037E-01  0.10838500433E+00  0.51100000000E-03 0.  1.
         11    1    4    4    0    0 -0.19037430492E-01 -0.10431518020E-01 -0.31301714151E-02  0.21938537372E-01  0.51100000000E-03 0. -1.
</event>
<event>
 8    1  0.1099478E+005  0.1043930E+01  0.7957747E-01            NaN
         13   -1    0    0    0    0  0.00000000000E+00  0.00000000000E+00  0.74505805969E-08  0.10566000000E+00  0.10566000000E+00 0.  1.
     999900   -1    0    0    0    0 -0.00000000000E+00 -0.00000000000E+00 -0.74505805969E-08  0.93827000000E+00  0.93827000000E+00 0. -1.
     999902    2    1    2    0    0  0.15775859628E-01 -0.53235125759E-02  0.18553414343E-01  0.10190011670E+01  0.10186961920E+01 0.  0.
     999903    2    3    3    0    0  0.11153592779E+00 -0.66410993761E-01  0.10443986329E-01  0.13166389521E+00  0.19380948619E-01 0.  0.
         14    1    1    2    0    0 -0.15775859628E-01  0.53235125759E-02 -0.18553414343E-01  0.24928833044E-01  0.00000000000E+00 0. -1.
     999901    1    3    3    0    0 -0.95760068166E-01  0.61087481186E-01  0.81094280137E-02  0.88733727175E+00  0.88000000000E+00 0. -1.
        -11    1    4    4    0    0  0.67028218244E-01 -0.40534567399E-01 -0.32079220140E-02  0.78398884430E-01  0.51100000000E-03 0. -1.
         11    1    4    4    0    0  0.44507709550E-01 -0.25876426362E-01  0.13651908343E-01  0.53265010777E-01  0.51100000000E-03 0.  1.
</event>
<event>
 8    1  0.1099478E+005  0.1043930E+01  0.7957747E-01            NaN
         13   -1    0    0    0    0  0.00000000000E+00  0.00000000000E+00  0.74505805969E-08  0.10566000000E+00  0.10566000000E+00 0.  1.
     999900   -1    0    0    0    0 -0.00000000000E+00 -0.00000000000E+00 -0.74505805969E-08  0.93827000000E+00  0.93827000000E+00 0. -1.
     999902    2    1    2    0    0 -0.15869670666E-01 -0.11571359257E-01  0.12695102414E-01  0.10205439266E+01  0.10202759420E+01 0.  0.
     999903    2    3    3    0    0  0.62946765247E-01  0.91124211399E-01 -0.58836184227E-01  0.12820142750E+00  0.26608124314E-01 0.  0.
         14    1    1    2    0    0  0.15869670666E-01  0.11571359257E-01 -0.12695102414E-01  0.23386073364E-01  0.00000000000E+00 0. -1.
     999901    1    3    3    0    0 -0.78816435912E-01 -0.10269557066E+00  0.71531286641E-01  0.89234249914E+00  0.88000000000E+00 0.  1.
        -11    1    4    4    0    0  0.41281452784E-01  0.70248264153E-01 -0.53932830587E-01  0.97713808117E-01  0.51100000000E-03 0. -1.
         11    1    4    4    0    0  0.21665312463E-01  0.20875947246E-01 -0.49033536402E-02  0.30487619380E-01  0.51100000000E-03 0.  1.
</event>
<event>
 8    1  0.1099478E+005  0.1043930E+01  0.7957747E-01            NaN
         13   -1    0    0    0    0  0.00000000000E+00  0.00000000000E+00  0.74505805969E-08  0.10566000000E+00  0.10566000000E+00 0.  1.
     999900   -1    0    0    0    0 -0.00000000000E+00 -0.00000000000E+00 -0.74505805969E-08  0.93827000000E+00  0.93827000000E+00 0. -1.
     999902    2    1    2    0    0 -0.17962071136E-01 -0.14532378063E-01 -0.79368397690E-02  0.10195001118E+01  0.10192073678E+01 0.  0.
     999903    2    3    3    0    0  0.43505346753E-01  0.11775400608E+00 -0.98206222873E-02  0.12749031392E+00  0.19965329349E-01 0.  0.
         14    1    1    2    0    0  0.17962071136E-01  0.14532378063E-01  0.79368397690E-02  0.24429888194E-01  0.00000000000E+00 0. -1.
     999901    1    3    3    0    0 -0.61467417889E-01 -0.13228638415E+00  0.18837825183E-02  0.89200979789E+00  0.88000000000E+00 0. -1.
        -11    1    4    4    0    0  0.61689329897E-02  0.36191086850E-01 -0.89081643672E-02  0.37781834458E-01  0.51100000000E-03 0.  1.
         11    1    4    4    0    0  0.37336413763E-01  0.81562919233E-01 -0.91245792009E-03  0.89708479459E-01  0.51100000000E-03 0. -1.
</event>
<event>
 8    1  0.1099478E+005  0.1043930E+01  0.7957747E-01            NaN
         13   -1    0    0    0    0  0.00000000000E+00  0.00000000000E+00  0.74505805969E-08  0.10566000000E+00  0.10566000000E+00 0. -1.
     999900   -1    0    0    0    0 -0.00000000000E+00 -0.00000000000E+00 -0.74505805969E-08  0.93827000000E+00  0.93827000000E+00 0.  1.
     999902    2    1    2    0    0 -0.21926197749E-01 -0.79428907616E-03 -0.97409103753E-02  0.10199242845E+01  0.10196417369E+01 0.  0.
     999903    2    3    3    0    0 -0.54229714163E-01 -0.92546650239E-01  0.72106247935E-01  0.13078932831E+00  0.20019816187E-01 0.  0.
         14    1    1    2    0    0  0.21926197749E-01  0.79428907616E-03  0.97409103753E-02  0.24005715523E-01  0.00000000000E+00 0. -1.
     999901    1    3    3    0    0  0.32303516414E-01  0.91752361163E-01 -0.81847158311E-01  0.88913495617E+00  0.88000000000E+00 0.  1.
        -11    1    4    4    0    0 -0.74249228869E-02 -0.23052790990E-01  0.24350949613E-01  0.34348078845E-01  0.51100000000E-03 0.  1.
         11    1    4    4    0    0 -0.46804791276E-01 -0.69493859249E-01  0.47755298322E-01  0.96441249466E-01  0.51100000000E-03 0. -1.
</event>
<event>
 8    1  0.1099478E+005  0.1043930E+01  0.7957747E-01            NaN
         13   -1    0    0    0    0  0.00000000000E+00  0.00000000000E+00  0.74505805969E-08  0.10566000000E+00  0.10566000000E+00 0.  1.
     999900   -1    0    0    0    0 -0.00000000000E+00 -0.00000000000E+00 -0.74505805969E-08  0.93827000000E+00  0.93827000000E+00 0. -1.
     999902    2    1    2    0    0 -0.12736530183E-01 -0.20096918467E-01  0.34054509489E-02  0.10198945589E+01  0.10196113028E+01 0.  0.
     999903    2    3    3    0    0 -0.16541967691E-02  0.96504884610E-01  0.83021560522E-01  0.12857109152E+00  0.17944830494E-01 0.  0.
         14    1    1    2    0    0  0.12736530183E-01  0.20096918467E-01 -0.34054509489E-02  0.24035441106E-01  0.00000000000E+00 0.  1.
     999901    1    3    3    0    0 -0.11082333414E-01 -0.11660180308E+00 -0.79616109573E-01  0.89132346738E+00  0.88000000000E+00 0. -1.
        -11    1    4    4    0    0 -0.91982178200E-02  0.51775888472E-01  0.40265927007E-01  0.66234098747E-01  0.51100000000E-03 0. -1.
         11    1    4    4    0    0  0.75440210510E-02  0.44728996139E-01  0.42755633515E-01  0.62336992769E-01  0.51100000000E-03 0.  1.
</event>
<event>
 8    1  0.1099478E+005  0.1043930E+01  0.7957747E-01            NaN
         13   -1    0    0    0    0  0.00000000000E+00  0.00000000000E+00  0.74505805969E-08  0.10566000000E+00  0.10566000000E+00 0.  1.
     999900   -1    0    0    0    0 -0.00000000000E+00 -0.00000000000E+00 -0.74505805969E-08  0.93827000000E+00  0.93827000000E+00 0. -1.
     999902    2    1    2    0    0  0.10668211100E-01 -0.17823049542E-01 -0.10094975216E-01  0.10208349714E+01  0.10205736908E+01 0.  0.
     999903    2    3    3    0    0  0.96525231834E-01  0.72673224643E-01 -0.47577428944E-01  0.13124746134E+00  0.19072661151E-01 0.  0.
         14    1    1    2    0    0 -0.10668211100E-01  0.17823049542E-01  0.10094975216E-01  0.23095028635E-01  0.00000000000E+00 0. -1.
     999901    1    3    3    0    0 -0.85857020734E-01 -0.90496274185E-01  0.37482453728E-01  0.88958751002E+00  0.88000000000E+00 0.  1.
        -11    1    4    4    0    0  0.19189242457E-01  0.10802455880E-01 -0.16242243873E-01  0.27367712476E-01  0.51100000000E-03 0. -1.
         11    1    4    4    0    0  0.77335989377E-01  0.61870768763E-01 -0.31335185070E-01  0.10387974887E+00  0.51100000000E-03 0.  1.
</event>
<event>
 8    1  0.1099478E+005  0.1043930E+01  0.7957747E-01            NaN
         13   -1    0    0    0    0  0.00000000000E+00  0.00000000000E+00  0.74505805969E-08  0.10566000000E+00  0.10566000000E+00 0.  1.
     999900   -1    0    0    0    0 -0.00000000000E+00 -0.00000000000E+00 -0.74505805969E-08  0.93827000000E+00  0.93827000000E+00 0. -1.
     999902    2    1    2    0    0 -0.12609004940E-01 -0.20347531311E-01 -0.33540813441E-02  0.10197585520E+01  0.10194720425E+01 0.  0.
     999903    2    3    3    0    0 -0.62554089321E-01  0.11100975411E+00 -0.17917581258E-02  0.12860666331E+00  0.17328700258E-01 0.  0.
         14    1    1    2    0    0  0.12609004940E-01  0.20347531311E-01  0.33540813441E-02  0.24171447985E-01  0.00000000000E+00 0.  1.
     999901    1    3    3    0    0  0.49945084382E-01 -0.13135728542E+00 -0.15623232184E-02  0.89115188870E+00  0.88000000000E+00 0.  1.
        -11    1    4    4    0    0 -0.54130989228E-01  0.81383375246E-01 -0.28387232168E-02  0.97784135890E-01  0.51100000000E-03 0. -1.
         11    1    4    4    0    0 -0.84231000933E-02  0.29626378863E-01  0.10469650911E-02  0.30822527421E-01  0.51100000000E-03 0.  1.
</event>
<event>
 8    1  0.1099478E+005  0.1043930E+01  0.7957747E-01            NaN
         13   -1    0    0    0    0  0.00000000000E+00  0.00000000000E+00  0.74505805969E-08  0.10566000000E+00  0.10566000000E+00 0. -1.
     999900   -1    0    0    0    0 -0.00000000000E+00 -0.00000000000E+00 -0.74505805969E-08  0.93827000000E+00  0.93827000000E+00 0.  1.
     999902    2    1    2    0    0 -0.12708040940E-01  0.35618404459E-02  0.20383481842E-01  0.10196469330E+01  0.10193577393E+01 0.  0.
     999903    2    3    3    0    0 -0.84291077701E-02 -0.59452945713E-01 -0.11108486152E+00  0.12764183330E+00  0.18624943971E-01 0.  0.
         14    1    1    2    0    0  0.12708040940E-01 -0.35618404459E-02 -0.20383481842E-01  0.24283067020E-01  0.00000000000E+00 0.  1.
     999901    1    3    3    0    0 -0.42789331700E-02  0.63014786159E-01  0.13146834336E+00  0.89200509968E+00  0.88000000000E+00 0. -1.
        -11    1    4    4    0    0  0.43944606785E-02 -0.28224974878E-01 -0.59295326504E-01  0.65819126078E-01  0.51100000000E-03 0. -1.
         11    1    4    4    0    0 -0.12823568449E-01 -0.31227970835E-01 -0.51789535018E-01  0.61822707225E-01  0.51100000000E-03 0.  1.
</event>
<event>
 8    1  0.1099478E+005  0.1043930E+01  0.7957747E-01            NaN
         13   -1    0    0    0    0  0.00000000000E+00  0.00000000000E+00  0.74505805969E-08  0.10566000000E+00  0.10566000000E+00 0.  1.
     999900   -1    0    0    0    0 -0.00000000000E+00 -0.00000000000E+00 -0.74505805969E-08  0.93827000000E+00  0.93827000000E+00 0. -1.
     999902    2    1    2    0    0 -0.67091321697E-02  0.18639229753E-01  0.13924097866E-01  0.10197160817E+01  0.10194285523E+01 0.  0.
     999903    2    3    3    0    0  0.10018815208E+00 -0.83988087230E-02 -0.76977114546E-01  0.12818867584E+00  0.19966337763E-01 0.  0.
         14    1    1    2    0    0  0.67091321697E-02 -0.18639229753E-01 -0.13924097866E-01  0.24213918345E-01  0.00000000000E+00 0.  1.
     999901    1    3    3    0    0 -0.10689728425E+00  0.27038038476E-01  0.90901212413E-01  0.89152740582E+00  0.88000000000E+00 0.  1.
        -11    1    4    4    0    0  0.67294717503E-01  0.87005460577E-03 -0.59348032501E-01  0.89731745116E-01  0.51100000000E-03 0. -1.
         11    1    4    4    0    0  0.32893434578E-01 -0.92688633287E-02 -0.17629082045E-01  0.38456930721E-01  0.51100000000E-03 0.  1.
</event>
<event>
 8    1  0.1099478E+005  0.1043930E+01  0.7957747E-01            NaN
         13   -1    0    0    0    0  0.00000000000E+00  0.00000000000E+00  0.74505805969E-08  0.10566000000E+00  0.10566000000E+00 0. -1.
     999900   -1    0    0    0    0 -0.00000000000E+00 -0.00000000000E+00 -0.74505805969E-08  0.93827000000E+00  0.93827000000E+00 0.  1.
     999902    2    1    2    0    0 -0.67125397666E-02 -0.84100079057E-02  0.19869242688E-01  0.10213341325E+01  0.10210841478E+01 0.  0.
     999903    2    3    3    0    0 -0.42527618105E-01  0.34784692886E-01 -0.11470557496E+00  0.12933700047E+00  0.23497182839E-01 0.  0.
         14    1    1    2    0    0  0.67125397666E-02  0.84100079057E-02 -0.19869242688E-01  0.22595867500E-01  0.00000000000E+00 0.  1.
     999901    1    3    3    0    0  0.35815078338E-01 -0.43194700791E-01  0.13457481765E+00  0.89199713203E+00  0.88000000000E+00 0. -1.
        -11    1    4    4    0    0 -0.89902557737E-02  0.10949725144E-01 -0.11579011649E-01  0.18304529805E-01  0.51100000000E-03 0. -1.
         11    1    4    4    0    0 -0.33537362331E-01  0.23834967742E-01 -0.10312656331E+00  0.11103247066E+00  0.51100000000E-03 0.  1.
</event>
<event>
 8    1  0.1099478E+005  0.1043930E+01  0.7957747E-01            NaN
         13   -1    0    0    0    0  0.00000000000E+00  0.00000000000E+00  0.74505805969E-08  0.10566000000E+00  0.10566000000E+00 0.  1.
     999900   -1    0    0    0    0 -0.00000000000E+00 -0.00000000000E+00 -0.74505805969E-08  0.93827000000E+00  0.93827000000E+00 0.  1.
     999902    2    1    2    0    0  0.24403345482E-01  0.12179923337E-01 -0.37309761558E-02  0.10164019418E+01  0.10160290908E+01 0.  0.
     999903    2    3    3    0    0 -0.10157718712E+00  0.70295309907E-01 -0.11165331202E-01  0.12550140733E+00  0.19146359540E-01 0.  0.
         14    1    1    2    0    0 -0.24403345482E-01 -0.12179923337E-01  0.37309761558E-02  0.27528058164E-01  0.00000000000E+00 0.  1.
     999901    1    3    3    0    0  0.12598053260E+00 -0.58115386570E-01  0.74343550464E-02  0.89090053451E+00  0.88000000000E+00 0.  1.
        -11    1    4    4    0    0 -0.39371161021E-01  0.16243631001E-01 -0.37265673520E-02  0.42756195966E-01  0.51100000000E-03 0. -1.
         11    1    4    4    0    0 -0.62206026094E-01  0.54051678905E-01 -0.74387638502E-02  0.82745211363E-01  0.51100000000E-03 0.  1.
</event>
<event>
 8    1  0.1099478E+005  0.1043930E+01  0.7957747E-01            NaN
         13   -1    0    0    0    0  0.00000000000E+00  0.00000000000E+00  0.74505805969E-08  0.10566000000E+00  0.10566000000E+00 0.  1.
     999900   -1    0    0    0    0 -0.00000000000E+00 -0.00000000000E+00 -0.74505805969E-08  0.93827000000E+00  0.93827000000E+00 0.  1.
     999902    2    1    2    0    0 -0.33947710717E-02  0.97353345171E-02 -0.21592477978E-01  0.10200022689E+01  0.10197215759E+01 0.  0.
     999903    2    3    3    0    0 -0.12151518497E+00 -0.42684018961E-01 -0.24215395418E-02  0.13035753890E+00  0.19983954583E-01 0.  0.
         14    1    1    2    0    0  0.33947710717E-02 -0.97353345171E-02  0.21592477978E-01  0.23927731067E-01  0.00000000000E+00 0.  1.
     999901    1    3    3    0    0  0.11812041390E+00  0.52419353478E-01 -0.19170938436E-01  0.88964473004E+00  0.88000000000E+00 0.  1.
        -11    1    4    4    0    0 -0.79582414405E-01 -0.18971389505E-01  0.30577566738E-02  0.81871150591E-01  0.51100000000E-03 0. -1.
         11    1    4    4    0    0 -0.41932770565E-01 -0.23712629456E-01 -0.54792962157E-02  0.48486388307E-01  0.51100000000E-03 0.  1.
</event>
<event>
 8    1  0.1099478E+005  0.1043930E+01  0.7957747E-01            NaN
         13   -1    0    0    0    0  0.00000000000E+00  0.00000000000E+00  0.74505805969E-08  0.10566000000E+00  0.10566000000E+00 0. -1.
     999900   -1    0    0    0    0 -0.00000000000E+00 -0.00000000000E+00 -0.74505805969E-08  0.93827000000E+00  0.93827000000E+00 0.  1.
     999902    2    1    2    0    0 -0.10548361363E-01 -0.87002214840E-02  0.21609890455E-01  0.10183575706E+01  0.10180364396E+01 0.  0.
     999903    2    3    3    0    0 -0.25989802367E-02 -0.95735406962E-01  0.87724308654E-01  0.13156028119E+00  0.20988816362E-01 0.  0.
         14    1    1    2    0    0  0.10548361363E-01  0.87002214840E-02 -0.21609890455E-01  0.25572429427E-01  0.00000000000E+00 0.  1.
     999901    1    3    3    0    0 -0.79493811260E-02  0.87035185478E-01 -0.66114418200E-01  0.88679728939E+00  0.88000000000E+00 0.  1.
        -11    1    4    4    0    0  0.91413710169E-03 -0.68422932070E-01  0.49546550398E-01  0.84484643913E-01  0.51100000000E-03 0. -1.
         11    1    4    4    0    0 -0.35131173384E-02 -0.27312474892E-01  0.38177758257E-01  0.47075637273E-01  0.51100000000E-03 0.  1.
</event>
<event>
 8    1  0.1099478E+005  0.1043930E+01  0.7957747E-01            NaN
         13   -1    0    0    0    0  0.00000000000E+00  0.00000000000E+00  0.74505805969E-08  0.10566000000E+00  0.10566000000E+00 0. -1.
     999900   -1    0    0    0    0 -0.00000000000E+00 -0.00000000000E+00 -0.74505805969E-08  0.93827000000E+00  0.93827000000E+00 0.  1.
     999902    2    1    2    0    0 -0.48095489084E-02 -0.17122404974E-01 -0.14040373741E-01  0.10212707721E+01  0.10210193678E+01 0.  0.
     999903    2    3    3    0    0 -0.68021126916E-01  0.76712303301E-01  0.76339054307E-01  0.12943609178E+00  0.20356803699E-01 0.  0.
         14    1    1    2    0    0  0.48095489084E-02  0.17122404974E-01  0.14040373741E-01  0.22659227869E-01  0.00000000000E+00 0. -1.
     999901    1    3    3    0    0  0.63211578008E-01 -0.93834708275E-01 -0.90379428049E-01  0.89183468036E+00  0.88000000000E+00 0. -1.
        -11    1    4    4    0    0 -0.19135508263E-01  0.13241253874E-01  0.25623250773E-01  0.34616622912E-01  0.51100000000E-03 0.  1.
         11    1    4    4    0    0 -0.48885618653E-01  0.63471049427E-01  0.50715803534E-01  0.94819468864E-01  0.51100000000E-03 0. -1.
</event>
<event>
 8    1  0.1099478E+005  0.1043930E+01  0.7957747E-01            NaN
         13   -1    0    0    0    0  0.00000000000E+00  0.00000000000E+00  0.74505805969E-08  0.10566000000E+00  0.10566000000E+00 0. -1.
     999900   -1    0    0    0    0 -0.00000000000E+00 -0.00000000000E+00 -0.74505805969E-08  0.93827000000E+00  0.93827000000E+00 0. -1.
     999902    2    1    2    0    0  0.11658535881E-01 -0.39935348370E-02 -0.19928449202E-01  0.10204989764E+01  0.10202299486E+01 0.  0.
     999903    2    3    3    0    0 -0.47227848914E-01 -0.77319176858E-01  0.89224580558E-01  0.12878229494E+00  0.20374712035E-01 0.  0.
         14    1    1    2    0    0 -0.11658535881E-01  0.39935348370E-02  0.19928449202E-01  0.23431023601E-01  0.00000000000E+00 0. -1.
     999901    1    3    3    0    0  0.58886384794E-01  0.73325642021E-01 -0.10915302976E+00  0.89171668146E+00  0.88000000000E+00 0. -1.
        -11    1    4    4    0    0 -0.20230195398E-01 -0.29518969406E-01  0.22087921851E-01  0.42056720905E-01  0.51100000000E-03 0. -1.
         11    1    4    4    0    0 -0.26997653516E-01 -0.47800207452E-01  0.67136658707E-01  0.86725574032E-01  0.51100000000E-03 0.  1.
</event>
<event>
 8    1  0.1099478E+005  0.1043930E+01  0.7957747E-01            NaN
         13   -1    0    0    0    0  0.00000000000E+00  0.00000000000E+00  0.74505805969E-08  0.10566000000E+00  0.10566000000E+00 0.  1.
     999900   -1    0    0    0    0 -0.00000000000E+00 -0.00000000000E+00 -0.74505805969E-08  0.93827000000E+00  0.93827000000E+00 0.  1.
     999902    2    1    2    0    0  0.63491386206E-02 -0.16602767370E-01 -0.10625857678E-01  0.10232207678E+01  0.10230111766E+01 0.  0.
     999903    2    3    3    0    0 -0.11224441309E+00 -0.26958395436E-01 -0.64118750494E-01  0.13359547642E+00  0.20272488753E-01 0.  0.
         14    1    1    2    0    0 -0.63491386206E-02  0.16602767370E-01  0.10625857678E-01  0.20709232167E-01  0.00000000000E+00 0.  1.
     999901    1    3    3    0    0  0.11859355171E+00  0.10355628066E-01  0.53492892816E-01  0.88962529141E+00  0.88000000000E+00 0.  1.
        -11    1    4    4    0    0 -0.84100780710E-01 -0.26036192483E-01 -0.55781013240E-01  0.10422383218E+00  0.51100000000E-03 0.  1.
         11    1    4    4    0    0 -0.28143632381E-01 -0.92220295326E-03 -0.83377372547E-02  0.29371644241E-01  0.51100000000E-03 0. -1.
</event>
<event>
 8    1  0.1099478E+005  0.1043930E+01  0.7957747E-01            NaN
         13   -1    0    0    0    0  0.00000000000E+00  0.00000000000E+00  0.74505805969E-08  0.10566000000E+00  0.10566000000E+00 0.  1.
     999900   -1    0    0    0    0 -0.00000000000E+00 -0.00000000000E+00 -0.74505805969E-08  0.93827000000E+00  0.93827000000E+00 0.  1.
     999902    2    1    2    0    0  0.14618969676E-01 -0.19493814009E-01  0.51815200625E-02  0.10190187333E+01  0.10187141933E+01 0.  0.
     999903    2    3    3    0    0  0.10651081519E-01  0.12383780191E+00 -0.18341009566E-01  0.12710337539E+00  0.19225729731E-01 0.  0.
         14    1    1    2    0    0 -0.14618969676E-01  0.19493814009E-01 -0.51815200625E-02  0.24911266711E-01  0.00000000000E+00 0. -1.
     999901    1    3    3    0    0  0.39678881573E-02 -0.14333161592E+00  0.23522529629E-01  0.89191535790E+00  0.88000000000E+00 0. -1.
        -11    1    4    4    0    0  0.10668299484E-02  0.14100471528E-01 -0.85039163354E-02  0.16508759417E-01  0.51100000000E-03 0. -1.
         11    1    4    4    0    0  0.95842515705E-02  0.10973733038E+00 -0.98370932307E-02  0.11059461597E+00  0.51100000000E-03 0.  1.
</event>
<event>
 8    1  0.1099478E+005  0.1043930E+01  0.7957747E-01            NaN
         13   -1    0    0    0    0  0.00000000000E+00  0.00000000000E+00  0.74505805969E-08  0.10566000000E+00  0.10566000000E+00 0. -1.
     999900   -1    0    0    0    0 -0.00000000000E+00 -0.00000000000E+00 -0.74505805969E-08  0.93827000000E+00  0.93827000000E+00 0.  1.
     999902    2    1    2    0    0 -0.18143602225E-01  0.21248191512E-01  0.80924457887E-02  0.10148411083E+01  0.10144241280E+01 0.  0.
     999903    2    3    3    0    0  0.11711827169E+00  0.33313151136E-01 -0.15327773547E-01  0.12411677129E+00  0.18535821326E-01 0.  0.
         14    1    1    2    0    0  0.18143602225E-01 -0.21248191512E-01 -0.80924457887E-02  0.29088891747E-01  0.00000000000E+00 0.  1.
     999901    1    3    3    0    0 -0.13526187391E+00 -0.12064959624E-01  0.23420219336E-01  0.89072433696E+00  0.88000000000E+00 0.  1.
        -11    1    4    4    0    0  0.59213063243E-01  0.13953277428E-01  0.12444483656E-02  0.60849737734E-01  0.51100000000E-03 0. -1.
         11    1    4    4    0    0  0.57905208443E-01  0.19359873708E-01 -0.16572221913E-01  0.63267033556E-01  0.51100000000E-03 0.  1.
</event>
<event>
 8    1  0.1099478E+005  0.1043930E+01  0.7957747E-01            NaN
         13   -1    0    0    0    0  0.00000000000E+00  0.00000000000E+00  0.74505805969E-08  0.10566000000E+00  0.10566000000E+00 0.  1.
     999900   -1    0    0    0    0 -0.00000000000E+00 -0.00000000000E+00 -0.74505805969E-08  0.93827000000E+00  0.93827000000E+00 0.  1.
     999902    2    1    2    0    0 -0.21963488683E-01  0.92352677090E-02 -0.46943666557E-02  0.10196458059E+01  0.10193565850E+01 0.  0.
     999903    2    3    3    0    0 -0.56114215204E-01  0.61621374985E-01  0.99426061112E-01  0.13130373224E+00  0.20226949069E-01 0.  0.
         14    1    1    2    0    0  0.21963488683E-01 -0.92352677090E-02  0.46943666557E-02  0.24284194100E-01  0.00000000000E+00 0.  1.
     999901    1    3    3    0    0  0.34150726521E-01 -0.52386107276E-01 -0.10412042777E+00  0.88834207366E+00  0.88000000000E+00 0.  1.
        -11    1    4    4    0    0 -0.30767383397E-01  0.18997286724E-01  0.42625740398E-01  0.55899406522E-01  0.51100000000E-03 0. -1.
         11    1    4    4    0    0 -0.25346831808E-01  0.42624088260E-01  0.56800320714E-01  0.75404325717E-01  0.51100000000E-03 0.  1.
</event>
<event>
 8    1  0.1099478E+005  0.1043930E+01  0.7957747E-01            NaN
         13   -1    0    0    0    0  0.00000000000E+00  0.00000000000E+00  0.74505805969E-08  0.10566000000E+00  0.10566000000E+00 0. -1.
     999900   -1    0    0    0    0 -0.00000000000E+00 -0.00000000000E+00 -0.74505805969E-08  0.93827000000E+00  0.93827000000E+00 0. -1.
     999902    2    1    2    0    0 -0.82543291954E-02  0.27448127811E-02  0.25571646027E-01  0.10169193164E+01  0.10165605339E+01 0.  0.
     999903    2    3    3    0    0 -0.33929187739E-01 -0.27045076921E-01  0.12172306262E+00  0.13080886573E+00  0.20293580552E-01 0.  0.
         14    1    1    2    0    0  0.82543291954E-02 -0.27448127811E-02 -0.25571646027E-01  0.27010683594E-01  0.00000000000E+00 0.  1.
     999901    1    3    3    0    0  0.25674858543E-01  0.29789889702E-01 -0.96151416597E-01  0.88611045068E+00  0.88000000000E+00 0. -1.
        -11    1    4    4    0    0 -0.17541321142E-01 -0.15071052661E-01  0.36593776694E-01  0.43292033787E-01  0.51100000000E-03 0.  1.
         11    1    4    4    0    0 -0.16387866596E-01 -0.11974024261E-01  0.85129285931E-01  0.87516831939E-01  0.51100000000E-03 0. -1.
</event>
<event>
 8    1  0.1099478E+005  0.1043930E+01  0.7957747E-01            NaN
         13   -1    0    0    0    0  0.00000000000E+00  0.00000000000E+00  0.74505805969E-08  0.10566000000E+00  0.10566000000E+00 0. -1.
     999900   -1    0    0    0    0 -0.00000000000E+00 -0.00000000000E+00 -0.74505805969E-08  0.93827000000E+00  0.93827000000E+00 0. -1.
     999902    2    1    2    0    0 -0.12177039487E-01 -0.20330889361E-01  0.39469435228E-02  0.10199049357E+01  0.10196219270E+01 0.  0.
     999903    2    3    3    0    0  0.77891528986E-01 -0.68674407092E-01 -0.76663556656E-01  0.13032779148E+00  0.18021316118E-01 0.  0.
         14    1    1    2    0    0  0.12177039487E-01  0.20330889361E-01 -0.39469435228E-02  0.24025064330E-01  0.00000000000E+00 0.  1.
     999901    1    3    3    0    0 -0.90068568473E-01  0.48343517732E-01  0.80610500179E-01  0.88957714419E+00  0.88000000000E+00 0. -1.
        -11    1    4    4    0    0  0.11147686772E-01 -0.19577628637E-01 -0.16687235202E-01  0.28040674085E-01  0.51100000000E-03 0. -1.
         11    1    4    4    0    0  0.66743842214E-01 -0.49096778455E-01 -0.59976321454E-01  0.10228711739E+00  0.51100000000E-03 0.  1.
</event>
<event>
 8    1  0.1099478E+005  0.1043930E+01  0.7957747E-01            NaN
         13   -1    0    0    0    0  0.00000000000E+00  0.00000000000E+00  0.74505805969E-08  0.10566000000E+00  0.10566000000E+00 0.  1.
     999900   -1    0    0    0    0 -0.00000000000E+00 -0.00000000000E+00 -0.74505805969E-08  0.93827000000E+00  0.93827000000E+00 0. -1.
     999902    2    1    2    0    0  0.24290056087E-01  0.37997523295E-02  0.10445424309E-01  0.10172176090E+01  0.10168668115E+01 0.  0.
     999903    2    3    3    0    0  0.87660763704E-01  0.93474055091E-01 -0.65982791292E-02  0.13022955105E+00  0.22234887274E-01 0.  0.
         14    1    1    2    0    0 -0.24290056087E-01 -0.37997523295E-02 -0.10445424309E-01  0.26712390973E-01  0.00000000000E+00 0. -1.
     999901    1    3    3    0    0 -0.63370707617E-01 -0.89674302761E-01  0.17043703438E-01  0.88698805797E+00  0.88000000000E+00 0. -1.
        -11    1    4    4    0    0  0.62225128970E-01  0.54145314484E-01  0.24556873734E-02  0.82522562232E-01  0.51100000000E-03 0.  1.
         11    1    4    4    0    0  0.25435634734E-01  0.39328740607E-01 -0.90539665026E-02  0.47706988822E-01  0.51100000000E-03 0. -1.
</event>
<event>
 8    1  0.1099478E+005  0.1043930E+01  0.7957747E-01            NaN
         13   -1    0    0    0    0  0.00000000000E+00  0.00000000000E+00  0.74505805969E-08  0.10566000000E+00  0.10566000000E+00 0. -1.
     999900   -1    0    0    0    0 -0.00000000000E+00 -0.00000000000E+00 -0.74505805969E-08  0.93827000000E+00  0.93827000000E+00 0.  1.
     999902    2    1    2    0    0  0.14114580383E-01  0.20406939406E-01  0.45610668246E-04  0.10191173694E+01  0.10188152659E+01 0.  0.
     999903    2    3    3    0    0  0.21578918594E-01 -0.75712546453E-01 -0.99206344126E-01  0.12830559221E+00  0.20552052447E-01 0.  0.
         14    1    1    2    0    0 -0.14114580383E-01 -0.20406939406E-01 -0.45610668246E-04  0.24812630567E-01  0.00000000000E+00 0.  1.
     999901    1    3    3    0    0 -0.74643382106E-02  0.96119485859E-01  0.99251954794E-01  0.89081177722E+00  0.88000000000E+00 0. -1.
        -11    1    4    4    0    0  0.13004339076E-01 -0.35408950427E-01 -0.63097076852E-01  0.73514684475E-01  0.51100000000E-03 0. -1.
         11    1    4    4    0    0  0.85745795179E-02 -0.40303596026E-01 -0.36109267274E-01  0.54790907737E-01  0.51100000000E-03 0.  1.
</event>
<event>
 8    1  0.1099478E+005  0.1043930E+01  0.7957747E-01            NaN
         13   -1    0    0    0    0  0.00000000000E+00  0.00000000000E+00  0.74505805969E-08  0.10566000000E+00  0.10566000000E+00 0. -1.
     999900   -1    0    0    0    0 -0.00000000000E+00 -0.00000000000E+00 -0.74505805969E-08  0.93827000000E+00  0.93827000000E+00 0.  1.
     999902    2    1    2    0    0  0.41725379142E-02 -0.21609640063E-01  0.82224856902E-02  0.10204354073E+01  0.10201649007E+01 0.  0.
     999903    2    3    3    0    0 -0.12525722416E+00  0.26716383617E-01 -0.26000042033E-02  0.12959053068E+00  0.19591024992E-01 0.  0.
         14    1    1    2    0    0 -0.41725379142E-02  0.21609640063E-01 -0.82224856902E-02  0.23494592723E-01  0.00000000000E+00 0.  1.
     999901    1    3    3    0    0  0.12942976208E+00 -0.48326023680E-01  0.10822489893E-01  0.89084487660E+00  0.88000000000E+00 0. -1.
        -11    1    4    4    0    0 -0.31472593629E-01 -0.90415681315E-03  0.31879774910E-02  0.31650686735E-01  0.51100000000E-03 0.  1.
         11    1    4    4    0    0 -0.93784630536E-01  0.27620540430E-01 -0.57879816943E-02  0.97939843943E-01  0.51100000000E-03 0. -1.
</event>
<event>
 8    1  0.1099478E+005  0.1043930E+01  0.7957747E-01            NaN
         13   -1    0    0    0    0  0.00000000000E+00  0.00000000000E+00  0.74505805969E-08  0.10566000000E+00  0.10566000000E+00 0.  1.
     999900   -1    0    0    0    0 -0.00000000000E+00 -0.00000000000E+00 -0.74505805969E-08  0.93827000000E+00  0.93827000000E+00 0.  1.
     999902    2    1    2    0    0 -0.21520081543E-01  0.96512097670E-02 -0.44546390893E-02  0.10199278424E+01  0.10196453796E+01 0.  0.
     999903    2    3    3    0    0  0.79441816219E-01  0.37615951478E-01  0.91598027976E-01  0.12852364317E+00  0.20054080727E-01 0.  0.
         14    1    1    2    0    0  0.21520081543E-01 -0.96512097670E-02  0.44546390893E-02  0.24002157590E-01  0.00000000000E+00 0. -1.
     999901    1    3    3    0    0 -0.10096189776E+00 -0.27964741711E-01 -0.96052667065E-01  0.89140419924E+00  0.88000000000E+00 0.  1.
        -11    1    4    4    0    0  0.47560837584E-01  0.32390301992E-01  0.63609755855E-01  0.85776611589E-01  0.51100000000E-03 0. -1.
         11    1    4    4    0    0  0.31880978636E-01  0.52256494861E-02  0.27988272121E-01  0.42747031577E-01  0.51100000000E-03 0.  1.
</event>
<event>
 8    1  0.1099478E+005  0.1043930E+01  0.7957747E-01            NaN
         13   -1    0    0    0    0  0.00000000000E+00  0.00000000000E+00  0.74505805969E-08  0.10566000000E+00  0.10566000000E+00 0. -1.
     999900   -1    0    0    0    0 -0.00000000000E+00 -0.00000000000E+00 -0.74505805969E-08  0.93827000000E+00  0.93827000000E+00 0.  1.
     999902    2    1    2    0    0  0.23086035190E-01  0.10227997944E-02 -0.72059447548E-03  0.10208100866E+01  0.10205482362E+01 0.  0.
     999903    2    3    3    0    0  0.30714342283E-01  0.12648450011E+00  0.43088953018E-02  0.13186457358E+00  0.20688151091E-01 0.  0.
         14    1    1    2    0    0 -0.23086035190E-01 -0.10227997944E-02  0.72059447548E-03  0.23119913421E-01  0.00000000000E+00 0.  1.
     999901    1    3    3    0    0 -0.76283070926E-02 -0.12546170032E+00 -0.50294897773E-02  0.88894551300E+00  0.88000000000E+00 0.  1.
        -11    1    4    4    0    0  0.22183919321E-01  0.11634976926E+00  0.24007365028E-02  0.11847117684E+00  0.51100000000E-03 0.  1.
         11    1    4    4    0    0  0.85304229613E-02  0.10134730848E-01  0.19081587989E-02  0.13393396741E-01  0.51100000000E-03 0. -1.
</event>
<event>
 8    1  0.1099478E+005  0.1043930E+01  0.7957747E-01            NaN
         13   -1    0    0    0    0  0.00000000000E+00  0.00000000000E+00  0.74505805969E-08  0.10566000000E+00  0.10566000000E+00 0.  1.
     999900   -1    0    0    0    0 -0.00000000000E+00 -0.00000000000E+00 -0.74505805969E-08  0.93827000000E+00  0.93827000000E+00 0.  1.
     999902    2    1    2    0    0  0.51782456654E-02 -0.21815004275E-01 -0.91272827472E-02  0.10197222341E+01  0.10194348526E+01 0.  0.
     999903    2    3    3    0    0  0.77847193728E-01  0.98419074714E-01  0.17545851459E-01  0.12817948927E+00  0.19381040412E-01 0.  0.
         14    1    1    2    0    0 -0.51782456654E-02  0.21815004275E-01  0.91272827472E-02  0.24207765904E-01  0.00000000000E+00 0.  1.
     999901    1    3    3    0    0 -0.72668948062E-01 -0.12023407899E+00 -0.26673134206E-01  0.89154274483E+00  0.88000000000E+00 0.  1.
        -11    1    4    4    0    0  0.20391236909E-01  0.23785533670E-01  0.12870581055E-01  0.33874284233E-01  0.51100000000E-03 0. -1.
         11    1    4    4    0    0  0.57455956819E-01  0.74633541044E-01  0.46752704034E-02  0.94305205037E-01  0.51100000000E-03 0.  1.
</event>
<event>
 8    1  0.1099478E+005  0.1043930E+01  0.7957747E-01            NaN
         13   -1    0    0    0    0  0.00000000000E+00  0.00000000000E+00  0.74505805969E-08  0.10566000000E+00  0.10566000000E+00 0.  1.
     999900   -1    0    0    0    0 -0.00000000000E+00 -0.00000000000E+00 -0.74505805969E-08  0.93827000000E+00  0.93827000000E+00 0. -1.
     999902    2    1    2    0    0 -0.34861710029E-02  0.23128017949E-01  0.41362872229E-02  0.10201777901E+01  0.10199012481E+01 0.  0.
     999903    2    3    3    0    0  0.12446271596E+00  0.18454792184E-01  0.29648834975E-01  0.13054660428E+00  0.18215802333E-01 0.  0.
         14    1    1    2    0    0  0.34861710029E-02 -0.23128017949E-01 -0.41362872229E-02  0.23752209886E-01  0.00000000000E+00 0.  1.
     999901    1    3    3    0    0 -0.12794888696E+00  0.46732257643E-02 -0.25512547752E-01  0.88963118583E+00  0.88000000000E+00 0. -1.
        -11    1    4    4    0    0  0.31861667608E-01  0.12848874664E-01  0.75244893632E-02  0.35172979744E-01  0.51100000000E-03 0. -1.
         11    1    4    4    0    0  0.92601048354E-01  0.56059175204E-02  0.22124345611E-01  0.95373624537E-01  0.51100000000E-03 0.  1.
</event>
<event>
 8    1  0.1099478E+005  0.1043930E+01  0.7957747E-01            NaN
         13   -1    0    0    0    0  0.00000000000E+00  0.00000000000E+00  0.74505805969E-08  0.10566000000E+00  0.10566000000E+00 0.  1.
     999900   -1    0    0    0    0 -0.00000000000E+00 -0.00000000000E+00 -0.74505805969E-08  0.93827000000E+00  0.93827000000E+00 0.  1.
     999902    2    1    2    0    0  0.17144397083E-01 -0.11895993935E-01 -0.81416955092E-02  0.10215306199E+01  0.10212850117E+01 0.  0.
     999903    2    3    3    0    0  0.21341421905E-01 -0.12150560865E+00 -0.47514448634E-01  0.13384706348E+00  0.20936674780E-01 0.  0.
         14    1    1    2    0    0 -0.17144397083E-01  0.11895993935E-01  0.81416955092E-02  0.22399380098E-01  0.00000000000E+00 0.  1.
     999901    1    3    3    0    0 -0.41970248224E-02  0.10960961471E+00  0.39372753125E-01  0.88768355642E+00  0.88000000000E+00 0. -1.
        -11    1    4    4    0    0  0.64900435746E-02 -0.16611420323E-01 -0.14163558371E-01  0.22779979313E-01  0.51100000000E-03 0.  1.
         11    1    4    4    0    0  0.14851378331E-01 -0.10489418833E+00 -0.33350890262E-01  0.11106708417E+00  0.51100000000E-03 0. -1.
</event>
<event>
 8    1  0.1099478E+005  0.1043930E+01  0.7957747E-01            NaN
         13   -1    0    0    0    0  0.00000000000E+00  0.00000000000E+00  0.74505805969E-08  0.10566000000E+00  0.10566000000E+00 0. -1.
     999900   -1    0    0    0    0 -0.00000000000E+00 -0.00000000000E+00 -0.74505805969E-08  0.93827000000E+00  0.93827000000E+00 0.  1.
     999902    2    1    2    0    0 -0.24164953377E-01 -0.39727327425E-02  0.90784151377E-03  0.10194238425E+01  0.10191292455E+01 0.  0.
     999903    2    3    3    0    0  0.38337201719E-01  0.11981173410E+00 -0.16827718446E-01  0.12838867841E+00  0.19387830525E-01 0.  0.
         14    1    1    2    0    0  0.24164953377E-01  0.39727327425E-02 -0.90784151377E-03  0.24506157458E-01  0.00000000000E+00 0. -1.
     999901    1    3    3    0    0 -0.62502155095E-01 -0.12378446685E+00  0.17735559959E-01  0.89103516413E+00  0.88000000000E+00 0.  1.
        -11    1    4    4    0    0  0.21492597180E-01  0.93938356793E-01 -0.14057095361E-01  0.97386907034E-01  0.51100000000E-03 0. -1.
         11    1    4    4    0    0  0.16844604538E-01  0.25873377311E-01 -0.27706230841E-02  0.31001771381E-01  0.51100000000E-03 0.  1.
</event>
<event>
 7    1  0.1600985E+005  0.1043930E+01  0.7957747E-01            NaN
         13   -1    0    0    0    0  0.00000000000E+00  0.00000000000E+00  0.74505805969E-08  0.10566000000E+00  0.10566000000E+00 0.  1.
     999900   -1    0    0    0    0 -0.00000000000E+00 -0.00000000000E+00 -0.74505805969E-08  0.93827000000E+00  0.93827000000E+00 0. -1.
     999903    2    1    2    0    0  0.77648862561E-01 -0.72259777576E-01 -0.13177134666E-01  0.10891675924E+00  0.20938057538E-01 0.  0.
         14    1    1    2    0    0 -0.52897933405E-02 -0.35172949424E-01  0.28221235512E-01  0.45404365633E-01  0.00000000000E+00 0.  1.
     999901    1    1    2    0    0 -0.72359069221E-01  0.10743272700E+00 -0.15044100846E-01  0.88960887512E+00  0.88000000000E+00 0.  1.
        -11    1    3    3    0    0  0.33617084734E-01 -0.20353162727E-01  0.13097278787E-02  0.39323480608E-01  0.51100000000E-03 0.  1.
         11    1    3    3    0    0  0.44031777827E-01 -0.51906614849E-01 -0.14486862545E-01  0.69593278635E-01  0.51100000000E-03 0. -1.
</event>
<event>
 8    1  0.1099478E+005  0.1043930E+01  0.7957747E-01            NaN
         13   -1    0    0    0    0  0.00000000000E+00  0.00000000000E+00  0.74505805969E-08  0.10566000000E+00  0.10566000000E+00 0. -1.
     999900   -1    0    0    0    0 -0.00000000000E+00 -0.00000000000E+00 -0.74505805969E-08  0.93827000000E+00  0.93827000000E+00 0. -1.
     999902    2    1    2    0    0 -0.12135522807E-01 -0.47921223371E-02 -0.19746241606E-01  0.10202625243E+01  0.10199879749E+01 0.  0.
     999903    2    3    3    0    0 -0.10039385039E+00 -0.40654455503E-01  0.70198790785E-01  0.13056271636E+00  0.19673401508E-01 0.  0.
         14    1    1    2    0    0  0.12135522807E-01  0.47921223371E-02  0.19746241606E-01  0.23667475739E-01  0.00000000000E+00 0. -1.
     999901    1    3    3    0    0  0.88258327583E-01  0.35862333166E-01 -0.89945032391E-01  0.88969980790E+00  0.88000000000E+00 0. -1.
        -11    1    4    4    0    0 -0.28349712648E-01 -0.33802731180E-02  0.13439517250E-01  0.31559692624E-01  0.51100000000E-03 0. -1.
         11    1    4    4    0    0 -0.72044137742E-01 -0.37274182385E-01  0.56759273535E-01  0.99003023735E-01  0.51100000000E-03 0.  1.
</event>
<event>
 8    1  0.1099478E+005  0.1043930E+01  0.7957747E-01            NaN
         13   -1    0    0    0    0  0.00000000000E+00  0.00000000000E+00  0.74505805969E-08  0.10566000000E+00  0.10566000000E+00 0.  1.
     999900   -1    0    0    0    0 -0.00000000000E+00 -0.00000000000E+00 -0.74505805969E-08  0.93827000000E+00  0.93827000000E+00 0. -1.
     999902    2    1    2    0    0  0.99185421627E-02  0.18499823240E-01  0.10706372201E-01  0.10203663130E+01  0.10200941944E+01 0.  0.
     999903    2    3    3    0    0  0.75052624195E-01 -0.84526940261E-01  0.61332720678E-01  0.13052363602E+00  0.22293875985E-01 0.  0.
         14    1    1    2    0    0 -0.99185421627E-02 -0.18499823240E-01 -0.10706372201E-01  0.23563686983E-01  0.00000000000E+00 0. -1.
     999901    1    3    3    0    0 -0.65134082032E-01  0.10302676350E+00 -0.50626348477E-01  0.88984267699E+00  0.88000000000E+00 0. -1.
        -11    1    4    4    0    0  0.16600532986E-01 -0.20416345854E-01  0.42223203714E-02  0.26655093017E-01  0.51100000000E-03 0.  1.
         11    1    4    4    0    0  0.58452091209E-01 -0.64110594407E-01  0.57110400306E-01  0.10386854301E+00  0.51100000000E-03 0. -1.
</event>
<event>
 8    1  0.1099478E+005  0.1043930E+01  0.7957747E-01            NaN
         13   -1    0    0    0    0  0.00000000000E+00  0.00000000000E+00  0.74505805969E-08  0.10566000000E+00  0.10566000000E+00 0. -1.
     999900   -1    0    0    0    0 -0.00000000000E+00 -0.00000000000E+00 -0.74505805969E-08  0.93827000000E+00  0.93827000000E+00 0.  1.
     999902    2    1    2    0    0  0.15145944959E-01 -0.43947975909E-02 -0.19202908776E-01  0.10190811449E+01  0.10187781477E+01 0.  0.
     999903    2    3    3    0    0  0.32113764383E-01  0.65386225740E-01  0.10291975001E+00  0.12774998203E+00  0.20516592962E-01 0.  0.
         14    1    1    2    0    0 -0.15145944959E-01  0.43947975909E-02  0.19202908776E-01  0.24848855105E-01  0.00000000000E+00 0. -1.
     999901    1    3    3    0    0 -0.16967819423E-01 -0.69781023331E-01 -0.12212265878E+00  0.89133116287E+00  0.88000000000E+00 0.  1.
        -11    1    4    4    0    0  0.18024010467E-02  0.25354065969E-01  0.32602492826E-01  0.41343209481E-01  0.51100000000E-03 0.  1.
         11    1    4    4    0    0  0.30311363336E-01  0.40032159771E-01  0.70317257181E-01  0.86406772546E-01  0.51100000000E-03 0. -1.
</event>
<event>
 8    1  0.1099478E+005  0.1043930E+01  0.7957747E-01            NaN
         13   -1    0    0    0    0  0.00000000000E+00  0.00000000000E+00  0.74505805969E-08  0.10566000000E+00  0.10566000000E+00 0.  1.
     999900   -1    0    0    0    0 -0.00000000000E+00 -0.00000000000E+00 -0.74505805969E-08  0.93827000000E+00  0.93827000000E+00 0.  1.
     999902    2    1    2    0    0  0.10131908426E-01 -0.10284869775E-01 -0.18368043231E-01  0.10205672278E+01  0.10202997830E+01 0.  0.
     999903    2    3    3    0    0  0.12309879613E+00  0.22083335633E-02  0.40779361981E-01  0.13128886111E+00  0.20386719753E-01 0.  0.
         14    1    1    2    0    0 -0.10131908426E-01  0.10284869775E-01  0.18368043231E-01  0.23362772241E-01  0.00000000000E+00 0.  1.
     999901    1    3    3    0    0 -0.11296688770E+00 -0.12493203338E-01 -0.59147405212E-01  0.88927836665E+00  0.88000000000E+00 0. -1.
        -11    1    4    4    0    0  0.40730571387E-01 -0.76367637311E-02  0.18553440143E-01  0.45406947353E-01  0.51100000000E-03 0. -1.
         11    1    4    4    0    0  0.82368224742E-01  0.98450972944E-02  0.22225921838E-01  0.85881913756E-01  0.51100000000E-03 0.  1.
</event>
<event>
 8    1  0.1099478E+005  0.1043930E+01  0.7957747E-01            NaN
         13   -1    0    0    0    0  0.00000000000E+00  0.00000000000E+00  0.74505805969E-08  0.10566000000E+00  0.10566000000E+00 0. -1.
     999900   -1    0    0    0    0 -0.00000000000E+00 -0.00000000000E+00 -0.74505805969E-08  0.93827000000E+00  0.93827000000E+00 0.  1.
     999902    2    1    2    0    0 -0.19335843684E-01  0.12099350511E-01 -0.19970565934E-02  0.10210333328E+01  0.10207765717E+01 0.  0.
     999903    2    3    3    0    0  0.11466948950E+00 -0.31143651961E-01  0.44826318114E-01  0.12860977025E+00  0.20299145986E-01 0.  0.
         14    1    1    2    0    0  0.19335843684E-01 -0.12099350511E-01  0.19970565934E-02  0.22896667199E-01  0.00000000000E+00 0.  1.
     999901    1    3    3    0    0 -0.13400533318E+00  0.43243002472E-01 -0.46823374707E-01  0.89242356255E+00  0.88000000000E+00 0.  1.
        -11    1    4    4    0    0  0.57849514841E-02 -0.66197399337E-02  0.17861734580E-02  0.89854413962E-02  0.51100000000E-03 0. -1.
         11    1    4    4    0    0  0.10888453801E+00 -0.24523912027E-01  0.43040144656E-01  0.11962432885E+00  0.51100000000E-03 0.  1.
</event>
<event>
 8    1  0.1099478E+005  0.1043930E+01  0.7957747E-01            NaN
         13   -1    0    0    0    0  0.00000000000E+00  0.00000000000E+00  0.74505805969E-08  0.10566000000E+00  0.10566000000E+00 0.  1.
     999900   -1    0    0    0    0 -0.00000000000E+00 -0.00000000000E+00 -0.74505805969E-08  0.93827000000E+00  0.93827000000E+00 0. -1.
     999902    2    1    2    0    0 -0.21753676980E-01  0.95099264411E-02  0.11533199051E-03  0.10201881706E+01  0.10199118731E+01 0.  0.
     999903    2    3    3    0    0 -0.10119193926E+00  0.81842691191E-01  0.21764353746E-01  0.13338991476E+00  0.19523001632E-01 0.  0.
         14    1    1    2    0    0  0.21753676980E-01 -0.95099264411E-02 -0.11533199051E-03  0.23741829427E-01  0.00000000000E+00 0. -1.
     999901    1    3    3    0    0  0.79438262281E-01 -0.72332764750E-01 -0.21649021755E-01  0.88679825581E+00  0.88000000000E+00 0. -1.
        -11    1    4    4    0    0 -0.52938193426E-01  0.47540164444E-01  0.27529322649E-02  0.71206455575E-01  0.51100000000E-03 0. -1.
         11    1    4    4    0    0 -0.48253745836E-01  0.34302526747E-01  0.19011421481E-01  0.62183459184E-01  0.51100000000E-03 0.  1.
</event>
<event>
 8    1  0.1099478E+005  0.1043930E+01  0.7957747E-01            NaN
         13   -1    0    0    0    0  0.00000000000E+00  0.00000000000E+00  0.74505805969E-08  0.10566000000E+00  0.10566000000E+00 0. -1.
     999900   -1    0    0    0    0 -0.00000000000E+00 -0.00000000000E+00 -0.74505805969E-08  0.93827000000E+00  0.93827000000E+00 0. -1.
     999902    2    1    2    0    0 -0.88361405801E-02 -0.46992861552E-02  0.21141494011E-01  0.10205393301E+01  0.10202712388E+01 0.  0.
     999903    2    3    3    0    0 -0.10804706322E+00  0.62379068826E-01  0.39252522682E-01  0.13224302689E+00  0.19548440519E-01 0.  0.
         14    1    1    2    0    0  0.88361405801E-02  0.46992861552E-02 -0.21141494011E-01  0.23390669929E-01  0.00000000000E+00 0.  1.
     999901    1    3    3    0    0  0.99210922641E-01 -0.67078354982E-01 -0.18111028671E-01  0.88829630318E+00  0.88000000000E+00 0. -1.
        -11    1    4    4    0    0 -0.70941824825E-01  0.51139421182E-01  0.25381026015E-01  0.91062838254E-01  0.51100000000E-03 0.  1.
         11    1    4    4    0    0 -0.37105238396E-01  0.11239647645E-01  0.13871496667E-01  0.41180188639E-01  0.51100000000E-03 0. -1.
</event>
<event>
 8    1  0.1099478E+005  0.1043930E+01  0.7957747E-01            NaN
         13   -1    0    0    0    0  0.00000000000E+00  0.00000000000E+00  0.74505805969E-08  0.10566000000E+00  0.10566000000E+00 0. -1.
     999900   -1    0    0    0    0 -0.00000000000E+00 -0.00000000000E+00 -0.74505805969E-08  0.93827000000E+00  0.93827000000E+00 0. -1.
     999902    2    1    2    0    0 -0.34949386074E-02 -0.16194618776E-01 -0.15145552971E-01  0.10214829947E+01  0.10212363293E+01 0.  0.
     999903    2    3    3    0    0 -0.10338377814E+00  0.71042288230E-01  0.29343802888E-01  0.13043453304E+00  0.20418039577E-01 0.  0.
         14    1    1    2    0    0  0.34949386074E-02  0.16194618776E-01  0.15145552971E-01  0.22447005323E-01  0.00000000000E+00 0. -1.
     999901    1    3    3    0    0  0.99888839537E-01 -0.87236907006E-01 -0.44489355859E-01  0.89104846164E+00  0.88000000000E+00 0.  1.
        -11    1    4    4    0    0 -0.73645035898E-01  0.42008658057E-01  0.26245448478E-01  0.88754737062E-01  0.51100000000E-03 0. -1.
         11    1    4    4    0    0 -0.29738742246E-01  0.29033630173E-01  0.30983544105E-02  0.41679795974E-01  0.51100000000E-03 0.  1.
</event>
<event>
 8    1  0.1099478E+005  0.1043930E+01  0.7957747E-01            NaN
         13   -1    0    0    0    0  0.00000000000E+00  0.00000000000E+00  0.74505805969E-08  0.10566000000E+00  0.10566000000E+00 0.  1.
     999900   -1    0    0    0    0 -0.00000000000E+00 -0.00000000000E+00 -0.74505805969E-08  0.93827000000E+00  0.93827000000E+00 0.  1.
     999902    2    1    2    0    0 -0.10379948907E-01 -0.53458181840E-02 -0.20570912251E-01  0.10202765955E+01  0.10200023764E+01 0.  0.
     999903    2    3    3    0    0 -0.76101802830E-01 -0.27951310428E-01 -0.10412335894E+00  0.13359097950E+00  0.20787394703E-01 0.  0.
         14    1    1    2    0    0  0.10379948907E-01  0.53458181840E-02  0.20570912251E-01  0.23653404453E-01  0.00000000000E+00 0.  1.
     999901    1    3    3    0    0  0.65721853922E-01  0.22605492244E-01  0.83552446685E-01  0.88668561605E+00  0.88000000000E+00 0. -1.
        -11    1    4    4    0    0 -0.42820228737E-01 -0.25400893304E-01 -0.69508628534E-01  0.85501391401E-01  0.51100000000E-03 0.  1.
         11    1    4    4    0    0 -0.33281574093E-01 -0.25504171241E-02 -0.34614730401E-01  0.48089588097E-01  0.51100000000E-03 0. -1.
</event>
<event>
 8    1  0.1099478E+005  0.1043930E+01  0.7957747E-01            NaN
         13   -1    0    0    0    0  0.00000000000E+00  0.00000000000E+00  0.74505805969E-08  0.10566000000E+00  0.10566000000E+00 0. -1.
     999900   -1    0    0    0    0 -0.00000000000E+00 -0.00000000000E+00 -0.74505805969E-08  0.93827000000E+00  0.93827000000E+00 0. -1.
     999902    2    1    2    0    0  0.72210804794E-02  0.19369875086E-02  0.24523576322E-01  0.10182921038E+01  0.10179693055E+01 0.  0.
     999903    2    3    3    0    0 -0.55246603978E-01  0.73922867779E-01  0.90527799326E-01  0.13068817414E+00  0.19166084062E-01 0.  0.
         14    1    1    2    0    0 -0.72210804794E-02 -0.19369875086E-02 -0.24523576322E-01  0.25637896160E-01  0.00000000000E+00 0.  1.
     999901    1    3    3    0    0  0.62467684457E-01 -0.71985880270E-01 -0.66004223004E-01  0.88760392970E+00  0.88000000000E+00 0.  1.
        -11    1    4    4    0    0 -0.20675827366E-01  0.13926291531E-01  0.21686208902E-01  0.33045184378E-01  0.51100000000E-03 0. -1.
         11    1    4    4    0    0 -0.34570776612E-01  0.59996576248E-01  0.68841590424E-01  0.97642989765E-01  0.51100000000E-03 0.  1.
</event>
<event>
 8    1  0.1099478E+005  0.1043930E+01  0.7957747E-01            NaN
         13   -1    0    0    0    0  0.00000000000E+00  0.00000000000E+00  0.74505805969E-08  0.10566000000E+00  0.10566000000E+00 0. -1.
     999900   -1    0    0    0    0 -0.00000000000E+00 -0.00000000000E+00 -0.74505805969E-08  0.93827000000E+00  0.93827000000E+00 0. -1.
     999902    2    1    2    0    0 -0.22723835629E-01 -0.45816029637E-02 -0.34798733456E-02  0.10204891530E+01  0.10202198969E+01 0.  0.
     999903    2    3    3    0    0  0.44866605430E-01 -0.25118860291E-02  0.11983265125E+00  0.12932209221E+00  0.18574643300E-01 0.  0.
         14    1    1    2    0    0  0.22723835629E-01  0.45816029637E-02  0.34798733456E-02  0.23440847039E-01  0.00000000000E+00 0. -1.
     999901    1    3    3    0    0 -0.67590441059E-01 -0.20697169345E-02 -0.12331252459E+00  0.89116706075E+00  0.88000000000E+00 0. -1.
        -11    1    4    4    0    0  0.47008004523E-02 -0.64204635958E-02  0.14972884247E-01  0.16963733709E-01  0.51100000000E-03 0. -1.
         11    1    4    4    0    0  0.40165804978E-01  0.39085775667E-02  0.10485976700E+00  0.11235835850E+00  0.51100000000E-03 0.  1.
</event>
<event>
 8    1  0.1099478E+005  0.1043930E+01  0.7957747E-01            NaN
         13   -1    0    0    0    0  0.00000000000E+00  0.00000000000E+00  0.74505805969E-08  0.10566000000E+00  0.10566000000E+00 0. -1.
     999900   -1    0    0    0    0 -0.00000000000E+00 -0.00000000000E+00 -0.74505805969E-08  0.93827000000E+00  0.93827000000E+00 0.  1.
     999902    2    1    2    0    0 -0.13404518274E-01  0.13066261454E-01  0.25486704786E-01  0.10123075330E+01  0.10118135011E+01 0.  0.
     999903    2    3    3    0    0  0.80475502686E-01  0.42799570540E-01  0.82825441580E-01  0.12496021726E+00  0.21139828618E-01 0.  0.
         14    1    1    2    0    0  0.13404518274E-01 -0.13066261454E-01 -0.25486704786E-01  0.31622467004E-01  0.00000000000E+00 0. -1.
     999901    1    3    3    0    0 -0.93880020960E-01 -0.29733309086E-01 -0.57338736794E-01  0.88734731573E+00  0.88000000000E+00 0.  1.
        -11    1    4    4    0    0  0.74671298236E-01  0.32334161576E-01  0.69201907029E-01  0.10681978208E+00  0.51100000000E-03 0. -1.
         11    1    4    4    0    0  0.58042044503E-02  0.10465408964E-01  0.13623534551E-01  0.18140435186E-01  0.51100000000E-03 0.  1.
</event>
<event>
 8    1  0.1099478E+005  0.1043930E+01  0.7957747E-01            NaN
         13   -1    0    0    0    0  0.00000000000E+00  0.00000000000E+00  0.74505805969E-08  0.10566000000E+00  0.10566000000E+00 0.  1.
     999900   -1    0    0    0    0 -0.00000000000E+00 -0.00000000000E+00 -0.74505805969E-08  0.93827000000E+00  0.93827000000E+00 0.  1.
     999902    2    1    2    0    0  0.19691188883E-01 -0.50530406908E-02 -0.12992022329E-01  0.10198038983E+01  0.10195184756E+01 0.  0.
     999903    2    3    3    0    0  0.17995727899E-01  0.20652255527E-01 -0.12744247835E+00  0.13201870820E+00  0.20904357136E-01 0.  0.
         14    1    1    2    0    0 -0.19691188883E-01  0.50530406908E-02  0.12992022329E-01  0.24126101717E-01  0.00000000000E+00 0.  1.
     999901    1    3    3    0    0  0.16954609838E-02 -0.25705296217E-01  0.11445045602E+00  0.88778519008E+00  0.88000000000E+00 0.  1.
        -11    1    4    4    0    0  0.10470078460E-02  0.16093596991E-01 -0.47339296098E-01  0.50013699779E-01  0.51100000000E-03 0. -1.
         11    1    4    4    0    0  0.16948720053E-01  0.45586585352E-02 -0.80103182251E-01  0.82005008425E-01  0.51100000000E-03 0.  1.
</event>
<event>
 8    1  0.1099478E+005  0.1043930E+01  0.7957747E-01            NaN
         13   -1    0    0    0    0  0.00000000000E+00  0.00000000000E+00  0.74505805969E-08  0.10566000000E+00  0.10566000000E+00 0.  1.
     999900   -1    0    0    0    0 -0.00000000000E+00 -0.00000000000E+00 -0.74505805969E-08  0.93827000000E+00  0.93827000000E+00 0.  1.
     999902    2    1    2    0    0 -0.10801037333E-01  0.12462645703E-01  0.15735583913E-01  0.10211355150E+01  0.10208810663E+01 0.  0.
     999903    2    3    3    0    0 -0.76950640426E-01  0.88773324578E-01  0.61618089264E-01  0.13417199038E+00  0.20080584163E-01 0.  0.
         14    1    1    2    0    0  0.10801037333E-01 -0.12462645703E-01 -0.15735583913E-01  0.22794485001E-01  0.00000000000E+00 0. -1.
     999901    1    3    3    0    0  0.66149603093E-01 -0.76310678876E-01 -0.45882505351E-01  0.88696352461E+00  0.88000000000E+00 0. -1.
        -11    1    4    4    0    0 -0.56554048312E-01  0.62112646819E-01  0.33710132184E-01  0.90515056251E-01  0.51100000000E-03 0.  1.
         11    1    4    4    0    0 -0.20396592115E-01  0.26660677759E-01  0.27907957080E-01  0.43656934133E-01  0.51100000000E-03 0. -1.
</event>
<event>
 7    1  0.1099478E+005  0.1043930E+01  0.7957747E-01            NaN
         13   -1    0    0    0    0  0.00000000000E+00  0.00000000000E+00  0.74505805969E-08  0.10566000000E+00  0.10566000000E+00 0. -1.
     999900   -1    0    0    0    0 -0.00000000000E+00 -0.00000000000E+00 -0.74505805969E-08  0.93827000000E+00  0.93827000000E+00 0. -1.
     999903    2    1    2    0    0 -0.56074679986E-01  0.24587298438E-01  0.91121164582E-01  0.11129241465E+00  0.18276486120E-01 0.  0.
         14    1    1    2    0    0  0.46170684786E-01 -0.11061826740E-01  0.23058121763E-02  0.47533282174E-01  0.00000000000E+00 0. -1.
     999901    1    1    2    0    0  0.99039951998E-02 -0.13525471698E-01 -0.93426976758E-01  0.88510430317E+00  0.88000000000E+00 0. -1.
        -11    1    3    3    0    0 -0.18687685878E-01  0.15041165903E-01  0.24438837264E-01  0.34248856375E-01  0.51100000000E-03 0.  1.
         11    1    3    3    0    0 -0.37386994108E-01  0.95461325343E-02  0.66682327318E-01  0.77043558279E-01  0.51100000000E-03 0. -1.
</event>
<event>
 8    1  0.1099478E+005  0.1043930E+01  0.7957747E-01            NaN
         13   -1    0    0    0    0  0.00000000000E+00  0.00000000000E+00  0.74505805969E-08  0.10566000000E+00  0.10566000000E+00 0.  1.
     999900   -1    0    0    0    0 -0.00000000000E+00 -0.00000000000E+00 -0.74505805969E-08  0.93827000000E+00  0.93827000000E+00 0. -1.
     999902    2    1    2    0    0 -0.10004917702E-01  0.45885770699E-02  0.20249289393E-01  0.10208825026E+01  0.10206223086E+01 0.  0.
     999903    2    3    3    0    0 -0.12629585259E+00 -0.33339477419E-01  0.10774748320E-01  0.13237145266E+00  0.18545704116E-01 0.  0.
         14    1    1    2    0    0  0.10004917702E-01 -0.45885770699E-02 -0.20249289393E-01  0.23047497449E-01  0.00000000000E+00 0. -1.
     999901    1    3    3    0    0  0.11629093489E+00  0.37928054488E-01  0.94745410729E-02  0.88851104989E+00  0.88000000000E+00 0. -1.
        -11    1    4    4    0    0 -0.10531107497E+00 -0.21487230577E-01  0.12485952650E-01  0.10820482302E+00  0.51100000000E-03 0.  1.
         11    1    4    4    0    0 -0.20984777616E-01 -0.11852246841E-01 -0.17112043303E-02  0.24166629638E-01  0.51100000000E-03 0. -1.
</event>
<event>
 8    1  0.1099478E+005  0.1043930E+01  0.7957747E-01            NaN
         13   -1    0    0    0    0  0.00000000000E+00  0.00000000000E+00  0.74505805969E-08  0.10566000000E+00  0.10566000000E+00 0. -1.
     999900   -1    0    0    0    0 -0.00000000000E+00 -0.00000000000E+00 -0.74505805969E-08  0.93827000000E+00  0.93827000000E+00 0. -1.
     999902    2    1    2    0    0  0.66476737330E-02  0.23418831957E-01 -0.13125990473E-02  0.10195505789E+01  0.10192590577E+01 0.  0.
     999903    2    3    3    0    0  0.24588719355E-01  0.12050018902E+00  0.45800613295E-01  0.13277759456E+00  0.20181495625E-01 0.  0.
         14    1    1    2    0    0 -0.66476737330E-02 -0.23418831957E-01  0.13125990473E-02  0.24379421088E-01  0.00000000000E+00 0. -1.
     999901    1    3    3    0    0 -0.17941045622E-01 -0.97081357058E-01 -0.47113212342E-01  0.88677298436E+00  0.88000000000E+00 0. -1.
        -11    1    4    4    0    0  0.72473547351E-03  0.19105619780E-01  0.14528295462E-01  0.24018377104E-01  0.51100000000E-03 0.  1.
         11    1    4    4    0    0  0.23863983882E-01  0.10139456924E+00  0.31272317833E-01  0.10875921745E+00  0.51100000000E-03 0. -1.
</event>
<event>
 8    1  0.1099478E+005  0.1043930E+01  0.7957747E-01            NaN
         13   -1    0    0    0    0  0.00000000000E+00  0.00000000000E+00  0.74505805969E-08  0.10566000000E+00  0.10566000000E+00 0.  1.
     999900   -1    0    0    0    0 -0.00000000000E+00 -0.00000000000E+00 -0.74505805969E-08  0.93827000000E+00  0.93827000000E+00 0.  1.
     999902    2    1    2    0    0  0.19329671728E-01 -0.46464202903E-02 -0.11490505364E-01  0.10209679194E+01  0.10207096724E+01 0.  0.
     999903    2    3    3    0    0 -0.10926246679E+00 -0.12132940016E-01  0.63315534029E-01  0.12845017193E+00  0.20126970422E-01 0.  0.
         14    1    1    2    0    0 -0.19329671728E-01  0.46464202903E-02  0.11490505364E-01  0.22962080571E-01  0.00000000000E+00 0. -1.
     999901    1    3    3    0    0  0.12859213852E+00  0.74865197253E-02 -0.74806039392E-01  0.89251774750E+00  0.88000000000E+00 0.  1.
        -11    1    4    4    0    0 -0.44623499677E-01  0.29040605035E-02  0.18655921094E-01  0.48456112140E-01  0.51100000000E-03 0. -1.
         11    1    4    4    0    0 -0.64638967111E-01 -0.15037000519E-01  0.44659612935E-01  0.79994059794E-01  0.51100000000E-03 0.  1.
</event>
<event>
 8    1  0.1099478E+005  0.1043930E+01  0.7957747E-01            NaN
         13   -1    0    0    0    0  0.00000000000E+00  0.00000000000E+00  0.74505805969E-08  0.10566000000E+00  0.10566000000E+00 0.  1.
     999900   -1    0    0    0    0 -0.00000000000E+00 -0.00000000000E+00 -0.74505805969E-08  0.93827000000E+00  0.93827000000E+00 0.  1.
     999902    2    1    2    0    0 -0.88874938460E-02 -0.45106662519E-02 -0.19674937095E-01  0.10218746876E+01  0.10216366479E+01 0.  0.
     999903    2    3    3    0    0  0.12772457323E+00 -0.19520417440E-01 -0.94102334810E-02  0.13114829094E+00  0.20413437197E-01 0.  0.
         14    1    1    2    0    0  0.88874938460E-02  0.45106662519E-02  0.19674937095E-01  0.22055312435E-01  0.00000000000E+00 0.  1.
     999901    1    3    3    0    0 -0.13661206708E+00  0.15009751189E-01 -0.10264703614E-01  0.89072639662E+00  0.88000000000E+00 0. -1.
        -11    1    4    4    0    0  0.83047164234E-01 -0.12862136150E-01 -0.15842053602E-01  0.85518990972E-01  0.51100000000E-03 0.  1.
         11    1    4    4    0    0  0.44677408999E-01 -0.66582812903E-02  0.64318201212E-02  0.45629299969E-01  0.51100000000E-03 0. -1.
</event>
<event>
 8    1  0.1099478E+005  0.1043930E+01  0.7957747E-01            NaN
         13   -1    0    0    0    0  0.00000000000E+00  0.00000000000E+00  0.74505805969E-08  0.10566000000E+00  0.10566000000E+00 0. -1.
     999900   -1    0    0    0    0 -0.00000000000E+00 -0.00000000000E+00 -0.74505805969E-08  0.93827000000E+00  0.93827000000E+00 0. -1.
     999902    2    1    2    0    0  0.94269775210E-02 -0.98724737634E-02  0.18895139350E-01  0.10206199178E+01  0.10203536919E+01 0.  0.
     999903    2    3    3    0    0  0.11071442703E+00  0.50117208324E-01  0.48256827313E-01  0.13229564244E+00  0.20099669258E-01 0.  0.
         14    1    1    2    0    0 -0.94269775210E-02  0.98724737634E-02 -0.18895139350E-01  0.23310082249E-01  0.00000000000E+00 0.  1.
     999901    1    3    3    0    0 -0.10128744951E+00 -0.59989682087E-01 -0.29361687963E-01  0.88832427531E+00  0.88000000000E+00 0.  1.
        -11    1    4    4    0    0  0.17119386850E-01  0.32578996244E-03  0.77966735439E-02  0.18820966621E-01  0.51100000000E-03 0. -1.
         11    1    4    4    0    0  0.93595040178E-01  0.49791418361E-01  0.40460153770E-01  0.11347467582E+00  0.51100000000E-03 0.  1.
</event>
<event>
 8    1  0.1099478E+005  0.1043930E+01  0.7957747E-01            NaN
         13   -1    0    0    0    0  0.00000000000E+00  0.00000000000E+00  0.74505805969E-08  0.10566000000E+00  0.10566000000E+00 0.  1.
     999900   -1    0    0    0    0 -0.00000000000E+00 -0.00000000000E+00 -0.74505805969E-08  0.93827000000E+00  0.93827000000E+00 0.  1.
     999902    2    1    2    0    0 -0.34836520836E-02  0.24571533656E-01  0.13552119117E-01  0.10156535782E+01  0.10152598854E+01 0.  0.
     999903    2    3    3    0    0  0.39019497543E-01 -0.11285937518E+00 -0.22180064032E-01  0.12325761151E+00  0.20993422743E-01 0.  0.
         14    1    1    2    0    0  0.34836520836E-02 -0.24571533656E-01 -0.13552119117E-01  0.28276421814E-01  0.00000000000E+00 0. -1.
     999901    1    3    3    0    0 -0.42503149627E-01  0.13743090884E+00  0.35732183149E-01  0.89239596668E+00  0.88000000000E+00 0. -1.
        -11    1    4    4    0    0  0.24890755008E-01 -0.40697576215E-01 -0.91725783351E-02  0.48582298309E-01  0.51100000000E-03 0. -1.
         11    1    4    4    0    0  0.14128742535E-01 -0.72161798969E-01 -0.13007485697E-01  0.74675313198E-01  0.51100000000E-03 0.  1.
</event>
<event>
 8    1  0.1099478E+005  0.1043930E+01  0.7957747E-01            NaN
         13   -1    0    0    0    0  0.00000000000E+00  0.00000000000E+00  0.74505805969E-08  0.10566000000E+00  0.10566000000E+00 0.  1.
     999900   -1    0    0    0    0 -0.00000000000E+00 -0.00000000000E+00 -0.74505805969E-08  0.93827000000E+00  0.93827000000E+00 0. -1.
     999902    2    1    2    0    0 -0.13664219546E-01  0.16151442238E-01  0.11474382916E-01  0.10198625646E+01  0.10195785449E+01 0.  0.
     999903    2    3    3    0    0  0.59979481810E-01  0.57369012700E-01 -0.97062321809E-01  0.12918725951E+00  0.19481063873E-01 0.  0.
         14    1    1    2    0    0  0.13664219546E-01 -0.16151442238E-01 -0.11474382916E-01  0.24067435374E-01  0.00000000000E+00 0. -1.
     999901    1    3    3    0    0 -0.73643701356E-01 -0.41217570462E-01  0.10853670472E+00  0.89067530511E+00  0.88000000000E+00 0.  1.
        -11    1    4    4    0    0  0.22349743083E-01  0.16510272349E-01 -0.45952160444E-01  0.53702535130E-01  0.51100000000E-03 0.  1.
         11    1    4    4    0    0  0.37629738726E-01  0.40858740350E-01 -0.51110161365E-01  0.75484724384E-01  0.51100000000E-03 0. -1.
</event>
<event>
 8    1  0.1099478E+005  0.1043930E+01  0.7957747E-01            NaN
         13   -1    0    0    0    0  0.00000000000E+00  0.00000000000E+00  0.74505805969E-08  0.10566000000E+00  0.10566000000E+00 0.  1.
     999900   -1    0    0    0    0 -0.00000000000E+00 -0.00000000000E+00 -0.74505805969E-08  0.93827000000E+00  0.93827000000E+00 0. -1.
     999902    2    1    2    0    0 -0.72205456045E-02  0.58566729872E-02 -0.21757784704E-01  0.10202691020E+01  0.10199947071E+01 0.  0.
     999903    2    3    3    0    0  0.10232638137E+00  0.43441503238E-01 -0.67436571512E-01  0.13150608512E+00  0.19705499660E-01 0.  0.
         14    1    1    2    0    0  0.72205456045E-02 -0.58566729872E-02  0.21757784704E-01  0.23660897965E-01  0.00000000000E+00 0.  1.
     999901    1    3    3    0    0 -0.10954692698E+00 -0.37584830251E-01  0.45678786808E-01  0.88876301692E+00  0.88000000000E+00 0. -1.
        -11    1    4    4    0    0  0.39153777342E-01  0.19106902903E-01 -0.37489385586E-01  0.57478754086E-01  0.51100000000E-03 0. -1.
         11    1    4    4    0    0  0.63172604033E-01  0.24334600336E-01 -0.29947185926E-01  0.74027331032E-01  0.51100000000E-03 0.  1.
</event>
<event>
 8    1  0.1099478E+005  0.1043930E+01  0.7957747E-01            NaN
         13   -1    0    0    0    0  0.00000000000E+00  0.00000000000E+00  0.74505805969E-08  0.10566000000E+00  0.10566000000E+00 0.  1.
     999900   -1    0    0    0    0 -0.00000000000E+00 -0.00000000000E+00 -0.74505805969E-08  0.93827000000E+00  0.93827000000E+00 0.  1.
     999902    2    1    2    0    0  0.81293938862E-02  0.11178787324E-01 -0.18659344798E-01  0.10207088140E+01  0.10204446381E+01 0.  0.
     999903    2    3    3    0    0  0.49862685610E-01  0.12088193261E+00 -0.13315915845E-01  0.13289971292E+00  0.19654287894E-01 0.  0.
         14    1    1    2    0    0 -0.81293938862E-02 -0.11178787324E-01  0.18659344798E-01  0.23221186001E-01  0.00000000000E+00 0.  1.
     999901    1    3    3    0    0 -0.41733291724E-01 -0.10970314528E+00 -0.53434289530E-02  0.88780910108E+00  0.88000000000E+00 0. -1.
        -11    1    4    4    0    0  0.37950207969E-01  0.98918631923E-01 -0.18015390517E-01  0.10747059804E+00  0.51100000000E-03 0. -1.
         11    1    4    4    0    0  0.11912477641E-01  0.21963300685E-01  0.46994746721E-02  0.25429114883E-01  0.51100000000E-03 0.  1.
</event>
<event>
 8    1  0.1099478E+005  0.1043930E+01  0.7957747E-01            NaN
         13   -1    0    0    0    0  0.00000000000E+00  0.00000000000E+00  0.74505805969E-08  0.10566000000E+00  0.10566000000E+00 0.  1.
     999900   -1    0    0    0    0 -0.00000000000E+00 -0.00000000000E+00 -0.74505805969E-08  0.93827000000E+00  0.93827000000E+00 0. -1.
     999902    2    1    2    0    0  0.99383700454E-02 -0.62143439133E-02 -0.18880139519E-01  0.10217072878E+01  0.10214655809E+01 0.  0.
     999903    2    3    3    0    0  0.24647101999E-01  0.97772688095E-01 -0.84279863114E-01  0.13305281419E+00  0.20808120093E-01 0.  0.
         14    1    1    2    0    0 -0.99383700454E-02  0.62143439133E-02  0.18880139519E-01  0.22222712204E-01  0.00000000000E+00 0.  1.
     999901    1    3    3    0    0 -0.14708731954E-01 -0.10398703201E+00  0.65399723595E-01  0.88865447361E+00  0.88000000000E+00 0. -1.
        -11    1    4    4    0    0  0.23474594264E-02  0.23568674346E-01 -0.31009180324E-01  0.39023369429E-01  0.51100000000E-03 0.  1.
         11    1    4    4    0    0  0.22299642573E-01  0.74204013749E-01 -0.53270682790E-01  0.94029444757E-01  0.51100000000E-03 0. -1.
</event>
<event>
 8    1  0.1099478E+005  0.1043930E+01  0.7957747E-01            NaN
         13   -1    0    0    0    0  0.00000000000E+00  0.00000000000E+00  0.74505805969E-08  0.10566000000E+00  0.10566000000E+00 0. -1.
     999900   -1    0    0    0    0 -0.00000000000E+00 -0.00000000000E+00 -0.74505805969E-08  0.93827000000E+00  0.93827000000E+00 0. -1.
     999902    2    1    2    0    0 -0.27936435355E-02  0.22767855766E-01 -0.63051361929E-02  0.10201406233E+01  0.10198632050E+01 0.  0.
     999903    2    3    3    0    0 -0.45248103126E-01 -0.73564298110E-01 -0.94787201488E-01  0.12946035471E+00  0.17784068244E-01 0.  0.
         14    1    1    2    0    0  0.27936435355E-02 -0.22767855766E-01  0.63051361929E-02  0.23789376679E-01  0.00000000000E+00 0. -1.
     999901    1    3    3    0    0  0.42454459590E-01  0.96332153876E-01  0.88482065296E-01  0.89068026861E+00  0.88000000000E+00 0.  1.
        -11    1    4    4    0    0 -0.15507343958E-01 -0.35535542023E-01 -0.32112807248E-01  0.50346260773E-01  0.51100000000E-03 0. -1.
         11    1    4    4    0    0 -0.29740759168E-01 -0.38028756088E-01 -0.62674394240E-01  0.79114093939E-01  0.51100000000E-03 0.  1.
</event>
<event>
 8    1  0.1099478E+005  0.1043930E+01  0.7957747E-01            NaN
         13   -1    0    0    0    0  0.00000000000E+00  0.00000000000E+00  0.74505805969E-08  0.10566000000E+00  0.10566000000E+00 0. -1.
     999900   -1    0    0    0    0 -0.00000000000E+00 -0.00000000000E+00 -0.74505805969E-08  0.93827000000E+00  0.93827000000E+00 0.  1.
     999902    2    1    2    0    0  0.46724362449E-02  0.14166762473E-01 -0.18695266571E-01  0.10200126044E+01  0.10197321567E+01 0.  0.
     999903    2    3    3    0    0 -0.11920696080E+00  0.22317519249E-01  0.39585049303E-01  0.12938971280E+00  0.21595149470E-01 0.  0.
         14    1    1    2    0    0 -0.46724362449E-02 -0.14166762473E-01  0.18695266571E-01  0.23917395585E-01  0.00000000000E+00 0. -1.
     999901    1    3    3    0    0  0.12387939705E+00 -0.81507567765E-02 -0.58280315874E-01  0.89062289161E+00  0.88000000000E+00 0.  1.
        -11    1    4    4    0    0 -0.76351230102E-01  0.24732799857E-01  0.25866146722E-01  0.84324020268E-01  0.51100000000E-03 0. -1.
         11    1    4    4    0    0 -0.42855730702E-01 -0.24152806079E-02  0.13718902581E-01  0.45065692532E-01  0.51100000000E-03 0.  1.
</event>
<event>
 8    1  0.1099478E+005  0.1043930E+01  0.7957747E-01            NaN
         13   -1    0    0    0    0  0.00000000000E+00  0.00000000000E+00  0.74505805969E-08  0.10566000000E+00  0.10566000000E+00 0. -1.
     999900   -1    0    0    0    0 -0.00000000000E+00 -0.00000000000E+00 -0.74505805969E-08  0.93827000000E+00  0.93827000000E+00 0.  1.
     999902    2    1    2    0    0  0.13355962641E-01  0.27154470350E-02  0.18839694576E-01  0.10206772694E+01  0.10204123670E+01 0.  0.
     999903    2    3    3    0    0 -0.11428094618E-02 -0.74881828073E-01 -0.10275132626E+00  0.12881633410E+00  0.20669269301E-01 0.  0.
         14    1    1    2    0    0 -0.13355962641E-01 -0.27154470350E-02 -0.18839694576E-01  0.23252730644E-01  0.00000000000E+00 0.  1.
     999901    1    3    3    0    0  0.14498772103E-01  0.77597275108E-01  0.12159102083E+00  0.89186093526E+00  0.88000000000E+00 0.  1.
        -11    1    4    4    0    0  0.95386672861E-03 -0.65832154265E-01 -0.76321571908E-01  0.10079695361E+00  0.51100000000E-03 0. -1.
         11    1    4    4    0    0 -0.20966761904E-02 -0.90496738078E-02 -0.26429754348E-01  0.28019380488E-01  0.51100000000E-03 0.  1.
</event>
<event>
 8    1  0.1099478E+005  0.1043930E+01  0.7957747E-01            NaN
         13   -1    0    0    0    0  0.00000000000E+00  0.00000000000E+00  0.74505805969E-08  0.10566000000E+00  0.10566000000E+00 0.  1.
     999900   -1    0    0    0    0 -0.00000000000E+00 -0.00000000000E+00 -0.74505805969E-08  0.93827000000E+00  0.93827000000E+00 0. -1.
     999902    2    1    2    0    0 -0.55807097906E-02  0.21824290133E-01  0.58848196547E-02  0.10206474945E+01  0.10203819054E+01 0.  0.
     999903    2    3    3    0    0 -0.35324671711E-01  0.80230289544E-01 -0.96986612204E-01  0.13223402342E+00  0.19867113832E-01 0.  0.
         14    1    1    2    0    0  0.55807097906E-02 -0.21824290133E-01 -0.58848196547E-02  0.23282505534E-01  0.00000000000E+00 0.  1.
     999901    1    3    3    0    0  0.29743961920E-01 -0.58405999411E-01  0.10287143186E+00  0.88841347104E+00  0.88000000000E+00 0.  1.
        -11    1    4    4    0    0 -0.58067972909E-02  0.19018727938E-01 -0.34968290025E-01  0.40230253982E-01  0.51100000000E-03 0.  1.
         11    1    4    4    0    0 -0.29517874420E-01  0.61211561606E-01 -0.62018322179E-01  0.92003769441E-01  0.51100000000E-03 0. -1.
</event>
<event>
 8    1  0.1099478E+005  0.1043930E+01  0.7957747E-01            NaN
         13   -1    0    0    0    0  0.00000000000E+00  0.00000000000E+00  0.74505805969E-08  0.10566000000E+00  0.10566000000E+00 0.  1.
     999900   -1    0    0    0    0 -0.00000000000E+00 -0.00000000000E+00 -0.74505805969E-08  0.93827000000E+00  0.93827000000E+00 0. -1.
     999902    2    1    2    0    0 -0.91190593337E-02  0.51420281863E-03 -0.21887901517E-01  0.10202128779E+01  0.10199371620E+01 0.  0.
     999903    2    3    3    0    0  0.59223946613E-01  0.11259703122E+00 -0.23475325599E-01  0.13047367634E+00  0.16932867844E-01 0.  0.
         14    1    1    2    0    0  0.91190593337E-02 -0.51420281863E-03  0.21887901517E-01  0.23717122096E-01  0.00000000000E+00 0.  1.
     999901    1    3    3    0    0 -0.68343005947E-01 -0.11208282840E+00  0.15874240816E-02  0.88973920156E+00  0.88000000000E+00 0. -1.
        -11    1    4    4    0    0  0.54850365278E-01  0.91670607957E-01 -0.17342899032E-01  0.10822707703E+00  0.51100000000E-03 0. -1.
         11    1    4    4    0    0  0.43735813356E-02  0.20926423265E-01 -0.61324265662E-02  0.22246599312E-01  0.51100000000E-03 0.  1.
</event>
<event>
 8    1  0.1099478E+005  0.1043930E+01  0.7957747E-01            NaN
         13   -1    0    0    0    0  0.00000000000E+00  0.00000000000E+00  0.74505805969E-08  0.10566000000E+00  0.10566000000E+00 0. -1.
     999900   -1    0    0    0    0 -0.00000000000E+00 -0.00000000000E+00 -0.74505805969E-08  0.93827000000E+00  0.93827000000E+00 0. -1.
     999902    2    1    2    0    0 -0.16202005698E-01  0.18015442134E-01  0.57674677757E-02  0.10190236789E+01  0.10187192613E+01 0.  0.
     999903    2    3    3    0    0  0.17345631146E-01  0.12910388754E-01  0.12686290472E+00  0.13008295519E+00  0.18969174456E-01 0.  0.
         14    1    1    2    0    0  0.16202005698E-01 -0.18015442134E-01 -0.57674677757E-02  0.24906321055E-01  0.00000000000E+00 0.  1.
     999901    1    3    3    0    0 -0.33547636844E-01  0.51050533798E-02 -0.12109543694E+00  0.88894072376E+00  0.88000000000E+00 0. -1.
        -11    1    4    4    0    0  0.20939834873E-01  0.97792896037E-02  0.11476144763E+00  0.11706648612E+00  0.51100000000E-03 0.  1.
         11    1    4    4    0    0 -0.35942037275E-02  0.31310991506E-02  0.12101457084E-01  0.13016469063E-01  0.51100000000E-03 0. -1.
</event>
<event>
 8    1  0.1099478E+005  0.1043930E+01  0.7957747E-01            NaN
         13   -1    0    0    0    0  0.00000000000E+00  0.00000000000E+00  0.74505805969E-08  0.10566000000E+00  0.10566000000E+00 0. -1.
     999900   -1    0    0    0    0 -0.00000000000E+00 -0.00000000000E+00 -0.74505805969E-08  0.93827000000E+00  0.93827000000E+00 0. -1.
     999902    2    1    2    0    0 -0.11607573805E-01 -0.67397553457E-02 -0.19131960055E-01  0.10205592497E+01  0.10202916202E+01 0.  0.
     999903    2    3    3    0    0 -0.65607201891E-01 -0.10444593139E+00  0.40672244228E-01  0.13149288579E+00  0.20564290374E-01 0.  0.
         14    1    1    2    0    0  0.11607573805E-01  0.67397553457E-02  0.19131960055E-01  0.23370750251E-01  0.00000000000E+00 0. -1.
     999901    1    3    3    0    0  0.53999628085E-01  0.97706176047E-01 -0.59804204283E-01  0.88906636396E+00  0.88000000000E+00 0. -1.
        -11    1    4    4    0    0 -0.53076212949E-01 -0.68077790365E-01  0.31943571780E-01  0.92045221609E-01  0.51100000000E-03 0.  1.
         11    1    4    4    0    0 -0.12530988942E-01 -0.36368141028E-01  0.87286724476E-02  0.39447664181E-01  0.51100000000E-03 0. -1.
</event>
<event>
 8    1  0.1099478E+005  0.1043930E+01  0.7957747E-01            NaN
         13   -1    0    0    0    0  0.00000000000E+00  0.00000000000E+00  0.74505805969E-08  0.10566000000E+00  0.10566000000E+00 0. -1.
     999900   -1    0    0    0    0 -0.00000000000E+00 -0.00000000000E+00 -0.74505805969E-08  0.93827000000E+00  0.93827000000E+00 0. -1.
     999902    2    1    2    0    0  0.17225882874E-01 -0.16277664057E-01  0.12564710931E-02  0.10201966457E+01  0.10199205478E+01 0.  0.
     999903    2    3    3    0    0 -0.36424120871E-01 -0.91853111133E-01  0.84675166226E-01  0.13140609116E+00  0.18274747919E-01 0.  0.
         14    1    1    2    0    0 -0.17225882874E-01  0.16277664057E-01 -0.12564710931E-02  0.23733354326E-01  0.00000000000E+00 0.  1.
     999901    1    3    3    0    0  0.53650003746E-01  0.75575447076E-01 -0.83418695133E-01  0.88879055452E+00  0.88000000000E+00 0. -1.
        -11    1    4    4    0    0 -0.21949603360E-01 -0.31349803896E-01  0.32540729144E-01  0.50236993005E-01  0.51100000000E-03 0. -1.
         11    1    4    4    0    0 -0.14474517512E-01 -0.60503307237E-01  0.52134437081E-01  0.81169098151E-01  0.51100000000E-03 0.  1.
</event>
<event>
 8    1  0.1099478E+005  0.1043930E+01  0.7957747E-01            NaN
         13   -1    0    0    0    0  0.00000000000E+00  0.00000000000E+00  0.74505805969E-08  0.10566000000E+00  0.10566000000E+00 0. -1.
     999900   -1    0    0    0    0 -0.00000000000E+00 -0.00000000000E+00 -0.74505805969E-08  0.93827000000E+00  0.93827000000E+00 0. -1.
     999902    2    1    2    0    0 -0.17451115565E-01 -0.38271909012E-02 -0.14729642906E-01  0.10207750609E+01  0.10205124074E+01 0.  0.
     999903    2    3    3    0    0  0.11917101323E-01  0.49406779954E-01 -0.12051655818E+00  0.13235668015E+00  0.20273203330E-01 0.  0.
         14    1    1    2    0    0  0.17451115565E-01  0.38271909012E-02  0.14729642906E-01  0.23154939102E-01  0.00000000000E+00 0. -1.
     999901    1    3    3    0    0 -0.29368216888E-01 -0.53233970855E-01  0.10578691528E+00  0.88841838075E+00  0.88000000000E+00 0.  1.
        -11    1    4    4    0    0  0.42580355043E-02  0.30057904328E-01 -0.93147961653E-01  0.97971487485E-01  0.51100000000E-03 0. -1.
         11    1    4    4    0    0  0.76590658190E-02  0.19348875626E-01 -0.27368596530E-01  0.34385192660E-01  0.51100000000E-03 0.  1.
</event>
<event>
 8    1  0.1099478E+005  0.1043930E+01  0.7957747E-01            NaN
         13   -1    0    0    0    0  0.00000000000E+00  0.00000000000E+00  0.74505805969E-08  0.10566000000E+00  0.10566000000E+00 0.  1.
     999900   -1    0    0    0    0 -0.00000000000E+00 -0.00000000000E+00 -0.74505805969E-08  0.93827000000E+00  0.93827000000E+00 0.  1.
     999902    2    1    2    0    0 -0.43601378282E-02 -0.23057170822E-01 -0.35674631373E-02  0.10201945682E+01  0.10199184214E+01 0.  0.
     999903    2    3    3    0    0  0.10148173265E+00  0.70702485895E-01  0.27657716625E-01  0.12836028619E+00  0.20347732223E-01 0.  0.
         14    1    1    2    0    0  0.43601378282E-02  0.23057170822E-01  0.35674631373E-02  0.23735431772E-01  0.00000000000E+00 0.  1.
     999901    1    3    3    0    0 -0.10584187048E+00 -0.93759656717E-01 -0.31225179762E-01  0.89183428204E+00  0.88000000000E+00 0.  1.
        -11    1    4    4    0    0  0.62516477638E-01  0.53252478952E-01  0.23723467753E-01  0.85482165006E-01  0.51100000000E-03 0. -1.
         11    1    4    4    0    0  0.38965255015E-01  0.17450006943E-01  0.39342488719E-02  0.42878121180E-01  0.51100000000E-03 0.  1.
</event>
<event>
 8    1  0.1099478E+005  0.1043930E+01  0.7957747E-01            NaN
         13   -1    0    0    0    0  0.00000000000E+00  0.00000000000E+00  0.74505805969E-08  0.10566000000E+00  0.10566000000E+00 0.  1.
     999900   -1    0    0    0    0 -0.00000000000E+00 -0.00000000000E+00 -0.74505805969E-08  0.93827000000E+00  0.93827000000E+00 0.  1.
     999902    2    1    2    0    0  0.13273164883E-01  0.18236695441E-01 -0.53971439830E-02  0.10207376924E+01  0.10204741808E+01 0.  0.
     999903    2    3    3    0    0  0.92127355141E-01 -0.79367878623E-01  0.42850569618E-01  0.13052845970E+00  0.20366584201E-01 0.  0.
         14    1    1    2    0    0 -0.13273164883E-01 -0.18236695441E-01  0.53971439830E-02  0.23192307556E-01  0.00000000000E+00 0. -1.
     999901    1    3    3    0    0 -0.78854190257E-01  0.97604574063E-01 -0.48247713601E-01  0.89020923275E+00  0.88000000000E+00 0.  1.
        -11    1    4    4    0    0  0.84894658246E-01 -0.70657694669E-01  0.44491459900E-01  0.11907713441E+00  0.51100000000E-03 0. -1.
         11    1    4    4    0    0  0.72326968950E-02 -0.87101839539E-02 -0.16408902818E-02  0.11451325286E-01  0.51100000000E-03 0.  1.
</event>
<event>
 7    1  0.2723821E+005  0.1043930E+01  0.7957747E-01            NaN
         13   -1    0    0    0    0  0.00000000000E+00  0.00000000000E+00  0.74505805969E-08  0.10566000000E+00  0.10566000000E+00 0. -1.
     999900   -1    0    0    0    0 -0.00000000000E+00 -0.00000000000E+00 -0.74505805969E-08  0.93827000000E+00  0.93827000000E+00 0. -1.
     999903    2    1    2    0    0 -0.82581038964E-02 -0.88155043065E-01  0.30092152256E-01  0.95498929443E-01  0.19364916724E-01 0.  0.
         14    1    1    2    0    0  0.97737515794E-02  0.25891170316E-02  0.58946708783E-01  0.59807559917E-01  0.00000000000E+00 0. -1.
     999901    1    1    2    0    0 -0.15156476830E-02  0.85565926033E-01 -0.89038861038E-01  0.88862351064E+00  0.88000000000E+00 0. -1.
        -11    1    3    3    0    0 -0.11435007176E-01 -0.50839518285E-01  0.24662488974E-01  0.57653408329E-01  0.51100000000E-03 0.  1.
         11    1    3    3    0    0  0.31769032800E-02 -0.37315524780E-01  0.54296632813E-02  0.37845521114E-01  0.51100000000E-03 0. -1.
</event>
<event>
 8    1  0.1099478E+005  0.1043930E+01  0.7957747E-01            NaN
         13   -1    0    0    0    0  0.00000000000E+00  0.00000000000E+00  0.74505805969E-08  0.10566000000E+00  0.10566000000E+00 0. -1.
     999900   -1    0    0    0    0 -0.00000000000E+00 -0.00000000000E+00 -0.74505805969E-08  0.93827000000E+00  0.93827000000E+00 0. -1.
     999902    2    1    2    0    0 -0.19573046514E-01 -0.20201842949E-02 -0.12290163247E-01  0.10207301421E+01  0.10204664569E+01 0.  0.
     999903    2    3    3    0    0  0.52929771398E-01  0.10323115347E+00 -0.55593050540E-01  0.13044387198E+00  0.21605201250E-01 0.  0.
         14    1    1    2    0    0  0.19573046514E-01  0.20201842949E-02  0.12290163247E-01  0.23199857911E-01  0.00000000000E+00 0. -1.
     999901    1    3    3    0    0 -0.72502817913E-01 -0.10525133776E+00  0.43302887294E-01  0.89028627011E+00  0.88000000000E+00 0. -1.
        -11    1    4    4    0    0  0.34302222082E-01  0.78892390507E-01 -0.32095731358E-01  0.91820742820E-01  0.51100000000E-03 0.  1.
         11    1    4    4    0    0  0.18627549316E-01  0.24338762961E-01 -0.23497319182E-01  0.38623129155E-01  0.51100000000E-03 0. -1.
</event>
<event>
 8    1  0.1099478E+005  0.1043930E+01  0.7957747E-01            NaN
         13   -1    0    0    0    0  0.00000000000E+00  0.00000000000E+00  0.74505805969E-08  0.10566000000E+00  0.10566000000E+00 0.  1.
     999900   -1    0    0    0    0 -0.00000000000E+00 -0.00000000000E+00 -0.74505805969E-08  0.93827000000E+00  0.93827000000E+00 0.  1.
     999902    2    1    2    0    0  0.15172086084E-01 -0.21361421512E-01  0.11048327297E-01  0.10154946688E+01  0.10150964754E+01 0.  0.
     999903    2    3    3    0    0  0.11783883727E+00 -0.18264049970E-01  0.44579528714E-01  0.12888630148E+00  0.20119076481E-01 0.  0.
         14    1    1    2    0    0 -0.15172086084E-01  0.21361421512E-01 -0.11048327297E-01  0.28435331214E-01  0.00000000000E+00 0. -1.
     999901    1    3    3    0    0 -0.10266675119E+00 -0.30973715421E-02 -0.33531201418E-01  0.88660836731E+00  0.88000000000E+00 0. -1.
        -11    1    4    4    0    0  0.77050880342E-01 -0.26608003729E-02  0.25266722757E-01  0.81133140085E-01  0.51100000000E-03 0.  1.
         11    1    4    4    0    0  0.40787956927E-01 -0.15603249597E-01  0.19312805957E-01  0.47753161395E-01  0.51100000000E-03 0. -1.
</event>
<event>
 8    1  0.1099478E+005  0.1043930E+01  0.7957747E-01            NaN
         13   -1    0    0    0    0  0.00000000000E+00  0.00000000000E+00  0.74505805969E-08  0.10566000000E+00  0.10566000000E+00 0. -1.
     999900   -1    0    0    0    0 -0.00000000000E+00 -0.00000000000E+00 -0.74505805969E-08  0.93827000000E+00  0.93827000000E+00 0.  1.
     999902    2    1    2    0    0  0.22619604749E-01 -0.79304694972E-02 -0.66217489062E-02  0.10190626233E+01  0.10187591687E+01 0.  0.
     999903    2    3    3    0    0 -0.96315066614E-01 -0.36287519787E-01  0.71776724433E-01  0.12715685531E+00  0.20581339418E-01 0.  0.
         14    1    1    2    0    0 -0.22619604749E-01  0.79304694972E-02  0.66217489062E-02  0.24867376702E-01  0.00000000000E+00 0. -1.
     999901    1    3    3    0    0  0.11893467136E+00  0.28357050290E-01 -0.78398473339E-01  0.89190576799E+00  0.88000000000E+00 0. -1.
        -11    1    4    4    0    0 -0.36860507982E-01 -0.48698784043E-02  0.19545684220E-01  0.42008423643E-01  0.51100000000E-03 0. -1.
         11    1    4    4    0    0 -0.59454558633E-01 -0.31417641383E-01  0.52231040213E-01  0.85148431665E-01  0.51100000000E-03 0.  1.
</event>
<event>
 8    1  0.1099478E+005  0.1043930E+01  0.7957747E-01            NaN
         13   -1    0    0    0    0  0.00000000000E+00  0.00000000000E+00  0.74505805969E-08  0.10566000000E+00  0.10566000000E+00 0. -1.
     999900   -1    0    0    0    0 -0.00000000000E+00 -0.00000000000E+00 -0.74505805969E-08  0.93827000000E+00  0.93827000000E+00 0. -1.
     999902    2    1    2    0    0  0.56866133197E-02  0.22822028298E-01 -0.35313294859E-02  0.10201465428E+01  0.10198692642E+01 0.  0.
     999903    2    3    3    0    0 -0.29124707571E-01 -0.32815273218E-01 -0.12079631687E+00  0.12994520907E+00  0.19207197690E-01 0.  0.
         14    1    1    2    0    0 -0.56866133197E-02 -0.22822028298E-01  0.35313294859E-02  0.23783457163E-01  0.00000000000E+00 0. -1.
     999901    1    3    3    0    0  0.34811320890E-01  0.55637301516E-01  0.11726498738E+00  0.89020133377E+00  0.88000000000E+00 0.  1.
        -11    1    4    4    0    0 -0.92416223804E-03 -0.10896490204E-01 -0.42468094050E-01  0.43856444313E-01  0.51100000000E-03 0.  1.
         11    1    4    4    0    0 -0.28200545333E-01 -0.21918783015E-01 -0.78328222817E-01  0.86088764753E-01  0.51100000000E-03 0. -1.
</event>
<event>
 8    1  0.1099478E+005  0.1043930E+01  0.7957747E-01            NaN
         13   -1    0    0    0    0  0.00000000000E+00  0.00000000000E+00  0.74505805969E-08  0.10566000000E+00  0.10566000000E+00 0. -1.
     999900   -1    0    0    0    0 -0.00000000000E+00 -0.00000000000E+00 -0.74505805969E-08  0.93827000000E+00  0.93827000000E+00 0. -1.
     999902    2    1    2    0    0  0.20815082336E-01 -0.53000470622E-02 -0.81294794639E-03  0.10224353719E+01  0.10222094065E+01 0.  0.
     999903    2    3    3    0    0 -0.39577883688E-01  0.11880885230E+00  0.33371489938E-01  0.13102137998E+00  0.19261189195E-01 0.  0.
         14    1    1    2    0    0 -0.20815082336E-01  0.53000470622E-02  0.81294794639E-03  0.21494628070E-01  0.00000000000E+00 0.  1.
     999901    1    3    3    0    0  0.60392966024E-01 -0.12410889936E+00 -0.34184437884E-01  0.89141399195E+00  0.88000000000E+00 0. -1.
        -11    1    4    4    0    0 -0.67261961008E-02  0.47785121750E-01  0.92918007922E-02  0.49145277063E-01  0.51100000000E-03 0.  1.
         11    1    4    4    0    0 -0.32851687587E-01  0.71023730552E-01  0.24079689145E-01  0.81876102919E-01  0.51100000000E-03 0. -1.
</event>
<event>
 8    1  0.1099478E+005  0.1043930E+01  0.7957747E-01            NaN
         13   -1    0    0    0    0  0.00000000000E+00  0.00000000000E+00  0.74505805969E-08  0.10566000000E+00  0.10566000000E+00 0. -1.
     999900   -1    0    0    0    0 -0.00000000000E+00 -0.00000000000E+00 -0.74505805969E-08  0.93827000000E+00  0.93827000000E+00 0.  1.
     999902    2    1    2    0    0 -0.13279063764E-01 -0.16372406719E-01 -0.11134028470E-01  0.10200897855E+01  0.10198111662E+01 0.  0.
     999903    2    3    3    0    0  0.11486523670E+00  0.20927068825E-01  0.48480109718E-01  0.12803257991E+00  0.20249831304E-01 0.  0.
         14    1    1    2    0    0  0.13279063764E-01  0.16372406719E-01  0.11134028470E-01  0.23840214475E-01  0.00000000000E+00 0. -1.
     999901    1    3    3    0    0 -0.12814430047E+00 -0.37299475545E-01 -0.59614138187E-01  0.89205720562E+00  0.88000000000E+00 0. -1.
        -11    1    4    4    0    0  0.47062490954E-01  0.18585542720E-01  0.18839174332E-01  0.53995148518E-01  0.51100000000E-03 0. -1.
         11    1    4    4    0    0  0.67802745749E-01  0.23415261049E-02  0.29640935386E-01  0.74037431392E-01  0.51100000000E-03 0.  1.
</event>
<event>
 8    1  0.1099478E+005  0.1043930E+01  0.7957747E-01            NaN
         13   -1    0    0    0    0  0.00000000000E+00  0.00000000000E+00  0.74505805969E-08  0.10566000000E+00  0.10566000000E+00 0.  1.
     999900   -1    0    0    0    0 -0.00000000000E+00 -0.00000000000E+00 -0.74505805969E-08  0.93827000000E+00  0.93827000000E+00 0. -1.
     999902    2    1    2    0    0 -0.45424391984E-02  0.12826120009E-01  0.19762458021E-01  0.10199362955E+01  0.10196540340E+01 0.  0.
     999903    2    3    3    0    0 -0.22836353489E-01  0.57720026147E-01 -0.11082412717E+00  0.12898007529E+00  0.22377939996E-01 0.  0.
         14    1    1    2    0    0  0.45424391984E-02 -0.12826120009E-01 -0.19762458021E-01  0.23993704495E-01  0.00000000000E+00 0. -1.
     999901    1    3    3    0    0  0.18293914290E-01 -0.44893906138E-01  0.13058658520E+00  0.89095622022E+00  0.88000000000E+00 0.  1.
        -11    1    4    4    0    0 -0.11947544336E-01  0.43976500451E-01 -0.60901983008E-01  0.76065689130E-01  0.51100000000E-03 0. -1.
         11    1    4    4    0    0 -0.10888809152E-01  0.13743525696E-01 -0.49922144167E-01  0.52914386159E-01  0.51100000000E-03 0.  1.
</event>
<event>
 8    1  0.1099478E+005  0.1043930E+01  0.7957747E-01            NaN
         13   -1    0    0    0    0  0.00000000000E+00  0.00000000000E+00  0.74505805969E-08  0.10566000000E+00  0.10566000000E+00 0. -1.
     999900   -1    0    0    0    0 -0.00000000000E+00 -0.00000000000E+00 -0.74505805969E-08  0.93827000000E+00  0.93827000000E+00 0. -1.
     999902    2    1    2    0    0  0.17720295047E-01 -0.38587657716E-02  0.14771032383E-01  0.10205402089E+01  0.10202721380E+01 0.  0.
     999903    2    3    3    0    0 -0.11529432363E+00 -0.38815407771E-01 -0.36857774772E-01  0.12836287825E+00  0.17863818484E-01 0.  0.
         14    1    1    2    0    0 -0.17720295047E-01  0.38587657716E-02 -0.14771032383E-01  0.23389791095E-01  0.00000000000E+00 0.  1.
     999901    1    3    3    0    0  0.13301461868E+00  0.34956642000E-01  0.51628807154E-01  0.89217733065E+00  0.88000000000E+00 0.  1.
        -11    1    4    4    0    0 -0.11735683896E-01  0.14003498450E-02 -0.44337820948E-02  0.12633558519E-01  0.51100000000E-03 0. -1.
         11    1    4    4    0    0 -0.10355863973E+00 -0.40215757616E-01 -0.32423992677E-01  0.11572931973E+00  0.51100000000E-03 0.  1.
</event>
<event>
 8    1  0.1099478E+005  0.1043930E+01  0.7957747E-01            NaN
         13   -1    0    0    0    0  0.00000000000E+00  0.00000000000E+00  0.74505805969E-08  0.10566000000E+00  0.10566000000E+00 0. -1.
     999900   -1    0    0    0    0 -0.00000000000E+00 -0.00000000000E+00 -0.74505805969E-08  0.93827000000E+00  0.93827000000E+00 0. -1.
     999902    2    1    2    0    0  0.16718170803E-01  0.65486176741E-02 -0.16495471584E-01  0.10195479941E+01  0.10192564104E+01 0.  0.
     999903    2    3    3    0    0  0.91619574602E-01 -0.53068771580E-01  0.73248301742E-01  0.12981859803E+00  0.16646733009E-01 0.  0.
         14    1    1    2    0    0 -0.16718170803E-01 -0.65486176741E-02  0.16495471584E-01  0.24382005890E-01  0.00000000000E+00 0.  1.
     999901    1    3    3    0    0 -0.74901403799E-01  0.59617389254E-01 -0.89743773326E-01  0.88972939608E+00  0.88000000000E+00 0. -1.
        -11    1    4    4    0    0  0.62590330580E-01 -0.44086374956E-01  0.48542417829E-01  0.90652001569E-01  0.51100000000E-03 0.  1.
         11    1    4    4    0    0  0.29029244022E-01 -0.89823966243E-02  0.24705883914E-01  0.39166596464E-01  0.51100000000E-03 0. -1.
</event>
<event>
 8    1  0.1099478E+005  0.1043930E+01  0.7957747E-01            NaN
         13   -1    0    0    0    0  0.00000000000E+00  0.00000000000E+00  0.74505805969E-08  0.10566000000E+00  0.10566000000E+00 0.  1.
     999900   -1    0    0    0    0 -0.00000000000E+00 -0.00000000000E+00 -0.74505805969E-08  0.93827000000E+00  0.93827000000E+00 0.  1.
     999902    2    1    2    0    0 -0.16390760087E-01 -0.15828394585E-01  0.71283690336E-02  0.10200551443E+01  0.10197757050E+01 0.  0.
     999903    2    3    3    0    0  0.92708889831E-01  0.85191402116E-01 -0.41258203206E-02  0.12751136959E+00  0.19738635516E-01 0.  0.
         14    1    1    2    0    0  0.16390760087E-01  0.15828394585E-01 -0.71283690336E-02  0.23874855737E-01  0.00000000000E+00 0. -1.
     999901    1    3    3    0    0 -0.10909964992E+00 -0.10101979670E+00  0.11254189354E-01  0.89254377468E+00  0.88000000000E+00 0.  1.
        -11    1    4    4    0    0  0.81030632443E-01  0.64249307703E-01 -0.19766307760E-02  0.10343164470E+00  0.51100000000E-03 0.  1.
         11    1    4    4    0    0  0.11678257388E-01  0.20942094413E-01 -0.21491895446E-02  0.24079724889E-01  0.51100000000E-03 0. -1.
</event>
<event>
 8    1  0.1099478E+005  0.1043930E+01  0.7957747E-01            NaN
         13   -1    0    0    0    0  0.00000000000E+00  0.00000000000E+00  0.74505805969E-08  0.10566000000E+00  0.10566000000E+00 0. -1.
     999900   -1    0    0    0    0 -0.00000000000E+00 -0.00000000000E+00 -0.74505805969E-08  0.93827000000E+00  0.93827000000E+00 0.  1.
     999902    2    1    2    0    0 -0.62212288185E-02 -0.80288405030E-03 -0.22487152009E-01  0.10205843298E+01  0.10203172810E+01 0.  0.
     999903    2    3    3    0    0 -0.92487409157E-01  0.45747778632E-01 -0.81845063681E-01  0.13315423131E+00  0.19612617450E-01 0.  0.
         14    1    1    2    0    0  0.62212288185E-02  0.80288405030E-03  0.22487152009E-01  0.23345670183E-01  0.00000000000E+00 0. -1.
     999901    1    3    3    0    0  0.86266180339E-01 -0.46550662682E-01  0.59357911671E-01  0.88743009851E+00  0.88000000000E+00 0. -1.
        -11    1    4    4    0    0 -0.34569832114E-01  0.26400888760E-01 -0.40272144510E-01  0.59280578305E-01  0.51100000000E-03 0. -1.
         11    1    4    4    0    0 -0.57917577043E-01  0.19346889872E-01 -0.41572919170E-01  0.73873653000E-01  0.51100000000E-03 0.  1.
</event>
<event>
 8    1  0.1099478E+005  0.1043930E+01  0.7957747E-01            NaN
         13   -1    0    0    0    0  0.00000000000E+00  0.00000000000E+00  0.74505805969E-08  0.10566000000E+00  0.10566000000E+00 0.  1.
     999900   -1    0    0    0    0 -0.00000000000E+00 -0.00000000000E+00 -0.74505805969E-08  0.93827000000E+00  0.93827000000E+00 0. -1.
     999902    2    1    2    0    0  0.49822373816E-04 -0.23678582748E-02  0.23967230556E-01  0.10198460349E+01  0.10195616203E+01 0.  0.
     999903    2    3    3    0    0  0.85665353049E-02  0.66346114465E-01  0.11303065959E+00  0.13264457026E+00  0.18532662497E-01 0.  0.
         14    1    1    2    0    0 -0.49822373816E-04  0.23678582748E-02 -0.23967230556E-01  0.24083965114E-01  0.00000000000E+00 0. -1.
     999901    1    3    3    0    0 -0.85167129311E-02 -0.68713972740E-01 -0.89063429034E-01  0.88720146463E+00  0.88000000000E+00 0.  1.
        -11    1    4    4    0    0 -0.58066968726E-02  0.15677333054E-01  0.25894214785E-01  0.30826416928E-01  0.51100000000E-03 0. -1.
         11    1    4    4    0    0  0.14373232178E-01  0.50668781411E-01  0.87136444805E-01  0.10181815333E+00  0.51100000000E-03 0.  1.
</event>
<event>
 8    1  0.1099478E+005  0.1043930E+01  0.7957747E-01            NaN
         13   -1    0    0    0    0  0.00000000000E+00  0.00000000000E+00  0.74505805969E-08  0.10566000000E+00  0.10566000000E+00 0. -1.
     999900   -1    0    0    0    0 -0.00000000000E+00 -0.00000000000E+00 -0.74505805969E-08  0.93827000000E+00  0.93827000000E+00 0. -1.
     999902    2    1    2    0    0 -0.58617737836E-02  0.19076342851E-01  0.12713175346E-01  0.10202679613E+01  0.10199935396E+01 0.  0.
     999903    2    3    3    0    0  0.77166919966E-01 -0.41616147363E-01 -0.91324646834E-01  0.12819105272E+00  0.20152360180E-01 0.  0.
         14    1    1    2    0    0  0.58617737836E-02 -0.19076342851E-01 -0.12713175346E-01  0.23662038709E-01  0.00000000000E+00 0.  1.
     999901    1    3    3    0    0 -0.83028693750E-01  0.60692490214E-01  0.10403782218E+00  0.89207690857E+00  0.88000000000E+00 0. -1.
        -11    1    4    4    0    0  0.25796883939E-01 -0.77459907042E-02 -0.39106691233E-01  0.47487619578E-01  0.51100000000E-03 0. -1.
         11    1    4    4    0    0  0.51370036027E-01 -0.33870156659E-01 -0.52217955601E-01  0.80703433147E-01  0.51100000000E-03 0.  1.
</event>
<event>
 8    1  0.1099478E+005  0.1043930E+01  0.7957747E-01            NaN
         13   -1    0    0    0    0  0.00000000000E+00  0.00000000000E+00  0.74505805969E-08  0.10566000000E+00  0.10566000000E+00 0. -1.
     999900   -1    0    0    0    0 -0.00000000000E+00 -0.00000000000E+00 -0.74505805969E-08  0.93827000000E+00  0.93827000000E+00 0.  1.
     999902    2    1    2    0    0 -0.15113865502E-01  0.15295809052E-01  0.10102582924E-01  0.10201717828E+01  0.10198950992E+01 0.  0.
     999903    2    3    3    0    0  0.95662220750E-01  0.78496194133E-01  0.36375087540E-01  0.13058992904E+00  0.20436966529E-01 0.  0.
         14    1    1    2    0    0  0.15113865502E-01 -0.15295809052E-01 -0.10102582924E-01  0.23758217246E-01  0.00000000000E+00 0.  1.
     999901    1    3    3    0    0 -0.11077608625E+00 -0.63200385081E-01 -0.26272504616E-01  0.88958185371E+00  0.88000000000E+00 0.  1.
        -11    1    4    4    0    0  0.69513680581E-01  0.61714958946E-01  0.18631583439E-01  0.94806566060E-01  0.51100000000E-03 0.  1.
         11    1    4    4    0    0  0.26148540169E-01  0.16781235187E-01  0.17743504101E-01  0.35783362980E-01  0.51100000000E-03 0. -1.
</event>
<event>
 8    1  0.1099478E+005  0.1043930E+01  0.7957747E-01            NaN
         13   -1    0    0    0    0  0.00000000000E+00  0.00000000000E+00  0.74505805969E-08  0.10566000000E+00  0.10566000000E+00 0.  1.
     999900   -1    0    0    0    0 -0.00000000000E+00 -0.00000000000E+00 -0.74505805969E-08  0.93827000000E+00  0.93827000000E+00 0.  1.
     999902    2    1    2    0    0 -0.10613835287E-01 -0.76641482982E-02  0.19808623557E-01  0.10201860695E+01  0.10199097226E+01 0.  0.
     999903    2    3    3    0    0  0.29696246228E-01 -0.12559532102E+00  0.93700579073E-03  0.13120417872E+00  0.23613700083E-01 0.  0.
         14    1    1    2    0    0  0.10613835287E-01  0.76641482982E-02 -0.19808623557E-01  0.23743930506E-01  0.00000000000E+00 0. -1.
     999901    1    3    3    0    0 -0.40310081516E-01  0.11793117272E+00  0.18871617766E-01  0.88898189078E+00  0.88000000000E+00 0. -1.
        -11    1    4    4    0    0  0.19066939770E-01 -0.34082398261E-01 -0.61735595692E-03  0.39061493991E-01  0.51100000000E-03 0. -1.
         11    1    4    4    0    0  0.10629306458E-01 -0.91512922757E-01  0.15543617476E-02  0.92142684727E-01  0.51100000000E-03 0.  1.
</event>
<event>
 8    1  0.1099478E+005  0.1043930E+01  0.7957747E-01            NaN
         13   -1    0    0    0    0  0.00000000000E+00  0.00000000000E+00  0.74505805969E-08  0.10566000000E+00  0.10566000000E+00 0. -1.
     999900   -1    0    0    0    0 -0.00000000000E+00 -0.00000000000E+00 -0.74505805969E-08  0.93827000000E+00  0.93827000000E+00 0.  1.
     999902    2    1    2    0    0  0.22448370604E-01  0.23364461606E-02  0.82517472633E-02  0.10198991936E+01  0.10196160481E+01 0.  0.
     999903    2    3    3    0    0  0.22519206895E-01 -0.67325562701E-01  0.10887990068E+00  0.13142925840E+00  0.19467180560E-01 0.  0.
         14    1    1    2    0    0 -0.22448370604E-01 -0.23364461606E-02 -0.82517472633E-02  0.24030806402E-01  0.00000000000E+00 0. -1.
     999901    1    3    3    0    0 -0.70836291030E-04  0.69662008862E-01 -0.10062815341E+00  0.88846993520E+00  0.88000000000E+00 0.  1.
        -11    1    4    4    0    0  0.20812976542E-01 -0.32937753765E-01  0.62766322691E-01  0.73877926343E-01  0.51100000000E-03 0. -1.
         11    1    4    4    0    0  0.17062303538E-02 -0.34387808936E-01  0.46113577987E-01  0.57551332054E-01  0.51100000000E-03 0.  1.
</event>
<event>
 8    1  0.1099478E+005  0.1043930E+01  0.7957747E-01            NaN
         13   -1    0    0    0    0  0.00000000000E+00  0.00000000000E+00  0.74505805969E-08  0.10566000000E+00  0.10566000000E+00 0.  1.
     999900   -1    0    0    0    0 -0.00000000000E+00 -0.00000000000E+00 -0.74505805969E-08  0.93827000000E+00  0.93827000000E+00 0.  1.
     999902    2    1    2    0    0 -0.69601269571E-02  0.16967786402E-01 -0.16726553092E-01  0.10191081000E+01  0.10188057679E+01 0.  0.
     999903    2    3    3    0    0 -0.21440515239E-01 -0.28175550630E-01  0.12047651588E+00  0.12721557020E+00  0.20387571654E-01 0.  0.
         14    1    1    2    0    0  0.69601269571E-02 -0.16967786402E-01  0.16726553092E-01  0.24821900027E-01  0.00000000000E+00 0.  1.
     999901    1    3    3    0    0  0.14480388282E-01  0.45143337032E-01 -0.13720306897E+00  0.89189252977E+00  0.88000000000E+00 0.  1.
        -11    1    4    4    0    0 -0.14422926230E-01 -0.18824260194E-01  0.45307406680E-01  0.51140940488E-01  0.51100000000E-03 0. -1.
         11    1    4    4    0    0 -0.70175890083E-02 -0.93512904359E-02  0.75169109195E-01  0.76074629716E-01  0.51100000000E-03 0.  1.
</event>
<event>
 8    1  0.1099478E+005  0.1043930E+01  0.7957747E-01            NaN
         13   -1    0    0    0    0  0.00000000000E+00  0.00000000000E+00  0.74505805969E-08  0.10566000000E+00  0.10566000000E+00 0. -1.
     999900   -1    0    0    0    0 -0.00000000000E+00 -0.00000000000E+00 -0.74505805969E-08  0.93827000000E+00  0.93827000000E+00 0. -1.
     999902    2    1    2    0    0  0.20175200924E-01 -0.38527425752E-02 -0.96844286414E-02  0.10212216201E+01  0.10209691116E+01 0.  0.
     999903    2    3    3    0    0  0.38158158942E-01 -0.31924123900E-01 -0.12216432457E+00  0.13343610763E+00  0.20146410147E-01 0.  0.
         14    1    1    2    0    0 -0.20175200924E-01  0.38527425752E-02  0.96844286414E-02  0.22708379858E-01  0.00000000000E+00 0. -1.
     999901    1    3    3    0    0 -0.17982958018E-01  0.28071381325E-01  0.11247989593E+00  0.88778551251E+00  0.88000000000E+00 0.  1.
        -11    1    4    4    0    0  0.21086227961E-01 -0.10433255043E-01 -0.36035047645E-01  0.43037978579E-01  0.51100000000E-03 0.  1.
         11    1    4    4    0    0  0.17071930981E-01 -0.21490868857E-01 -0.86129276928E-01  0.90398129056E-01  0.51100000000E-03 0. -1.
</event>
<event>
 8    1  0.1099478E+005  0.1043930E+01  0.7957747E-01            NaN
         13   -1    0    0    0    0  0.00000000000E+00  0.00000000000E+00  0.74505805969E-08  0.10566000000E+00  0.10566000000E+00 0. -1.
     999900   -1    0    0    0    0 -0.00000000000E+00 -0.00000000000E+00 -0.74505805969E-08  0.93827000000E+00  0.93827000000E+00 0.  1.
     999902    2    1    2    0    0  0.23091882886E-01 -0.44387636430E-02 -0.12378864009E-03  0.10204150473E+01  0.10201440662E+01 0.  0.
     999903    2    3    3    0    0 -0.43941677647E-01 -0.12081756831E+00  0.59964568452E-02  0.13020440826E+00  0.19735110534E-01 0.  0.
         14    1    1    2    0    0 -0.23091882886E-01  0.44387636430E-02  0.12378864009E-03  0.23514952723E-01  0.00000000000E+00 0.  1.
     999901    1    3    3    0    0  0.67033560534E-01  0.11637880467E+00 -0.61202454853E-02  0.89021063902E+00  0.88000000000E+00 0. -1.
        -11    1    4    4    0    0 -0.33946852241E-01 -0.72839462107E-01  0.10227446553E-01  0.81011343657E-01  0.51100000000E-03 0. -1.
         11    1    4    4    0    0 -0.99948254068E-02 -0.47978106207E-01 -0.42309897076E-02  0.49193064603E-01  0.51100000000E-03 0.  1.
</event>
<event>
 8    1  0.1099478E+005  0.1043930E+01  0.7957747E-01            NaN
         13   -1    0    0    0    0  0.00000000000E+00  0.00000000000E+00  0.74505805969E-08  0.10566000000E+00  0.10566000000E+00 0.  1.
     999900   -1    0    0    0    0 -0.00000000000E+00 -0.00000000000E+00 -0.74505805969E-08  0.93827000000E+00  0.93827000000E+00 0.  1.
     999902    2    1    2    0    0  0.52739070525E-02 -0.11309988565E-01  0.21536585378E-01  0.10190391493E+01  0.10187351145E+01 0.  0.
     999903    2    3    3    0    0  0.10573640342E-01 -0.10060612544E+00 -0.77592825202E-01  0.12896694593E+00  0.19453335816E-01 0.  0.
         14    1    1    2    0    0 -0.52739070525E-02  0.11309988565E-01 -0.21536585378E-01  0.24890850663E-01  0.00000000000E+00 0. -1.
     999901    1    3    3    0    0 -0.52997332895E-02  0.89296136873E-01  0.99129410580E-01  0.89007220341E+00  0.88000000000E+00 0.  1.
        -11    1    4    4    0    0 -0.97072044216E-03 -0.43495297636E-01 -0.23446691247E-01  0.49424605876E-01  0.51100000000E-03 0. -1.
         11    1    4    4    0    0  0.11544360784E-01 -0.57110827802E-01 -0.54146133955E-01  0.79542340055E-01  0.51100000000E-03 0.  1.
</event>
<event>
 8    1  0.1099478E+005  0.1043930E+01  0.7957747E-01            NaN
         13   -1    0    0    0    0  0.00000000000E+00  0.00000000000E+00  0.74505805969E-08  0.10566000000E+00  0.10566000000E+00 0. -1.
     999900   -1    0    0    0    0 -0.00000000000E+00 -0.00000000000E+00 -0.74505805969E-08  0.93827000000E+00  0.93827000000E+00 0.  1.
     999902    2    1    2    0    0  0.82140494009E-03  0.22559309265E-01  0.76584058613E-02  0.10200920403E+01  0.10198134743E+01 0.  0.
     999903    2    3    3    0    0 -0.76450725612E-01  0.83573881950E-01 -0.64164968038E-01  0.13169328005E+00  0.19916568387E-01 0.  0.
         14    1    1    2    0    0 -0.82140494009E-03 -0.22559309265E-01 -0.76584058613E-02  0.23837959663E-01  0.00000000000E+00 0.  1.
     999901    1    3    3    0    0  0.77272130552E-01 -0.61014572685E-01  0.71823373899E-01  0.88839876029E+00  0.88000000000E+00 0.  1.
        -11    1    4    4    0    0 -0.38246270830E-02  0.13509675172E-01 -0.67274960778E-02  0.15577529331E-01  0.51100000000E-03 0.  1.
         11    1    4    4    0    0 -0.72626098529E-01  0.70064206778E-01 -0.57437471960E-01  0.11611575072E+00  0.51100000000E-03 0. -1.
</event>
<event>
 8    1  0.1099478E+005  0.1043930E+01  0.7957747E-01            NaN
         13   -1    0    0    0    0  0.00000000000E+00  0.00000000000E+00  0.74505805969E-08  0.10566000000E+00  0.10566000000E+00 0. -1.
     999900   -1    0    0    0    0 -0.00000000000E+00 -0.00000000000E+00 -0.74505805969E-08  0.93827000000E+00  0.93827000000E+00 0. -1.
     999902    2    1    2    0    0 -0.17868865962E-01 -0.12744568861E-01 -0.94670338699E-02  0.10200271730E+01  0.10197470709E+01 0.  0.
     999903    2    3    3    0    0 -0.19073028709E-01 -0.10976873924E-01  0.12628751135E+00  0.12961498125E+00  0.19163393625E-01 0.  0.
         14    1    1    2    0    0  0.17868865962E-01  0.12744568861E-01  0.94670338699E-02  0.23902826957E-01  0.00000000000E+00 0. -1.
     999901    1    3    3    0    0  0.12041627469E-02 -0.17676949362E-02 -0.13575454522E+00  0.89041219180E+00  0.88000000000E+00 0. -1.
        -11    1    4    4    0    0 -0.10296472522E-01 -0.15644913324E-01  0.93113444141E-01  0.94979762372E-01  0.51100000000E-03 0. -1.
         11    1    4    4    0    0 -0.87765561871E-02  0.46680393994E-02  0.33174067209E-01  0.34635218875E-01  0.51100000000E-03 0.  1.
</event>
<event>
 8    1  0.1099478E+005  0.1043930E+01  0.7957747E-01            NaN
         13   -1    0    0    0    0  0.00000000000E+00  0.00000000000E+00  0.74505805969E-08  0.10566000000E+00  0.10566000000E+00 0.  1.
     999900   -1    0    0    0    0 -0.00000000000E+00 -0.00000000000E+00 -0.74505805969E-08  0.93827000000E+00  0.93827000000E+00 0. -1.
     999902    2    1    2    0    0  0.18108267143E-01  0.13323119812E-01 -0.37034896585E-02  0.10211455602E+01  0.10208913382E+01 0.  0.
     999903    2    3    3    0    0 -0.29090089953E-01 -0.40990031348E-01 -0.11895675876E+00  0.13071818006E+00  0.20251324390E-01 0.  0.
         14    1    1    2    0    0 -0.18108267143E-01 -0.13323119812E-01  0.37034896585E-02  0.22784439781E-01  0.00000000000E+00 0.  1.
     999901    1    3    3    0    0  0.47198357096E-01  0.54313151160E-01  0.11525326910E+00  0.89042738016E+00  0.88000000000E+00 0.  1.
        -11    1    4    4    0    0 -0.22440915471E-01 -0.20144211130E-01 -0.86185325645E-01  0.91310215238E-01  0.51100000000E-03 0.  1.
         11    1    4    4    0    0 -0.66491744818E-02 -0.20845820218E-01 -0.32771433116E-01  0.39407964821E-01  0.51100000000E-03 0. -1.
</event>
<event>
 8    1  0.1099478E+005  0.1043930E+01  0.7957747E-01            NaN
         13   -1    0    0    0    0  0.00000000000E+00  0.00000000000E+00  0.74505805969E-08  0.10566000000E+00  0.10566000000E+00 0.  1.
     999900   -1    0    0    0    0 -0.00000000000E+00 -0.00000000000E+00 -0.74505805969E-08  0.93827000000E+00  0.93827000000E+00 0.  1.
     999902    2    1    2    0    0  0.55313500527E-02  0.11754639209E-01 -0.20181092457E-01  0.10199290861E+01  0.10196466529E+01 0.  0.
     999903    2    3    3    0    0 -0.15393248980E-01  0.10888778729E+00 -0.71843195786E-01  0.13283176322E+00  0.19731452169E-01 0.  0.
         14    1    1    2    0    0 -0.55313500527E-02 -0.11754639209E-01  0.20181092457E-01  0.24000913922E-01  0.00000000000E+00 0.  1.
     999901    1    3    3    0    0  0.20924599033E-01 -0.97133148079E-01  0.51662103329E-01  0.88709732286E+00  0.88000000000E+00 0. -1.
        -11    1    4    4    0    0  0.19019726512E-02  0.15210318888E-01 -0.17059849193E-01  0.22940594503E-01  0.51100000000E-03 0. -1.
         11    1    4    4    0    0 -0.17295221631E-01  0.93677468400E-01 -0.54783346593E-01  0.10989116872E+00  0.51100000000E-03 0.  1.
</event>
<event>
 8    1  0.1099478E+005  0.1043930E+01  0.7957747E-01            NaN
         13   -1    0    0    0    0  0.00000000000E+00  0.00000000000E+00  0.74505805969E-08  0.10566000000E+00  0.10566000000E+00 0.  1.
     999900   -1    0    0    0    0 -0.00000000000E+00 -0.00000000000E+00 -0.74505805969E-08  0.93827000000E+00  0.93827000000E+00 0.  1.
     999902    2    1    2    0    0  0.20350183610E-01  0.67967650829E-02  0.55005417313E-02  0.10217809154E+01  0.10215408250E+01 0.  0.
     999903    2    3    3    0    0  0.11496070137E+00  0.42450914790E-02 -0.65658644000E-01  0.13385001111E+00  0.19255759714E-01 0.  0.
         14    1    1    2    0    0 -0.20350183610E-01 -0.67967650829E-02 -0.55005417313E-02  0.22149084584E-01  0.00000000000E+00 0. -1.
     999901    1    3    3    0    0 -0.94610517756E-01  0.25516736039E-02  0.71159185731E-01  0.88793090431E+00  0.88000000000E+00 0. -1.
        -11    1    4    4    0    0  0.37066659095E-01  0.91597819877E-02 -0.26876539356E-01  0.46695270759E-01  0.51100000000E-03 0. -1.
         11    1    4    4    0    0  0.77894042270E-01 -0.49146905087E-02 -0.38782104644E-01  0.87154740351E-01  0.51100000000E-03 0.  1.
</event>
<event>
 8    1  0.1099478E+005  0.1043930E+01  0.7957747E-01            NaN
         13   -1    0    0    0    0  0.00000000000E+00  0.00000000000E+00  0.74505805969E-08  0.10566000000E+00  0.10566000000E+00 0.  1.
     999900   -1    0    0    0    0 -0.00000000000E+00 -0.00000000000E+00 -0.74505805969E-08  0.93827000000E+00  0.93827000000E+00 0.  1.
     999902    2    1    2    0    0  0.10714289287E-01 -0.40123184839E-02  0.20613705510E-01  0.10203541745E+01  0.10200817721E+01 0.  0.
     999903    2    3    3    0    0 -0.73113201791E-01  0.38933505348E-02 -0.10281295309E+00  0.12776037664E+00  0.19786663763E-01 0.  0.
         14    1    1    2    0    0 -0.10714289287E-01  0.40123184839E-02 -0.20613705510E-01  0.23575825530E-01  0.00000000000E+00 0.  1.
     999901    1    3    3    0    0  0.83827491078E-01 -0.79056690187E-02  0.12342665860E+00  0.89259379783E+00  0.88000000000E+00 0. -1.
        -11    1    4    4    0    0 -0.61024644157E-01  0.67123765648E-03 -0.71312241841E-01  0.93862424388E-01  0.51100000000E-03 0.  1.
         11    1    4    4    0    0 -0.12088557633E-01  0.32221128783E-02 -0.31500711248E-01  0.33897952257E-01  0.51100000000E-03 0. -1.
</event>
<event>
 8    1  0.1099478E+005  0.1043930E+01  0.7957747E-01            NaN
         13   -1    0    0    0    0  0.00000000000E+00  0.00000000000E+00  0.74505805969E-08  0.10566000000E+00  0.10566000000E+00 0.  1.
     999900   -1    0    0    0    0 -0.00000000000E+00 -0.00000000000E+00 -0.74505805969E-08  0.93827000000E+00  0.93827000000E+00 0.  1.
     999902    2    1    2    0    0  0.21230681728E-01 -0.87977891153E-02  0.76532709524E-02  0.10197077892E+01  0.10194200605E+01 0.  0.
     999903    2    3    3    0    0  0.60759393183E-01 -0.33390968830E-01  0.11106210183E+00  0.13243064545E+00  0.19910417666E-01 0.  0.
         14    1    1    2    0    0 -0.21230681728E-01  0.87977891153E-02 -0.76532709524E-02  0.24222210804E-01  0.00000000000E+00 0. -1.
     999901    1    3    3    0    0 -0.39528711455E-01  0.24593179714E-01 -0.10340883088E+00  0.88727714375E+00  0.88000000000E+00 0.  1.
        -11    1    4    4    0    0  0.25140242304E-01 -0.32065594003E-02  0.42314981910E-01  0.49326794152E-01  0.51100000000E-03 0.  1.
         11    1    4    4    0    0  0.35619150878E-01 -0.30184409429E-01  0.68747119918E-01  0.83103851294E-01  0.51100000000E-03 0. -1.
</event>
<event>
 8    1  0.1099478E+005  0.1043930E+01  0.7957747E-01            NaN
         13   -1    0    0    0    0  0.00000000000E+00  0.00000000000E+00  0.74505805969E-08  0.10566000000E+00  0.10566000000E+00 0. -1.
     999900   -1    0    0    0    0 -0.00000000000E+00 -0.00000000000E+00 -0.74505805969E-08  0.93827000000E+00  0.93827000000E+00 0. -1.
     999902    2    1    2    0    0  0.14594603750E-01 -0.16538658302E-01 -0.84344258759E-02  0.10203149790E+01  0.10200416595E+01 0.  0.
     999903    2    3    3    0    0 -0.14061067158E-01 -0.89266258188E-01 -0.95023585782E-01  0.13261675670E+00  0.19787466787E-01 0.  0.
         14    1    1    2    0    0 -0.14594603750E-01  0.16538658302E-01  0.84344258759E-02  0.23615021002E-01  0.00000000000E+00 0.  1.
     999901    1    3    3    0    0  0.28655670908E-01  0.72727599886E-01  0.86589159906E-01  0.88769822230E+00  0.88000000000E+00 0.  1.
        -11    1    4    4    0    0 -0.76338388697E-02 -0.10424767584E-01 -0.18374478394E-01  0.22468508013E-01  0.51100000000E-03 0.  1.
         11    1    4    4    0    0 -0.64272282881E-02 -0.78841490604E-01 -0.76649107388E-01  0.11014824869E+00  0.51100000000E-03 0. -1.
</event>
<event>
 8    1  0.1099478E+005  0.1043930E+01  0.7957747E-01            NaN
         13   -1    0    0    0    0  0.00000000000E+00  0.00000000000E+00  0.74505805969E-08  0.10566000000E+00  0.10566000000E+00 0.  1.
     999900   -1    0    0    0    0 -0.00000000000E+00 -0.00000000000E+00 -0.74505805969E-08  0.93827000000E+00  0.93827000000E+00 0.  1.
     999902    2    1    2    0    0 -0.88770367719E-03  0.23400000762E-01  0.30443782593E-02  0.10203160996E+01  0.10200428064E+01 0.  0.
     999903    2    3    3    0    0  0.76958552974E-01 -0.79214343617E-01 -0.62401482753E-01  0.12853535071E+00  0.20733070753E-01 0.  0.
         14    1    1    2    0    0  0.88770367719E-03 -0.23400000762E-01 -0.30443782593E-02  0.23613900407E-01  0.00000000000E+00 0. -1.
     999901    1    3    3    0    0 -0.77846256652E-01  0.10261434438E+00  0.65445861012E-01  0.89178074888E+00  0.88000000000E+00 0. -1.
        -11    1    4    4    0    0  0.52002185138E-01 -0.63307247337E-01 -0.38664594507E-01  0.90593856381E-01  0.51100000000E-03 0. -1.
         11    1    4    4    0    0  0.24956367836E-01 -0.15907096279E-01 -0.23736888246E-01  0.37941494333E-01  0.51100000000E-03 0.  1.
</event>
<event>
 8    1  0.1099478E+005  0.1043930E+01  0.7957747E-01            NaN
         13   -1    0    0    0    0  0.00000000000E+00  0.00000000000E+00  0.74505805969E-08  0.10566000000E+00  0.10566000000E+00 0. -1.
     999900   -1    0    0    0    0 -0.00000000000E+00 -0.00000000000E+00 -0.74505805969E-08  0.93827000000E+00  0.93827000000E+00 0.  1.
     999902    2    1    2    0    0 -0.22225187838E-01 -0.56972502703E-02 -0.96399853165E-02  0.10190433178E+01  0.10187393860E+01 0.  0.
     999903    2    3    3    0    0  0.24688919395E-01  0.37109958241E-01 -0.12034389033E+00  0.12983651104E+00  0.19702180565E-01 0.  0.
         14    1    1    2    0    0  0.22225187838E-01  0.56972502703E-02  0.96399853165E-02  0.24886682221E-01  0.00000000000E+00 0. -1.
     999901    1    3    3    0    0 -0.46914107232E-01 -0.42807208511E-01  0.11070390501E+00  0.88920680673E+00  0.88000000000E+00 0. -1.
        -11    1    4    4    0    0  0.94612089687E-03 -0.13018036960E-02 -0.49196885523E-03  0.17586904130E-02  0.51100000000E-03 0.  1.
         11    1    4    4    0    0  0.23742798498E-01  0.38411761937E-01 -0.11985192147E+00  0.12807782063E+00  0.51100000000E-03 0. -1.
</event>
<event>
 8    1  0.1099478E+005  0.1043930E+01  0.7957747E-01            NaN
         13   -1    0    0    0    0  0.00000000000E+00  0.00000000000E+00  0.74505805969E-08  0.10566000000E+00  0.10566000000E+00 0.  1.
     999900   -1    0    0    0    0 -0.00000000000E+00 -0.00000000000E+00 -0.74505805969E-08  0.93827000000E+00  0.93827000000E+00 0.  1.
     999902    2    1    2    0    0 -0.22990533568E-01  0.16826161686E-02 -0.12774129419E-02  0.10208426092E+01  0.10205815034E+01 0.  0.
     999903    2    3    3    0    0  0.89271233835E-01 -0.89446976858E-01  0.15443761225E-01  0.12888582502E+00  0.20073148013E-01 0.  0.
         14    1    1    2    0    0  0.22990533568E-01 -0.16826161686E-02  0.12774129419E-02  0.23087390817E-01  0.00000000000E+00 0. -1.
     999901    1    3    3    0    0 -0.11226176740E+00  0.91129593027E-01 -0.16721174166E-01  0.89195678416E+00  0.88000000000E+00 0. -1.
        -11    1    4    4    0    0  0.26051919696E-01 -0.19953115196E-01  0.11768766384E-01  0.34865374071E-01  0.51100000000E-03 0.  1.
         11    1    4    4    0    0  0.63219314138E-01 -0.69493861662E-01  0.36749948409E-02  0.94020450950E-01  0.51100000000E-03 0. -1.
</event>
<event>
 8    1  0.1099478E+005  0.1043930E+01  0.7957747E-01            NaN
         13   -1    0    0    0    0  0.00000000000E+00  0.00000000000E+00  0.74505805969E-08  0.10566000000E+00  0.10566000000E+00 0.  1.
     999900   -1    0    0    0    0 -0.00000000000E+00 -0.00000000000E+00 -0.74505805969E-08  0.93827000000E+00  0.93827000000E+00 0. -1.
     999902    2    1    2    0    0 -0.19675156526E-01  0.11913673681E-01 -0.25551555294E-02  0.10207874802E+01  0.10205251116E+01 0.  0.
     999903    2    3    3    0    0 -0.10537956699E+00  0.56126310885E-01 -0.56897686832E-01  0.13385280727E+00  0.20596391313E-01 0.  0.
         14    1    1    2    0    0  0.19675156526E-01 -0.11913673681E-01  0.25551555294E-02  0.23142519843E-01  0.00000000000E+00 0. -1.
     999901    1    3    3    0    0  0.85704410463E-01 -0.44212637204E-01  0.54342531302E-01  0.88693467289E+00  0.88000000000E+00 0.  1.
        -11    1    4    4    0    0 -0.57179226464E-01  0.25916376582E-01 -0.40267143866E-01  0.74584358349E-01  0.51100000000E-03 0.  1.
         11    1    4    4    0    0 -0.48200340524E-01  0.30209934303E-01 -0.16630542966E-01  0.59268448921E-01  0.51100000000E-03 0. -1.
</event>
<event>
 8    1  0.1099478E+005  0.1043930E+01  0.7957747E-01            NaN
         13   -1    0    0    0    0  0.00000000000E+00  0.00000000000E+00  0.74505805969E-08  0.10566000000E+00  0.10566000000E+00 0.  1.
     999900   -1    0    0    0    0 -0.00000000000E+00 -0.00000000000E+00 -0.74505805969E-08  0.93827000000E+00  0.93827000000E+00 0.  1.
     999902    2    1    2    0    0 -0.11090266303E-02  0.22221359282E-01 -0.80298737054E-02  0.10202762980E+01  0.10200020718E+01 0.  0.
     999903    2    3    3    0    0 -0.10270852353E+00 -0.75120145282E-01  0.58326639178E-02  0.12899071173E+00  0.20310261223E-01 0.  0.
         14    1    1    2    0    0  0.11090266303E-02 -0.22221359282E-01  0.80298737054E-02  0.23653702039E-01  0.00000000000E+00 0.  1.
     999901    1    3    3    0    0  0.10159949690E+00  0.97341504564E-01 -0.13862537623E-01  0.89128558623E+00  0.88000000000E+00 0.  1.
        -11    1    4    4    0    0 -0.67459847539E-01 -0.39482337268E-01  0.94363188755E-02  0.78733672727E-01  0.51100000000E-03 0.  1.
         11    1    4    4    0    0 -0.35248675989E-01 -0.35637808013E-01 -0.36036549577E-02  0.50257039000E-01  0.51100000000E-03 0. -1.
</event>
<event>
 8    1  0.1099478E+005  0.1043930E+01  0.7957747E-01            NaN
         13   -1    0    0    0    0  0.00000000000E+00  0.00000000000E+00  0.74505805969E-08  0.10566000000E+00  0.10566000000E+00 0.  1.
     999900   -1    0    0    0    0 -0.00000000000E+00 -0.00000000000E+00 -0.74505805969E-08  0.93827000000E+00  0.93827000000E+00 0. -1.
     999902    2    1    2    0    0 -0.27798122303E-01 -0.77369209573E-02 -0.12364449897E-01  0.10125377212E+01  0.10120509679E+01 0.  0.
     999903    2    3    3    0    0  0.90702066653E-01  0.76727388408E-01  0.39297020687E-03  0.12049553264E+00  0.20126150472E-01 0.  0.
         14    1    1    2    0    0  0.27798122303E-01  0.77369209573E-02  0.12364449897E-01  0.31392278839E-01  0.00000000000E+00 0.  1.
     999901    1    3    3    0    0 -0.11850018896E+00 -0.84464309366E-01 -0.12757420104E-01  0.89204218852E+00  0.88000000000E+00 0.  1.
        -11    1    4    4    0    0  0.68030500102E-01  0.63713115321E-01 -0.65651925052E-02  0.93439139988E-01  0.51100000000E-03 0.  1.
         11    1    4    4    0    0  0.22671566550E-01  0.13014273088E-01  0.69581627121E-02  0.27056392649E-01  0.51100000000E-03 0. -1.
</event>
<event>
 8    1  0.1099478E+005  0.1043930E+01  0.7957747E-01            NaN
         13   -1    0    0    0    0  0.00000000000E+00  0.00000000000E+00  0.74505805969E-08  0.10566000000E+00  0.10566000000E+00 0.  1.
     999900   -1    0    0    0    0 -0.00000000000E+00 -0.00000000000E+00 -0.74505805969E-08  0.93827000000E+00  0.93827000000E+00 0.  1.
     999902    2    1    2    0    0  0.11016256538E-01  0.11435792878E-01  0.82831682286E-02  0.10260206130E+01  0.10258642952E+01 0.  0.
     999903    2    3    3    0    0 -0.17316700938E-01  0.72096445404E-01 -0.11146292575E+00  0.13539072451E+00  0.20221248621E-01 0.  0.
         14    1    1    2    0    0 -0.11016256538E-01 -0.11435792878E-01 -0.82831682286E-02  0.17909387001E-01  0.00000000000E+00 0. -1.
     999901    1    3    3    0    0  0.28332957477E-01 -0.60660652526E-01  0.11974609398E+00  0.89062988849E+00  0.88000000000E+00 0. -1.
        -11    1    4    4    0    0 -0.27497535788E-02  0.33912209642E-01 -0.66009057071E-01  0.74263421978E-01  0.51100000000E-03 0. -1.
         11    1    4    4    0    0 -0.14566947359E-01  0.38184235762E-01 -0.45453868679E-01  0.61127302533E-01  0.51100000000E-03 0.  1.
</event>
<event>
 8    1  0.1099478E+005  0.1043930E+01  0.7957747E-01            NaN
         13   -1    0    0    0    0  0.00000000000E+00  0.00000000000E+00  0.74505805969E-08  0.10566000000E+00  0.10566000000E+00 0. -1.
     999900   -1    0    0    0    0 -0.00000000000E+00 -0.00000000000E+00 -0.74505805969E-08  0.93827000000E+00  0.93827000000E+00 0.  1.
     999902    2    1    2    0    0  0.97406284292E-02 -0.14382743034E-01  0.16959680327E-01  0.10196529760E+01  0.10193639279E+01 0.  0.
     999903    2    3    3    0    0  0.11898089863E-01 -0.44944348941E-01  0.12271567142E+00  0.13279165870E+00  0.20320668442E-01 0.  0.
         14    1    1    2    0    0 -0.97406284292E-02  0.14382743034E-01 -0.16959680327E-01  0.24277024039E-01  0.00000000000E+00 0.  1.
     999901    1    3    3    0    0 -0.21574614343E-02  0.30561605907E-01 -0.10575599109E+00  0.88686131726E+00  0.88000000000E+00 0.  1.
        -11    1    4    4    0    0  0.88747076832E-02 -0.96256285651E-02  0.52801196256E-01  0.54402579064E-01  0.51100000000E-03 0. -1.
         11    1    4    4    0    0  0.30233821803E-02 -0.35318720376E-01  0.69914475161E-01  0.78389079640E-01  0.51100000000E-03 0.  1.
</event>
<event>
 8    1  0.1099478E+005  0.1043930E+01  0.7957747E-01            NaN
         13   -1    0    0    0    0  0.00000000000E+00  0.00000000000E+00  0.74505805969E-08  0.10566000000E+00  0.10566000000E+00 0. -1.
     999900   -1    0    0    0    0 -0.00000000000E+00 -0.00000000000E+00 -0.74505805969E-08  0.93827000000E+00  0.93827000000E+00 0. -1.
     999902    2    1    2    0    0  0.61638948733E-02 -0.59595817413E-02 -0.22483704398E-01  0.10198670164E+01  0.10195831031E+01 0.  0.
     999903    2    3    3    0    0 -0.20720791420E-01 -0.12514331618E+00 -0.28857688676E-01  0.13140307424E+00  0.18541869973E-01 0.  0.
         14    1    1    2    0    0 -0.61638948733E-02  0.59595817413E-02  0.22483704398E-01  0.24062983564E-01  0.00000000000E+00 0. -1.
     999901    1    3    3    0    0  0.26884686293E-01  0.11918373444E+00  0.63739842784E-02  0.88846394220E+00  0.88000000000E+00 0. -1.
        -11    1    4    4    0    0 -0.10188077357E-01 -0.73914669799E-01 -0.78051363760E-02  0.75022374040E-01  0.51100000000E-03 0.  1.
         11    1    4    4    0    0 -0.10532714063E-01 -0.51228646379E-01 -0.21052552300E-01  0.56380700197E-01  0.51100000000E-03 0. -1.
</event>
<event>
 8    1  0.1099478E+005  0.1043930E+01  0.7957747E-01            NaN
         13   -1    0    0    0    0  0.00000000000E+00  0.00000000000E+00  0.74505805969E-08  0.10566000000E+00  0.10566000000E+00 0.  1.
     999900   -1    0    0    0    0 -0.00000000000E+00 -0.00000000000E+00 -0.74505805969E-08  0.93827000000E+00  0.93827000000E+00 0. -1.
     999902    2    1    2    0    0  0.13122294089E-01  0.10159142387E-01  0.17948058001E-01  0.10194854595E+01  0.10191923599E+01 0.  0.
     999903    2    3    3    0    0  0.16372310494E-01  0.68976004555E-01  0.11030986604E+00  0.13269309962E+00  0.20333479458E-01 0.  0.
         14    1    1    2    0    0 -0.13122294089E-01 -0.10159142387E-01 -0.17948058001E-01  0.24444540540E-01  0.00000000000E+00 0. -1.
     999901    1    3    3    0    0 -0.32500164046E-02 -0.58816862169E-01 -0.92361808036E-01  0.88679235984E+00  0.88000000000E+00 0. -1.
        -11    1    4    4    0    0  0.91127907274E-02  0.41954228781E-01  0.48079908885E-01  0.64460367877E-01  0.51100000000E-03 0.  1.
         11    1    4    4    0    0  0.72595197664E-02  0.27021775774E-01  0.62229957153E-01  0.68232731745E-01  0.51100000000E-03 0. -1.
</event>
<event>
 8    1  0.1099478E+005  0.1043930E+01  0.7957747E-01            NaN
         13   -1    0    0    0    0  0.00000000000E+00  0.00000000000E+00  0.74505805969E-08  0.10566000000E+00  0.10566000000E+00 0.  1.
     999900   -1    0    0    0    0 -0.00000000000E+00 -0.00000000000E+00 -0.74505805969E-08  0.93827000000E+00  0.93827000000E+00 0.  1.
     999902    2    1    2    0    0  0.16510662247E-01  0.14536863642E-01 -0.90594173968E-02  0.10201393418E+01  0.10198618933E+01 0.  0.
     999903    2    3    3    0    0 -0.57615966866E-03 -0.10299466073E+00 -0.76195655124E-01  0.12962662821E+00  0.19724420990E-01 0.  0.
         14    1    1    2    0    0 -0.16510662247E-01 -0.14536863642E-01  0.90594173968E-02  0.23790658166E-01  0.00000000000E+00 0. -1.
     999901    1    3    3    0    0  0.17086821916E-01  0.11753152437E+00  0.67136237728E-01  0.89051271362E+00  0.88000000000E+00 0. -1.
        -11    1    4    4    0    0  0.64674387836E-02 -0.82671670884E-01 -0.55580529993E-01  0.99829301142E-01  0.51100000000E-03 0. -1.
         11    1    4    4    0    0 -0.70435984523E-02 -0.20322989846E-01 -0.20615125132E-01  0.29797327072E-01  0.51100000000E-03 0.  1.
</event>
<event>
 8    1  0.1099478E+005  0.1043930E+01  0.7957747E-01            NaN
         13   -1    0    0    0    0  0.00000000000E+00  0.00000000000E+00  0.74505805969E-08  0.10566000000E+00  0.10566000000E+00 0.  1.
     999900   -1    0    0    0    0 -0.00000000000E+00 -0.00000000000E+00 -0.74505805969E-08  0.93827000000E+00  0.93827000000E+00 0.  1.
     999902    2    1    2    0    0 -0.54843696735E-02  0.20616131544E-01 -0.12121562819E-01  0.10193935888E+01  0.10190982550E+01 0.  0.
     999903    2    3    3    0    0 -0.62118577841E-01 -0.74207404169E-01 -0.83616509460E-01  0.12961245622E+00  0.21028827981E-01 0.  0.
         14    1    1    2    0    0  0.54843696735E-02 -0.20616131544E-01  0.12121562819E-01  0.24536411224E-01  0.00000000000E+00 0.  1.
     999901    1    3    3    0    0  0.56634208168E-01  0.94823535713E-01  0.71494946641E-01  0.88978113256E+00  0.88000000000E+00 0. -1.
        -11    1    4    4    0    0 -0.50012468801E-02  0.14146112188E-03 -0.64770063742E-02  0.82003179314E-02  0.51100000000E-03 0. -1.
         11    1    4    4    0    0 -0.57117330961E-01 -0.74348865291E-01 -0.77139503086E-01  0.12141213829E+00  0.51100000000E-03 0.  1.
</event>
<event>
 8    1  0.1099478E+005  0.1043930E+01  0.7957747E-01            NaN
         13   -1    0    0    0    0  0.00000000000E+00  0.00000000000E+00  0.74505805969E-08  0.10566000000E+00  0.10566000000E+00 0. -1.
     999900   -1    0    0    0    0 -0.00000000000E+00 -0.00000000000E+00 -0.74505805969E-08  0.93827000000E+00  0.93827000000E+00 0. -1.
     999902    2    1    2    0    0 -0.15218857210E-01  0.24647233524E-02  0.16800052913E-01  0.10211280208E+01  0.10208734029E+01 0.  0.
     999903    2    3    3    0    0  0.35735941472E-01 -0.10116400876E+00  0.73701415310E-01  0.13176135254E+00  0.20443610802E-01 0.  0.
         14    1    1    2    0    0  0.15218857210E-01 -0.24647233524E-02 -0.16800052913E-01  0.22801979165E-01  0.00000000000E+00 0.  1.
     999901    1    3    3    0    0 -0.50954798682E-01  0.10362873212E+00 -0.56901362397E-01  0.88936666829E+00  0.88000000000E+00 0. -1.
        -11    1    4    4    0    0  0.21631682121E-01 -0.36448054541E-01  0.22136573994E-01  0.47819236510E-01  0.51100000000E-03 0.  1.
         11    1    4    4    0    0  0.14104259351E-01 -0.64715954224E-01  0.51564841315E-01  0.83942116031E-01  0.51100000000E-03 0. -1.
</event>
<event>
 8    1  0.1099478E+005  0.1043930E+01  0.7957747E-01            NaN
         13   -1    0    0    0    0  0.00000000000E+00  0.00000000000E+00  0.74505805969E-08  0.10566000000E+00  0.10566000000E+00 0.  1.
     999900   -1    0    0    0    0 -0.00000000000E+00 -0.00000000000E+00 -0.74505805969E-08  0.93827000000E+00  0.93827000000E+00 0.  1.
     999902    2    1    2    0    0 -0.14545162461E-01  0.18384287604E-01 -0.24808174362E-02  0.10203567474E+01  0.10200844052E+01 0.  0.
     999903    2    3    3    0    0  0.96494670309E-01 -0.38972403975E-01 -0.72911469023E-01  0.12874017557E+00  0.20685280281E-01 0.  0.
         14    1    1    2    0    0  0.14545162461E-01 -0.18384287604E-01  0.24808174362E-02  0.23573252574E-01  0.00000000000E+00 0.  1.
     999901    1    3    3    0    0 -0.11103983277E+00  0.57356691579E-01  0.70430651587E-01  0.89161657186E+00  0.88000000000E+00 0. -1.
        -11    1    4    4    0    0  0.16533335959E-01  0.86003723347E-03 -0.85892042256E-02  0.18658146001E-01  0.51100000000E-03 0. -1.
         11    1    4    4    0    0  0.79961334350E-01 -0.39832441208E-01 -0.64322264798E-01  0.11008202957E+00  0.51100000000E-03 0.  1.
</event>
<event>
 8    1  0.1099478E+005  0.1043930E+01  0.7957747E-01            NaN
         13   -1    0    0    0    0  0.00000000000E+00  0.00000000000E+00  0.74505805969E-08  0.10566000000E+00  0.10566000000E+00 0.  1.
     999900   -1    0    0    0    0 -0.00000000000E+00 -0.00000000000E+00 -0.74505805969E-08  0.93827000000E+00  0.93827000000E+00 0.  1.
     999902    2    1    2    0    0 -0.13743146284E-01  0.71300235572E-02  0.17080087546E-01  0.10208770024E+01  0.10206166829E+01 0.  0.
     999903    2    3    3    0    0 -0.97802147602E-01 -0.41506390322E-01 -0.73740604487E-01  0.13088834265E+00  0.20150458535E-01 0.  0.
         14    1    1    2    0    0  0.13743146284E-01 -0.71300235572E-02 -0.17080087546E-01  0.23052997555E-01  0.00000000000E+00 0. -1.
     999901    1    3    3    0    0  0.84059001318E-01  0.48636413879E-01  0.90820692032E-01  0.88998865979E+00  0.88000000000E+00 0. -1.
        -11    1    4    4    0    0 -0.50977211497E-01 -0.21572064083E-01 -0.26196567231E-01  0.61241744721E-01  0.51100000000E-03 0. -1.
         11    1    4    4    0    0 -0.46824936105E-01 -0.19934326239E-01 -0.47544037256E-01  0.69646597931E-01  0.51100000000E-03 0.  1.
</event>
<event>
 8    1  0.1099478E+005  0.1043930E+01  0.7957747E-01            NaN
         13   -1    0    0    0    0  0.00000000000E+00  0.00000000000E+00  0.74505805969E-08  0.10566000000E+00  0.10566000000E+00 0.  1.
     999900   -1    0    0    0    0 -0.00000000000E+00 -0.00000000000E+00 -0.74505805969E-08  0.93827000000E+00  0.93827000000E+00 0. -1.
     999902    2    1    2    0    0 -0.59388009942E-02 -0.22274467584E-01  0.29568219370E-02  0.10206885702E+01  0.10204239282E+01 0.  0.
     999903    2    3    3    0    0  0.34055279022E-01  0.11264935897E+00  0.47360485018E-01  0.12840181657E+00  0.19858772609E-01 0.  0.
         14    1    1    2    0    0  0.59388009942E-02  0.22274467584E-01 -0.29568219370E-02  0.23241429804E-01  0.00000000000E+00 0.  1.
     999901    1    3    3    0    0 -0.39994080017E-01 -0.13492382656E+00 -0.44403663081E-01  0.89228675363E+00  0.88000000000E+00 0. -1.
        -11    1    4    4    0    0  0.27078679833E-01  0.55418902428E-01  0.23688358399E-01  0.66075026238E-01  0.51100000000E-03 0. -1.
         11    1    4    4    0    0  0.69765991894E-02  0.57230456546E-01  0.23672126620E-01  0.62326790327E-01  0.51100000000E-03 0.  1.
</event>
<event>
 8    1  0.1099478E+005  0.1043930E+01  0.7957747E-01            NaN
         13   -1    0    0    0    0  0.00000000000E+00  0.00000000000E+00  0.74505805969E-08  0.10566000000E+00  0.10566000000E+00 0. -1.
     999900   -1    0    0    0    0 -0.00000000000E+00 -0.00000000000E+00 -0.74505805969E-08  0.93827000000E+00  0.93827000000E+00 0. -1.
     999902    2    1    2    0    0  0.14866998547E-01 -0.18969363637E-01  0.29690982086E-02  0.10196466735E+01  0.10193574735E+01 0.  0.
     999903    2    3    3    0    0 -0.30281612597E-01 -0.11861500614E+00 -0.44105589624E-01  0.13162433289E+00  0.19828419718E-01 0.  0.
         14    1    1    2    0    0 -0.14866998547E-01  0.18969363637E-01 -0.29690982086E-02  0.24283326517E-01  0.00000000000E+00 0.  1.
     999901    1    3    3    0    0  0.45148611144E-01  0.99645642507E-01  0.47074687833E-01  0.88802234059E+00  0.88000000000E+00 0.  1.
        -11    1    4    4    0    0 -0.93599412779E-02 -0.14839172920E-01 -0.10955551481E-01  0.20690451492E-01  0.51100000000E-03 0. -1.
         11    1    4    4    0    0 -0.20921671319E-01 -0.10377583322E+00 -0.33150038143E-01  0.11093388140E+00  0.51100000000E-03 0.  1.
</event>
<event>
 8    1  0.1099478E+005  0.1043930E+01  0.7957747E-01            NaN
         13   -1    0    0    0    0  0.00000000000E+00  0.00000000000E+00  0.74505805969E-08  0.10566000000E+00  0.10566000000E+00 0. -1.
     999900   -1    0    0    0    0 -0.00000000000E+00 -0.00000000000E+00 -0.74505805969E-08  0.93827000000E+00  0.93827000000E+00 0.  1.
     999902    2    1    2    0    0 -0.91459612327E-02  0.22477821320E-01 -0.84867827499E-02  0.10182215084E+01  0.10178969072E+01 0.  0.
     999903    2    3    3    0    0  0.80592416413E-01 -0.53562365053E-01 -0.80489628318E-01  0.12748052691E+00  0.20214844556E-01 0.  0.
         14    1    1    2    0    0  0.91459612327E-02 -0.22477821320E-01  0.84867827499E-02  0.25708491586E-01  0.00000000000E+00 0. -1.
     999901    1    3    3    0    0 -0.89738377646E-01  0.76040186373E-01  0.72002845568E-01  0.89074098151E+00  0.88000000000E+00 0. -1.
        -11    1    4    4    0    0  0.44161116394E-01 -0.41135827503E-01 -0.48395329868E-01  0.77361033987E-01  0.51100000000E-03 0.  1.
         11    1    4    4    0    0  0.36431300020E-01 -0.12426537550E-01 -0.32094298449E-01  0.50119492920E-01  0.51100000000E-03 0. -1.
</event>
<event>
 8    1  0.1099478E+005  0.1043930E+01  0.7957747E-01            NaN
         13   -1    0    0    0    0  0.00000000000E+00  0.00000000000E+00  0.74505805969E-08  0.10566000000E+00  0.10566000000E+00 0. -1.
     999900   -1    0    0    0    0 -0.00000000000E+00 -0.00000000000E+00 -0.74505805969E-08  0.93827000000E+00  0.93827000000E+00 0.  1.
     999902    2    1    2    0    0  0.10330293997E-01  0.16995144243E-01  0.11273852963E-01  0.10210684676E+01  0.10208125028E+01 0.  0.
     999903    2    3    3    0    0  0.74987445009E-01  0.49886160449E-01  0.97396771978E-01  0.13389344357E+00  0.18154259181E-01 0.  0.
         14    1    1    2    0    0 -0.10330293997E-01 -0.16995144243E-01 -0.11273852963E-01  0.22861532375E-01  0.00000000000E+00 0.  1.
     999901    1    3    3    0    0 -0.64657151011E-01 -0.32891016206E-01 -0.86122919015E-01  0.88717502405E+00  0.88000000000E+00 0.  1.
        -11    1    4    4    0    0  0.15798272293E-01  0.24034719680E-02  0.16399007436E-01  0.22903070773E-01  0.51100000000E-03 0.  1.
         11    1    4    4    0    0  0.59189172716E-01  0.47482688481E-01  0.80997764542E-01  0.11099037280E+00  0.51100000000E-03 0. -1.
</event>
<event>
 8    1  0.1099478E+005  0.1043930E+01  0.7957747E-01            NaN
         13   -1    0    0    0    0  0.00000000000E+00  0.00000000000E+00  0.74505805969E-08  0.10566000000E+00  0.10566000000E+00 0. -1.
     999900   -1    0    0    0    0 -0.00000000000E+00 -0.00000000000E+00 -0.74505805969E-08  0.93827000000E+00  0.93827000000E+00 0.  1.
     999902    2    1    2    0    0 -0.52370004730E-02 -0.20638792954E-01  0.12210825858E-01  0.10193843239E+01  0.10190887643E+01 0.  0.
     999903    2    3    3    0    0  0.10602207561E+00  0.29262796598E-01  0.65515354911E-01  0.12937863655E+00  0.18697007377E-01 0.  0.
         14    1    1    2    0    0  0.52370004730E-02  0.20638792954E-01 -0.12210825858E-01  0.24545676130E-01  0.00000000000E+00 0.  1.
     999901    1    3    3    0    0 -0.11125907608E+00 -0.49901589552E-01 -0.53304529053E-01  0.89000568732E+00  0.88000000000E+00 0.  1.
        -11    1    4    4    0    0  0.42443107181E-01  0.17783248956E-01  0.19107937828E-01  0.49830068229E-01  0.51100000000E-03 0. -1.
         11    1    4    4    0    0  0.63578968426E-01  0.11479547642E-01  0.46407417083E-01  0.79548568318E-01  0.51100000000E-03 0.  1.
</event>
<event>
 8    1  0.1099478E+005  0.1043930E+01  0.7957747E-01            NaN
         13   -1    0    0    0    0  0.00000000000E+00  0.00000000000E+00  0.74505805969E-08  0.10566000000E+00  0.10566000000E+00 0. -1.
     999900   -1    0    0    0    0 -0.00000000000E+00 -0.00000000000E+00 -0.74505805969E-08  0.93827000000E+00  0.93827000000E+00 0. -1.
     999902    2    1    2    0    0  0.19462514114E-01  0.12063621557E-01  0.66041610333E-02  0.10200986055E+01  0.10198201947E+01 0.  0.
     999903    2    3    3    0    0 -0.45174254595E-01  0.99479109909E-01  0.69558069799E-01  0.13117646375E+00  0.20787808471E-01 0.  0.
         14    1    1    2    0    0 -0.19462514114E-01 -0.12063621557E-01 -0.66041610333E-02  0.23831394496E-01  0.00000000000E+00 0.  1.
     999901    1    3    3    0    0  0.64636768709E-01 -0.87415488352E-01 -0.62953908765E-01  0.88892214175E+00  0.88000000000E+00 0. -1.
        -11    1    4    4    0    0 -0.10766588854E-01  0.43629043857E-01  0.35446354683E-01  0.57237383630E-01  0.51100000000E-03 0. -1.
         11    1    4    4    0    0 -0.34407665741E-01  0.55850066052E-01  0.34111715115E-01  0.73939080119E-01  0.51100000000E-03 0.  1.
</event>
<event>
 8    1  0.1099478E+005  0.1043930E+01  0.7957747E-01            NaN
         13   -1    0    0    0    0  0.00000000000E+00  0.00000000000E+00  0.74505805969E-08  0.10566000000E+00  0.10566000000E+00 0.  1.
     999900   -1    0    0    0    0 -0.00000000000E+00 -0.00000000000E+00 -0.74505805969E-08  0.93827000000E+00  0.93827000000E+00 0. -1.
     999902    2    1    2    0    0 -0.13221480401E-01  0.10903132071E-01 -0.16087113630E-01  0.10204250844E+01  0.10201543372E+01 0.  0.
     999903    2    3    3    0    0  0.12446068385E+00  0.48400429706E-02 -0.29719230542E-01  0.12959458760E+00  0.19940828224E-01 0.  0.
         14    1    1    2    0    0  0.13221480401E-01 -0.10903132071E-01  0.16087113630E-01  0.23504915611E-01  0.00000000000E+00 0.  1.
     999901    1    3    3    0    0 -0.13768216425E+00  0.60630891001E-02  0.13632116913E-01  0.89083049679E+00  0.88000000000E+00 0. -1.
        -11    1    4    4    0    0  0.37374912908E-01  0.99502484919E-02 -0.55897127379E-02  0.39081934054E-01  0.51100000000E-03 0.  1.
         11    1    4    4    0    0  0.87085770942E-01 -0.51102055213E-02 -0.24129517804E-01  0.90512653544E-01  0.51100000000E-03 0. -1.
</event>
<event>
 8    1  0.1099478E+005  0.1043930E+01  0.7957747E-01            NaN
         13   -1    0    0    0    0  0.00000000000E+00  0.00000000000E+00  0.74505805969E-08  0.10566000000E+00  0.10566000000E+00 0. -1.
     999900   -1    0    0    0    0 -0.00000000000E+00 -0.00000000000E+00 -0.74505805969E-08  0.93827000000E+00  0.93827000000E+00 0. -1.
     999902    2    1    2    0    0  0.19356122693E-01 -0.81681694651E-02  0.11245340181E-01  0.10201006871E+01  0.10198223255E+01 0.  0.
     999903    2    3    3    0    0  0.99602392727E-01  0.16941964305E-01 -0.81416375464E-01  0.13124964433E+00  0.19752877015E-01 0.  0.
         14    1    1    2    0    0 -0.19356122693E-01  0.81681694651E-02 -0.11245340181E-01  0.23829312913E-01  0.00000000000E+00 0.  1.
     999901    1    3    3    0    0 -0.80246270034E-01 -0.25110133770E-01  0.92661715645E-01  0.88885104276E+00  0.88000000000E+00 0.  1.
        -11    1    4    4    0    0  0.31560804351E-01  0.34500930810E-03 -0.15901952453E-01  0.35345956141E-01  0.51100000000E-03 0. -1.
         11    1    4    4    0    0  0.68041588377E-01  0.16596954997E-01 -0.65514423011E-01  0.95903688185E-01  0.51100000000E-03 0.  1.
</event>
<event>
 8    1  0.1099478E+005  0.1043930E+01  0.7957747E-01            NaN
         13   -1    0    0    0    0  0.00000000000E+00  0.00000000000E+00  0.74505805969E-08  0.10566000000E+00  0.10566000000E+00 0.  1.
     999900   -1    0    0    0    0 -0.00000000000E+00 -0.00000000000E+00 -0.74505805969E-08  0.93827000000E+00  0.93827000000E+00 0.  1.
     999902    2    1    2    0    0 -0.21486971130E-01  0.12631163197E-04  0.97868363561E-02  0.10203191497E+01  0.10200459278E+01 0.  0.
     999903    2    3    3    0    0 -0.10708309030E+00  0.75457683736E-01  0.92264388667E-02  0.13295284107E+00  0.20752843434E-01 0.  0.
         14    1    1    2    0    0  0.21486971130E-01 -0.12631163197E-04 -0.97868363561E-02  0.23610850340E-01  0.00000000000E+00 0. -1.
     999901    1    3    3    0    0  0.85596119174E-01 -0.75445052573E-01  0.56039748940E-03  0.88736630859E+00  0.88000000000E+00 0. -1.
        -11    1    4    4    0    0 -0.11510402949E-01  0.11761064336E-01  0.74820687269E-02  0.18084647738E-01  0.51100000000E-03 0. -1.
         11    1    4    4    0    0 -0.95572687355E-01  0.63696619400E-01  0.17443701398E-02  0.11486819333E+00  0.51100000000E-03 0.  1.
</event>
<event>
 8    1  0.1099478E+005  0.1043930E+01  0.7957747E-01            NaN
         13   -1    0    0    0    0  0.00000000000E+00  0.00000000000E+00  0.74505805969E-08  0.10566000000E+00  0.10566000000E+00 0.  1.
     999900   -1    0    0    0    0 -0.00000000000E+00 -0.00000000000E+00 -0.74505805969E-08  0.93827000000E+00  0.93827000000E+00 0. -1.
     999902    2    1    2    0    0  0.21698424840E-01 -0.74474721354E-02 -0.74464885609E-02  0.10198107821E+01  0.10195255242E+01 0.  0.
     999903    2    3    3    0    0 -0.24360595539E-01  0.10596479629E+00  0.65716572587E-01  0.12833077135E+00  0.18114698347E-01 0.  0.
         14    1    1    2    0    0 -0.21698424840E-01  0.74474721354E-02  0.74464885609E-02  0.24119217931E-01  0.00000000000E+00 0. -1.
     999901    1    3    3    0    0  0.46059020379E-01 -0.11341226842E+00 -0.73163061148E-01  0.89148001071E+00  0.88000000000E+00 0.  1.
        -11    1    4    4    0    0 -0.12086049365E-01  0.58876321857E-01  0.25882804112E-01  0.65442146468E-01  0.51100000000E-03 0.  1.
         11    1    4    4    0    0 -0.12274546174E-01  0.47088474431E-01  0.39833768476E-01  0.62888624886E-01  0.51100000000E-03 0. -1.
</event>
<event>
 8    1  0.1099478E+005  0.1043930E+01  0.7957747E-01            NaN
         13   -1    0    0    0    0  0.00000000000E+00  0.00000000000E+00  0.74505805969E-08  0.10566000000E+00  0.10566000000E+00 0. -1.
     999900   -1    0    0    0    0 -0.00000000000E+00 -0.00000000000E+00 -0.74505805969E-08  0.93827000000E+00  0.93827000000E+00 0.  1.
     999902    2    1    2    0    0 -0.17353302350E-01 -0.13634368097E-01 -0.97264131161E-02  0.10198128648E+01  0.10195276569E+01 0.  0.
     999903    2    3    3    0    0 -0.58282929824E-01 -0.11569889698E+00  0.17740622749E-01  0.13254354806E+00  0.21677817316E-01 0.  0.
         14    1    1    2    0    0  0.17353302350E-01  0.13634368097E-01  0.97264131161E-02  0.24117135152E-01  0.00000000000E+00 0.  1.
     999901    1    3    3    0    0  0.40929627474E-01  0.10206452889E+00 -0.27467035865E-01  0.88726931679E+00  0.88000000000E+00 0. -1.
        -11    1    4    4    0    0 -0.42629646490E-01 -0.87652493273E-01  0.22596686644E-01  0.10005557308E+00  0.51100000000E-03 0. -1.
         11    1    4    4    0    0 -0.15653283333E-01 -0.28046403711E-01 -0.48560638949E-02  0.32487974972E-01  0.51100000000E-03 0.  1.
</event>
<event>
 8    1  0.1099478E+005  0.1043930E+01  0.7957747E-01            NaN
         13   -1    0    0    0    0  0.00000000000E+00  0.00000000000E+00  0.74505805969E-08  0.10566000000E+00  0.10566000000E+00 0. -1.
     999900   -1    0    0    0    0 -0.00000000000E+00 -0.00000000000E+00 -0.74505805969E-08  0.93827000000E+00  0.93827000000E+00 0.  1.
     999902    2    1    2    0    0 -0.15584985536E-01  0.14531610584E-01 -0.72067847309E-02  0.10214356179E+01  0.10211878986E+01 0.  0.
     999903    2    3    3    0    0  0.21847461987E-01 -0.10980646132E+00  0.61557212620E-01  0.12925310765E+00  0.19552617950E-01 0.  0.
         14    1    1    2    0    0  0.15584985536E-01 -0.14531610584E-01  0.72067847309E-02  0.22494382110E-01  0.00000000000E+00 0. -1.
     999901    1    3    3    0    0 -0.37432447523E-01  0.12433807190E+00 -0.68763997351E-01  0.89218251024E+00  0.88000000000E+00 0.  1.
        -11    1    4    4    0    0  0.75720536912E-02 -0.57718226382E-01  0.42104137418E-01  0.71845314131E-01  0.51100000000E-03 0. -1.
         11    1    4    4    0    0  0.14275408296E-01 -0.52088234935E-01  0.19453075202E-01  0.57407793516E-01  0.51100000000E-03 0.  1.
</event>
<event>
 8    1  0.1099478E+005  0.1043930E+01  0.7957747E-01            NaN
         13   -1    0    0    0    0  0.00000000000E+00  0.00000000000E+00  0.74505805969E-08  0.10566000000E+00  0.10566000000E+00 0.  1.
     999900   -1    0    0    0    0 -0.00000000000E+00 -0.00000000000E+00 -0.74505805969E-08  0.93827000000E+00  0.93827000000E+00 0. -1.
     999902    2    1    2    0    0  0.23899441318E-01 -0.16467612359E-02 -0.21895072202E-02  0.10198740432E+01  0.10195902975E+01 0.  0.
     999903    2    3    3    0    0 -0.63472250960E-01  0.31077929468E-01  0.10560928955E+00  0.12840037637E+00  0.18405712961E-01 0.  0.
         14    1    1    2    0    0 -0.23899441318E-01  0.16467612359E-02  0.21895072202E-02  0.24055956846E-01  0.00000000000E+00 0.  1.
     999901    1    3    3    0    0  0.87371692278E-01 -0.32724690704E-01 -0.10779879677E+00  0.89147366679E+00  0.88000000000E+00 0. -1.
        -11    1    4    4    0    0 -0.14449685762E-01  0.14927578785E-02  0.12904091945E-01  0.19437038216E-01  0.51100000000E-03 0.  1.
         11    1    4    4    0    0 -0.49022565198E-01  0.29585171589E-01  0.92705197605E-01  0.10896333815E+00  0.51100000000E-03 0. -1.
</event>
<event>
 8    1  0.1099478E+005  0.1043930E+01  0.7957747E-01            NaN
         13   -1    0    0    0    0  0.00000000000E+00  0.00000000000E+00  0.74505805969E-08  0.10566000000E+00  0.10566000000E+00 0.  1.
     999900   -1    0    0    0    0 -0.00000000000E+00 -0.00000000000E+00 -0.74505805969E-08  0.93827000000E+00  0.93827000000E+00 0. -1.
     999902    2    1    2    0    0  0.73065287547E-02  0.21870088845E-01  0.23997116117E-02  0.10207471450E+01  0.10204838506E+01 0.  0.
     999903    2    3    3    0    0  0.87197253232E-01 -0.65007262041E-01  0.68858879207E-01  0.13038372322E+00  0.20713882903E-01 0.  0.
         14    1    1    2    0    0 -0.73065287547E-02 -0.21870088845E-01 -0.23997116117E-02  0.23182854965E-01  0.00000000000E+00 0. -1.
     999901    1    3    3    0    0 -0.79890724477E-01  0.86877350886E-01 -0.66459167595E-01  0.89036342182E+00  0.88000000000E+00 0. -1.
        -11    1    4    4    0    0  0.48670970208E-01 -0.32594759792E-01  0.25309745789E-01  0.63813212267E-01  0.51100000000E-03 0.  1.
         11    1    4    4    0    0  0.38526283024E-01 -0.32412502249E-01  0.43549133418E-01  0.66570510950E-01  0.51100000000E-03 0. -1.
</event>
<event>
 8    1  0.1099478E+005  0.1043930E+01  0.7957747E-01            NaN
         13   -1    0    0    0    0  0.00000000000E+00  0.00000000000E+00  0.74505805969E-08  0.10566000000E+00  0.10566000000E+00 0. -1.
     999900   -1    0    0    0    0 -0.00000000000E+00 -0.00000000000E+00 -0.74505805969E-08  0.93827000000E+00  0.93827000000E+00 0.  1.
     999902    2    1    2    0    0 -0.19517714582E-01 -0.12550038636E-01  0.41605321980E-02  0.10203555503E+01  0.10200831801E+01 0.  0.
     999903    2    3    3    0    0  0.19565845843E-01 -0.50141849739E-01 -0.11704925284E+00  0.13039348312E+00  0.20122262087E-01 0.  0.
         14    1    1    2    0    0  0.19517714582E-01  0.12550038636E-01 -0.41605321980E-02  0.23574449738E-01  0.00000000000E+00 0.  1.
     999901    1    3    3    0    0 -0.39083560425E-01  0.37591811103E-01  0.12120978504E+00  0.88996206714E+00  0.88000000000E+00 0. -1.
        -11    1    4    4    0    0  0.95028665705E-03 -0.22255748248E-01 -0.32192647828E-01  0.39151616441E-01  0.51100000000E-03 0. -1.
         11    1    4    4    0    0  0.18615559186E-01 -0.27886101491E-01 -0.84856605013E-01  0.91241866682E-01  0.51100000000E-03 0.  1.
</event>
<event>
 8    1  0.1099478E+005  0.1043930E+01  0.7957747E-01            NaN
         13   -1    0    0    0    0  0.00000000000E+00  0.00000000000E+00  0.74505805969E-08  0.10566000000E+00  0.10566000000E+00 0.  1.
     999900   -1    0    0    0    0 -0.00000000000E+00 -0.00000000000E+00 -0.74505805969E-08  0.93827000000E+00  0.93827000000E+00 0.  1.
     999902    2    1    2    0    0  0.21589515311E-01 -0.74727598064E-02 -0.77870639808E-02  0.10197931469E+01  0.10195074668E+01 0.  0.
     999903    2    3    3    0    0  0.51322376634E-01  0.16055724859E-01 -0.12008345388E+00  0.13184713967E+00  0.84770100834E-02 0.  0.
         14    1    1    2    0    0 -0.21589515311E-01  0.74727598064E-02  0.77870639808E-02  0.24136853066E-01  0.00000000000E+00 0.  1.
     999901    1    3    3    0    0 -0.29732861323E-01 -0.23528484665E-01  0.11229638990E+00  0.88794600726E+00  0.88000000000E+00 0. -1.
        -11    1    4    4    0    0  0.38528691446E-01  0.10160045002E-01 -0.80379403939E-01  0.89715083891E-01  0.51100000000E-03 0. -1.
         11    1    4    4    0    0  0.12793685188E-01  0.58956798568E-02 -0.39704049938E-01  0.42132055779E-01  0.51100000000E-03 0.  1.
</event>
<event>
 8    1  0.1099478E+005  0.1043930E+01  0.7957747E-01            NaN
         13   -1    0    0    0    0  0.00000000000E+00  0.00000000000E+00  0.74505805969E-08  0.10566000000E+00  0.10566000000E+00 0.  1.
     999900   -1    0    0    0    0 -0.00000000000E+00 -0.00000000000E+00 -0.74505805969E-08  0.93827000000E+00  0.93827000000E+00 0. -1.
     999902    2    1    2    0    0  0.20991544515E-01 -0.10831056638E-01  0.64684718597E-02  0.10194392291E+01  0.10191450064E+01 0.  0.
     999903    2    3    3    0    0  0.36043783062E-02 -0.12800901417E+00  0.21914519991E-01  0.13136740340E+00  0.19438344504E-01 0.  0.
         14    1    1    2    0    0 -0.20991544515E-01  0.10831056638E-01 -0.64684718597E-02  0.24490770858E-01  0.00000000000E+00 0. -1.
     999901    1    3    3    0    0  0.17387166209E-01  0.11717795753E+00 -0.15446048131E-01  0.88807182575E+00  0.88000000000E+00 0. -1.
        -11    1    4    4    0    0  0.26021225895E-03 -0.88593628811E-02  0.68668525944E-02  0.11223671709E-01  0.51100000000E-03 0.  1.
         11    1    4    4    0    0  0.33441660473E-02 -0.11914965129E+00  0.15047667396E-01  0.12014373169E+00  0.51100000000E-03 0. -1.
</event>
<event>
 8    1  0.1099478E+005  0.1043930E+01  0.7957747E-01            NaN
         13   -1    0    0    0    0  0.00000000000E+00  0.00000000000E+00  0.74505805969E-08  0.10566000000E+00  0.10566000000E+00 0.  1.
     999900   -1    0    0    0    0 -0.00000000000E+00 -0.00000000000E+00 -0.74505805969E-08  0.93827000000E+00  0.93827000000E+00 0. -1.
     999902    2    1    2    0    0  0.22409942123E-01 -0.48185665330E-02  0.27306039545E-02  0.10208458000E+01  0.10205847673E+01 0.  0.
     999903    2    3    3    0    0  0.11782833696E-01  0.12660882593E+00 -0.22347736902E-01  0.13066884118E+00  0.20156754167E-01 0.  0.
         14    1    1    2    0    0 -0.22409942123E-01  0.48185665330E-02 -0.27306039545E-02  0.23084199951E-01  0.00000000000E+00 0.  1.
     999901    1    3    3    0    0  0.10627108427E-01 -0.13142739246E+00  0.25078340857E-01  0.89017695887E+00  0.88000000000E+00 0. -1.
        -11    1    4    4    0    0  0.13294085045E-01  0.72993877023E-01 -0.52965097439E-02  0.74385165971E-01  0.51100000000E-03 0. -1.
         11    1    4    4    0    0 -0.15112513487E-02  0.53614948902E-01 -0.17051227159E-01  0.56283675209E-01  0.51100000000E-03 0.  1.
</event>
<event>
 8    1  0.1099478E+005  0.1043930E+01  0.7957747E-01            NaN
         13   -1    0    0    0    0  0.00000000000E+00  0.00000000000E+00  0.74505805969E-08  0.10566000000E+00  0.10566000000E+00 0.  1.
     999900   -1    0    0    0    0 -0.00000000000E+00 -0.00000000000E+00 -0.74505805969E-08  0.93827000000E+00  0.93827000000E+00 0.  1.
     999902    2    1    2    0    0 -0.20063444997E-01  0.76448603888E-02  0.10729387966E-01  0.10199278026E+01  0.10196453388E+01 0.  0.
     999903    2    3    3    0    0 -0.52342735185E-01 -0.48934854820E-01 -0.10645070013E+00  0.12977366434E+00  0.19366735800E-01 0.  0.
         14    1    1    2    0    0  0.20063444997E-01 -0.76448603888E-02 -0.10729387966E-01  0.24002197434E-01  0.00000000000E+00 0. -1.
     999901    1    3    3    0    0  0.32279290187E-01  0.56579715209E-01  0.11718008810E+00  0.89015413822E+00  0.88000000000E+00 0. -1.
        -11    1    4    4    0    0 -0.40290670142E-01 -0.42807846965E-01 -0.96429059925E-01  0.11293659540E+00  0.51100000000E-03 0. -1.
         11    1    4    4    0    0 -0.12052065043E-01 -0.61270078550E-02 -0.10021640208E-01  0.16837068940E-01  0.51100000000E-03 0.  1.
</event>
<event>
 8    1  0.1583641E+005  0.1043930E+01  0.7957747E-01            NaN
         13   -1    0    0    0    0  0.00000000000E+00  0.00000000000E+00  0.74505805969E-08  0.10566000000E+00  0.10566000000E+00 0.  1.
     999900   -1    0    0    0    0 -0.00000000000E+00 -0.00000000000E+00 -0.74505805969E-08  0.93827000000E+00  0.93827000000E+00 0.  1.
     999902    2    1    2    0    0 -0.13656019783E-02  0.18873641740E-01  0.26404573789E-01  0.10114449151E+01  0.10109231106E+01 0.  0.
     999903    2    3    3    0    0 -0.10888831036E+00 -0.49796714170E-01  0.12953288872E-01  0.12214311729E+00  0.20366063261E-01 0.  0.
         14    1    1    2    0    0  0.13656019783E-02 -0.18873641740E-01 -0.26404573789E-01  0.32485084858E-01  0.00000000000E+00 0. -1.
     999901    1    3    3    0    0  0.10752270838E+00  0.68670355909E-01  0.13451284916E-01  0.88930179785E+00  0.88000000000E+00 0. -1.
        -11    1    4    4    0    0 -0.49229098767E-01 -0.33688274802E-01  0.67134185003E-02  0.60031118044E-01  0.51100000000E-03 0. -1.
         11    1    4    4    0    0 -0.59659211595E-01 -0.16108439367E-01  0.62398703718E-02  0.62111999245E-01  0.51100000000E-03 0.  1.
</event>
<event>
 8    1  0.1099478E+005  0.1043930E+01  0.7957747E-01            NaN
         13   -1    0    0    0    0  0.00000000000E+00  0.00000000000E+00  0.74505805969E-08  0.10566000000E+00  0.10566000000E+00 0. -1.
     999900   -1    0    0    0    0 -0.00000000000E+00 -0.00000000000E+00 -0.74505805969E-08  0.93827000000E+00  0.93827000000E+00 0. -1.
     999902    2    1    2    0    0  0.28512949797E-02  0.23529333322E-01  0.41096634193E-02  0.10198748811E+01  0.10195911555E+01 0.  0.
     999903    2    3    3    0    0  0.99866567048E-01 -0.36756116061E-01 -0.70730703300E-01  0.12934280485E+00  0.20059548732E-01 0.  0.
         14    1    1    2    0    0 -0.28512949797E-02 -0.23529333322E-01 -0.41096634193E-02  0.24055118854E-01  0.00000000000E+00 0.  1.
     999901    1    3    3    0    0 -0.97015272068E-01  0.60285449383E-01  0.74840366719E-01  0.89053207630E+00  0.88000000000E+00 0.  1.
        -11    1    4    4    0    0  0.66508632711E-01 -0.32689237909E-01 -0.54676285004E-01  0.92096372149E-01  0.51100000000E-03 0. -1.
         11    1    4    4    0    0  0.33357934337E-01 -0.40668781519E-02 -0.16054418296E-01  0.37246432701E-01  0.51100000000E-03 0.  1.
</event>
<event>
 8    1  0.1099478E+005  0.1043930E+01  0.7957747E-01            NaN
         13   -1    0    0    0    0  0.00000000000E+00  0.00000000000E+00  0.74505805969E-08  0.10566000000E+00  0.10566000000E+00 0. -1.
     999900   -1    0    0    0    0 -0.00000000000E+00 -0.00000000000E+00 -0.74505805969E-08  0.93827000000E+00  0.93827000000E+00 0.  1.
     999902    2    1    2    0    0 -0.58040028748E-02 -0.17794123891E-01  0.14148753789E-01  0.10204671671E+01  0.10201973998E+01 0.  0.
     999903    2    3    3    0    0 -0.92660457910E-01 -0.94948692561E-02  0.92324387518E-01  0.13270348732E+00  0.20256110537E-01 0.  0.
         14    1    1    2    0    0  0.58040028748E-02  0.17794123891E-01 -0.14148753789E-01  0.23462832910E-01  0.00000000000E+00 0.  1.
     999901    1    3    3    0    0  0.86856455035E-01 -0.82992546344E-02 -0.78175633729E-01  0.88776367977E+00  0.88000000000E+00 0.  1.
        -11    1    4    4    0    0 -0.48361189601E-01  0.44963943391E-02  0.42001005865E-01  0.64213455259E-01  0.51100000000E-03 0.  1.
         11    1    4    4    0    0 -0.44299268309E-01 -0.13991263595E-01  0.50323381653E-01  0.68490032061E-01  0.51100000000E-03 0. -1.
</event>
<event>
 8    1  0.1099478E+005  0.1043930E+01  0.7957747E-01            NaN
         13   -1    0    0    0    0  0.00000000000E+00  0.00000000000E+00  0.74505805969E-08  0.10566000000E+00  0.10566000000E+00 0.  1.
     999900   -1    0    0    0    0 -0.00000000000E+00 -0.00000000000E+00 -0.74505805969E-08  0.93827000000E+00  0.93827000000E+00 0.  1.
     999902    2    1    2    0    0  0.97554058766E-02  0.19963058541E-01  0.18054714488E-02  0.10216375937E+01  0.10213943516E+01 0.  0.
     999903    2    3    3    0    0  0.11168194700E+00 -0.19351787712E-01  0.65644702458E-01  0.13258746897E+00  0.20563584161E-01 0.  0.
         14    1    1    2    0    0 -0.97554058766E-02 -0.19963058541E-01 -0.18054714488E-02  0.22292406269E-01  0.00000000000E+00 0. -1.
     999901    1    3    3    0    0 -0.10192654112E+00  0.39314846252E-01 -0.63839231009E-01  0.88905012476E+00  0.88000000000E+00 0.  1.
        -11    1    4    4    0    0  0.15330154977E-01 -0.98981687516E-02  0.12725427332E-01  0.22252753044E-01  0.51100000000E-03 0. -1.
         11    1    4    4    0    0  0.96351792024E-01 -0.94536189601E-02  0.52919275126E-01  0.11033471593E+00  0.51100000000E-03 0.  1.
</event>
<event>
 8    1  0.1099478E+005  0.1043930E+01  0.7957747E-01            NaN
         13   -1    0    0    0    0  0.00000000000E+00  0.00000000000E+00  0.74505805969E-08  0.10566000000E+00  0.10566000000E+00 0.  1.
     999900   -1    0    0    0    0 -0.00000000000E+00 -0.00000000000E+00 -0.74505805969E-08  0.93827000000E+00  0.93827000000E+00 0. -1.
     999902    2    1    2    0    0  0.17762224778E-01  0.12456148331E-01 -0.15672234008E-01  0.10171667569E+01  0.10168146047E+01 0.  0.
     999903    2    3    3    0    0  0.82104704472E-01 -0.34642072878E-01  0.90237634324E-01  0.12723692974E+00  0.10254264040E-01 0.  0.
         14    1    1    2    0    0 -0.17762224778E-01 -0.12456148331E-01  0.15672234008E-01  0.26763243060E-01  0.00000000000E+00 0.  1.
     999901    1    3    3    0    0 -0.64342479694E-01  0.47098221208E-01 -0.10590986833E+00  0.88992982720E+00  0.88000000000E+00 0. -1.
        -11    1    4    4    0    0  0.49069238906E-01 -0.22586358654E-01  0.47915116299E-01  0.72208401831E-01  0.51100000000E-03 0.  1.
         11    1    4    4    0    0  0.33035465566E-01 -0.12055714224E-01  0.42322518025E-01  0.55028527907E-01  0.51100000000E-03 0. -1.
</event>
<event>
 8    1  0.1099478E+005  0.1043930E+01  0.7957747E-01            NaN
         13   -1    0    0    0    0  0.00000000000E+00  0.00000000000E+00  0.74505805969E-08  0.10566000000E+00  0.10566000000E+00 0. -1.
     999900   -1    0    0    0    0 -0.00000000000E+00 -0.00000000000E+00 -0.74505805969E-08  0.93827000000E+00  0.93827000000E+00 0.  1.
     999902    2    1    2    0    0 -0.13892639998E-01  0.19251800467E-01  0.24037036635E-02  0.10200675806E+01  0.10197884359E+01 0.  0.
     999903    2    3    3    0    0 -0.10396195619E+00  0.76561518617E-01 -0.26041137829E-01  0.13315947122E+00  0.19584418519E-01 0.  0.
         14    1    1    2    0    0  0.13892639998E-01 -0.19251800467E-01 -0.24037036635E-02  0.23862419379E-01  0.00000000000E+00 0.  1.
     999901    1    3    3    0    0  0.90069316191E-01 -0.57309718150E-01  0.28444841493E-01  0.88690810940E+00  0.88000000000E+00 0.  1.
        -11    1    4    4    0    0 -0.90004082228E-01  0.57597125165E-01 -0.23995402393E-01  0.10951805377E+00  0.51100000000E-03 0. -1.
         11    1    4    4    0    0 -0.13957873961E-01  0.18964393452E-01 -0.20457354367E-02  0.23641417449E-01  0.51100000000E-03 0.  1.
</event>
<event>
 8    1  0.1099478E+005  0.1043930E+01  0.7957747E-01            NaN
         13   -1    0    0    0    0  0.00000000000E+00  0.00000000000E+00  0.74505805969E-08  0.10566000000E+00  0.10566000000E+00 0. -1.
     999900   -1    0    0    0    0 -0.00000000000E+00 -0.00000000000E+00 -0.74505805969E-08  0.93827000000E+00  0.93827000000E+00 0. -1.
     999902    2    1    2    0    0 -0.72543885670E-02  0.14777001911E-01 -0.15967124922E-01  0.10209967269E+01  0.10207391348E+01 0.  0.
     999903    2    3    3    0    0  0.88392423095E-01  0.48142530222E-01 -0.83931965292E-01  0.13258196415E+00  0.20061872879E-01 0.  0.
         14    1    1    2    0    0  0.72543885670E-02 -0.14777001911E-01  0.15967124922E-01  0.22933273147E-01  0.00000000000E+00 0. -1.
     999901    1    3    3    0    0 -0.95646811662E-01 -0.33365528311E-01  0.67964840370E-01  0.88841476270E+00  0.88000000000E+00 0. -1.
        -11    1    4    4    0    0  0.40453408351E-01  0.33393861902E-01 -0.41779448201E-01  0.67062744299E-01  0.51100000000E-03 0.  1.
         11    1    4    4    0    0  0.47939014744E-01  0.14748668321E-01 -0.42152517091E-01  0.65519219852E-01  0.51100000000E-03 0. -1.
</event>
<event>
 8    1  0.1099478E+005  0.1043930E+01  0.7957747E-01            NaN
         13   -1    0    0    0    0  0.00000000000E+00  0.00000000000E+00  0.74505805969E-08  0.10566000000E+00  0.10566000000E+00 0. -1.
     999900   -1    0    0    0    0 -0.00000000000E+00 -0.00000000000E+00 -0.74505805969E-08  0.93827000000E+00  0.93827000000E+00 0.  1.
     999902    2    1    2    0    0  0.53405551666E-02 -0.72449649023E-02  0.21929977829E-01  0.10202248323E+01  0.10199493975E+01 0.  0.
     999903    2    3    3    0    0  0.94446333790E-01  0.83411968426E-01 -0.24158526408E-01  0.12989755007E+00  0.20299573210E-01 0.  0.
         14    1    1    2    0    0 -0.53405551666E-02  0.72449649023E-02 -0.21929977829E-01  0.23705167654E-01  0.00000000000E+00 0.  1.
     999901    1    3    3    0    0 -0.89105778624E-01 -0.90656933328E-01  0.46088504237E-01  0.89032728228E+00  0.88000000000E+00 0. -1.
        -11    1    4    4    0    0  0.68544417722E-01  0.71667603392E-01 -0.17921673021E-01  0.10077713065E+00  0.51100000000E-03 0. -1.
         11    1    4    4    0    0  0.25901916068E-01  0.11744365034E-01 -0.62368533870E-02  0.29120419420E-01  0.51100000000E-03 0.  1.
</event>
<event>
 8    1  0.1099478E+005  0.1043930E+01  0.7957747E-01            NaN
         13   -1    0    0    0    0  0.00000000000E+00  0.00000000000E+00  0.74505805969E-08  0.10566000000E+00  0.10566000000E+00 0.  1.
     999900   -1    0    0    0    0 -0.00000000000E+00 -0.00000000000E+00 -0.74505805969E-08  0.93827000000E+00  0.93827000000E+00 0. -1.
     999902    2    1    2    0    0  0.15119876114E-01 -0.11520552296E-01  0.12832167951E-01  0.10209953469E+01  0.10207377234E+01 0.  0.
     999903    2    3    3    0    0 -0.10107069772E+00 -0.69407498779E-01 -0.38455965631E-01  0.12999499859E+00  0.19676166849E-01 0.  0.
         14    1    1    2    0    0 -0.15119876114E-01  0.11520552296E-01 -0.12832167951E-01  0.22934653109E-01  0.00000000000E+00 0. -1.
     999901    1    3    3    0    0  0.11619057384E+00  0.57886946483E-01  0.51288133582E-01  0.89100034830E+00  0.88000000000E+00 0.  1.
        -11    1    4    4    0    0 -0.82395954444E-01 -0.49810711613E-01 -0.36060507733E-01  0.10281450111E+00  0.51100000000E-03 0. -1.
         11    1    4    4    0    0 -0.18674743278E-01 -0.19596787166E-01 -0.23954578979E-02  0.27180497480E-01  0.51100000000E-03 0.  1.
</event>
<event>
 8    1  0.1099478E+005  0.1043930E+01  0.7957747E-01            NaN
         13   -1    0    0    0    0  0.00000000000E+00  0.00000000000E+00  0.74505805969E-08  0.10566000000E+00  0.10566000000E+00 0.  1.
     999900   -1    0    0    0    0 -0.00000000000E+00 -0.00000000000E+00 -0.74505805969E-08  0.93827000000E+00  0.93827000000E+00 0.  1.
     999902    2    1    2    0    0  0.11285120943E-01 -0.90077732168E-02 -0.18815221477E-01  0.10202127807E+01  0.10199370625E+01 0.  0.
     999903    2    3    3    0    0  0.15355581139E-01  0.71438966548E-01  0.10341634030E+00  0.12812040806E+00  0.19508452232E-01 0.  0.
         14    1    1    2    0    0 -0.11285120943E-01  0.90077732168E-02  0.18815221477E-01  0.23717219320E-01  0.00000000000E+00 0.  1.
     999901    1    3    3    0    0 -0.40704601959E-02 -0.80446739765E-01 -0.12223156177E+00  0.89209237262E+00  0.88000000000E+00 0.  1.
        -11    1    4    4    0    0  0.19146482430E-01  0.49741695612E-01  0.78161790347E-01  0.94606292936E-01  0.51100000000E-03 0. -1.
         11    1    4    4    0    0 -0.37909012904E-02  0.21697270936E-01  0.25254549951E-01  0.33514115129E-01  0.51100000000E-03 0.  1.
</event>
<event>
 8    1  0.1099478E+005  0.1043930E+01  0.7957747E-01            NaN
         13   -1    0    0    0    0  0.00000000000E+00  0.00000000000E+00  0.74505805969E-08  0.10566000000E+00  0.10566000000E+00 0.  1.
     999900   -1    0    0    0    0 -0.00000000000E+00 -0.00000000000E+00 -0.74505805969E-08  0.93827000000E+00  0.93827000000E+00 0. -1.
     999902    2    1    2    0    0 -0.20735293220E-01  0.47782620885E-02  0.10637686734E-01  0.10201404108E+01  0.10198629875E+01 0.  0.
     999903    2    3    3    0    0  0.91634665765E-01  0.88458198537E-01 -0.51514895193E-02  0.12891729762E+00  0.19270882776E-01 0.  0.
         14    1    1    2    0    0  0.20735293220E-01 -0.47782620885E-02 -0.10637686734E-01  0.23789589163E-01  0.00000000000E+00 0. -1.
     999901    1    3    3    0    0 -0.11236995899E+00 -0.83679936448E-01  0.15789176253E-01  0.89122311322E+00  0.88000000000E+00 0. -1.
        -11    1    4    4    0    0  0.33738801318E-01  0.20617106855E-01  0.55032021304E-03  0.39546627958E-01  0.51100000000E-03 0. -1.
         11    1    4    4    0    0  0.57895864446E-01  0.67841091682E-01 -0.57018097323E-02  0.89370669662E-01  0.51100000000E-03 0.  1.
</event>
<event>
 8    1  0.1099478E+005  0.1043930E+01  0.7957747E-01            NaN
         13   -1    0    0    0    0  0.00000000000E+00  0.00000000000E+00  0.74505805969E-08  0.10566000000E+00  0.10566000000E+00 0.  1.
     999900   -1    0    0    0    0 -0.00000000000E+00 -0.00000000000E+00 -0.74505805969E-08  0.93827000000E+00  0.93827000000E+00 0. -1.
     999902    2    1    2    0    0 -0.11947619614E-01  0.10932117183E-01  0.15031403239E-01  0.10218347543E+01  0.10215958424E+01 0.  0.
     999903    2    3    3    0    0 -0.16654753744E-01 -0.12421360075E+00 -0.30189476301E-01  0.13035763727E+00  0.19372911013E-01 0.  0.
         14    1    1    2    0    0  0.11947619614E-01 -0.10932117183E-01 -0.15031403239E-01  0.22095245730E-01  0.00000000000E+00 0. -1.
     999901    1    3    3    0    0  0.47071341305E-02  0.13514571794E+00  0.45220879540E-01  0.89147711700E+00  0.88000000000E+00 0.  1.
        -11    1    4    4    0    0 -0.15103036418E-01 -0.10640429028E+00 -0.18661809031E-01  0.10908024082E+00  0.51100000000E-03 0.  1.
         11    1    4    4    0    0 -0.15517173257E-02 -0.17809310468E-01 -0.11527667270E-01  0.21277396450E-01  0.51100000000E-03 0. -1.
</event>
<event>
 8    1  0.1099478E+005  0.1043930E+01  0.7957747E-01            NaN
         13   -1    0    0    0    0  0.00000000000E+00  0.00000000000E+00  0.74505805969E-08  0.10566000000E+00  0.10566000000E+00 0. -1.
     999900   -1    0    0    0    0 -0.00000000000E+00 -0.00000000000E+00 -0.74505805969E-08  0.93827000000E+00  0.93827000000E+00 0. -1.
     999902    2    1    2    0    0  0.58729294468E-03 -0.99179637767E-02  0.22077517178E-01  0.10197199260E+01  0.10194324891E+01 0.  0.
     999903    2    3    3    0    0  0.29633805091E-01 -0.45408541276E-01  0.11996740877E+00  0.13310517773E+00  0.19614054837E-01 0.  0.
         14    1    1    2    0    0 -0.58729294468E-03  0.99179637767E-02 -0.22077517178E-01  0.24210074003E-01  0.00000000000E+00 0.  1.
     999901    1    3    3    0    0 -0.29046512146E-01  0.35490577499E-01 -0.97889891595E-01  0.88661474826E+00  0.88000000000E+00 0. -1.
        -11    1    4    4    0    0  0.18213696483E-01 -0.41918299491E-01  0.95489655554E-01  0.10586509345E+00  0.51100000000E-03 0.  1.
         11    1    4    4    0    0  0.11420108608E-01 -0.34902417846E-02  0.24477753219E-01  0.27240084287E-01  0.51100000000E-03 0. -1.
</event>
<event>
 8    1  0.1099478E+005  0.1043930E+01  0.7957747E-01            NaN
         13   -1    0    0    0    0  0.00000000000E+00  0.00000000000E+00  0.74505805969E-08  0.10566000000E+00  0.10566000000E+00 0.  1.
     999900   -1    0    0    0    0 -0.00000000000E+00 -0.00000000000E+00 -0.74505805969E-08  0.93827000000E+00  0.93827000000E+00 0. -1.
     999902    2    1    2    0    0 -0.18856440751E-01 -0.11885615861E-01 -0.68558095222E-02  0.10206097224E+01  0.10203432609E+01 0.  0.
     999903    2    3    3    0    0  0.12461972522E+00  0.18162357812E-01 -0.15301888083E-01  0.12844402751E+00  0.20094110309E-01 0.  0.
         14    1    1    2    0    0  0.18856440751E-01  0.11885615861E-01  0.68558095222E-02  0.23320277579E-01  0.00000000000E+00 0.  1.
     999901    1    3    3    0    0 -0.14347616597E+00 -0.30047973673E-01  0.84460785610E-02  0.89216569491E+00  0.88000000000E+00 0. -1.
        -11    1    4    4    0    0  0.69822749657E-01  0.14392706249E-01 -0.17720821610E-01  0.73461928932E-01  0.51100000000E-03 0. -1.
         11    1    4    4    0    0  0.54796975567E-01  0.37696515633E-02  0.24189335269E-02  0.54982098583E-01  0.51100000000E-03 0.  1.
</event>
<event>
 8    1  0.1099478E+005  0.1043930E+01  0.7957747E-01            NaN
         13   -1    0    0    0    0  0.00000000000E+00  0.00000000000E+00  0.74505805969E-08  0.10566000000E+00  0.10566000000E+00 0. -1.
     999900   -1    0    0    0    0 -0.00000000000E+00 -0.00000000000E+00 -0.74505805969E-08  0.93827000000E+00  0.93827000000E+00 0.  1.
     999902    2    1    2    0    0  0.44574575768E-02  0.13698860315E-01  0.53791025143E-02  0.10285526645E+01  0.10284377090E+01 0.  0.
     999903    2    3    3    0    0 -0.23995394130E-01  0.13158957101E+00  0.31925767183E-01  0.13983870052E+00  0.25377419402E-01 0.  0.
         14    1    1    2    0    0 -0.44574575768E-02 -0.13698860315E-01 -0.53791025143E-02  0.15377335460E-01  0.00000000000E+00 0. -1.
     999901    1    3    3    0    0  0.28452851707E-01 -0.11789071069E+00 -0.26546664669E-01  0.88871396402E+00  0.88000000000E+00 0. -1.
        -11    1    4    4    0    0 -0.23613450167E-01  0.76205451244E-01  0.10580682151E-01  0.80480294382E-01  0.51100000000E-03 0.  1.
         11    1    4    4    0    0 -0.38194396249E-03  0.55384119764E-01  0.21345085032E-01  0.59358406139E-01  0.51100000000E-03 0. -1.
</event>
<event>
 8    1  0.1099478E+005  0.1043930E+01  0.7957747E-01            NaN
         13   -1    0    0    0    0  0.00000000000E+00  0.00000000000E+00  0.74505805969E-08  0.10566000000E+00  0.10566000000E+00 0. -1.
     999900   -1    0    0    0    0 -0.00000000000E+00 -0.00000000000E+00 -0.74505805969E-08  0.93827000000E+00  0.93827000000E+00 0.  1.
     999902    2    1    2    0    0  0.23626460027E-02  0.12913947722E-01  0.20642145402E-01  0.10194667560E+01  0.10191732023E+01 0.  0.
     999903    2    3    3    0    0 -0.85905371900E-01  0.19860766188E-01 -0.90755825804E-01  0.12803587852E+00  0.19554623919E-01 0.  0.
         14    1    1    2    0    0 -0.23626460027E-02 -0.12913947722E-01 -0.20642145402E-01  0.24463244034E-01  0.00000000000E+00 0.  1.
     999901    1    3    3    0    0  0.88268017903E-01 -0.69468184666E-02  0.11139797121E+00  0.89143087744E+00  0.88000000000E+00 0. -1.
        -11    1    4    4    0    0 -0.69618401030E-01  0.16869572880E-01 -0.61491807324E-01  0.94407667804E-01  0.51100000000E-03 0.  1.
         11    1    4    4    0    0 -0.16286970871E-01  0.29911933080E-02 -0.29264018480E-01  0.33628210719E-01  0.51100000000E-03 0. -1.
</event>
<event>
 8    1  0.1099478E+005  0.1043930E+01  0.7957747E-01            NaN
         13   -1    0    0    0    0  0.00000000000E+00  0.00000000000E+00  0.74505805969E-08  0.10566000000E+00  0.10566000000E+00 0. -1.
     999900   -1    0    0    0    0 -0.00000000000E+00 -0.00000000000E+00 -0.74505805969E-08  0.93827000000E+00  0.93827000000E+00 0.  1.
     999902    2    1    2    0    0 -0.13344551692E-01 -0.17179003226E-01  0.81390231230E-02  0.10207041758E+01  0.10204398932E+01 0.  0.
     999903    2    3    3    0    0  0.59001922546E-01  0.10224562599E+00 -0.45488331284E-01  0.12808323301E+00  0.20018276536E-01 0.  0.
         14    1    1    2    0    0  0.13344551692E-01  0.17179003226E-01 -0.81390231230E-02  0.23225824185E-01  0.00000000000E+00 0.  1.
     999901    1    3    3    0    0 -0.72346474238E-01 -0.11942462922E+00  0.53627354407E-01  0.89262094281E+00  0.88000000000E+00 0. -1.
        -11    1    4    4    0    0  0.39662861381E-01  0.48955726118E-01 -0.22458277241E-01  0.66891262735E-01  0.51100000000E-03 0.  1.
         11    1    4    4    0    0  0.19339061165E-01  0.53289899876E-01 -0.23030054043E-01  0.61191970272E-01  0.51100000000E-03 0. -1.
</event>
<event>
 8    1  0.1099478E+005  0.1043930E+01  0.7957747E-01            NaN
         13   -1    0    0    0    0  0.00000000000E+00  0.00000000000E+00  0.74505805969E-08  0.10566000000E+00  0.10566000000E+00 0. -1.
     999900   -1    0    0    0    0 -0.00000000000E+00 -0.00000000000E+00 -0.74505805969E-08  0.93827000000E+00  0.93827000000E+00 0. -1.
     999902    2    1    2    0    0 -0.20541621690E-02  0.23672945007E-01 -0.49669064721E-02  0.10196545378E+01  0.10193655273E+01 0.  0.
     999903    2    3    3    0    0  0.56242999845E-01 -0.89353563331E-01  0.68610198267E-01  0.12747342327E+00  0.19869072032E-01 0.  0.
         14    1    1    2    0    0  0.20541621690E-02 -0.23672945007E-01  0.49669064721E-02  0.24275462250E-01  0.00000000000E+00 0. -1.
     999901    1    3    3    0    0 -0.58297162014E-01  0.11302650834E+00 -0.73577104740E-01  0.89218111448E+00  0.88000000000E+00 0. -1.
        -11    1    4    4    0    0 -0.91488463707E-03 -0.59051848875E-02  0.61725091583E-02  0.86063472370E-02  0.51100000000E-03 0. -1.
         11    1    4    4    0    0  0.57157884482E-01 -0.83448378444E-01  0.62437689109E-01  0.11886707604E+00  0.51100000000E-03 0.  1.
</event>
<event>
 8    1  0.1099478E+005  0.1043930E+01  0.7957747E-01            NaN
         13   -1    0    0    0    0  0.00000000000E+00  0.00000000000E+00  0.74505805969E-08  0.10566000000E+00  0.10566000000E+00 0. -1.
     999900   -1    0    0    0    0 -0.00000000000E+00 -0.00000000000E+00 -0.74505805969E-08  0.93827000000E+00  0.93827000000E+00 0. -1.
     999902    2    1    2    0    0 -0.80024750017E-02  0.22149368308E-01 -0.20408507365E-02  0.10202910661E+01  0.10200171863E+01 0.  0.
     999903    2    3    3    0    0  0.92942536539E-01 -0.39536566923E-01 -0.77977051644E-01  0.12913375310E+00  0.19840624617E-01 0.  0.
         14    1    1    2    0    0  0.80024750017E-02 -0.22149368308E-01  0.20408507365E-02  0.23638933866E-01  0.00000000000E+00 0. -1.
     999901    1    3    3    0    0 -0.10094501154E+00  0.61685935231E-01  0.75936200907E-01  0.89115731303E+00  0.88000000000E+00 0.  1.
        -11    1    4    4    0    0  0.52298024076E-01 -0.25594589651E-01 -0.33002132894E-01  0.66929576707E-01  0.51100000000E-03 0. -1.
         11    1    4    4    0    0  0.40644512463E-01 -0.13941977272E-01 -0.44974918749E-01  0.62204176396E-01  0.51100000000E-03 0.  1.
</event>
<event>
 8    1  0.1099478E+005  0.1043930E+01  0.7957747E-01            NaN
         13   -1    0    0    0    0  0.00000000000E+00  0.00000000000E+00  0.74505805969E-08  0.10566000000E+00  0.10566000000E+00 0. -1.
     999900   -1    0    0    0    0 -0.00000000000E+00 -0.00000000000E+00 -0.74505805969E-08  0.93827000000E+00  0.93827000000E+00 0.  1.
     999902    2    1    2    0    0  0.96630839607E-02  0.15285108814E-01 -0.15615319545E-01  0.10200375755E+01  0.10197577200E+01 0.  0.
     999903    2    3    3    0    0  0.99161225714E-01  0.81560899118E-02  0.80702188044E-01  0.13024108050E+00  0.23461146729E-01 0.  0.
         14    1    1    2    0    0 -0.96630839607E-02 -0.15285108814E-01  0.15615319545E-01  0.23892424481E-01  0.00000000000E+00 0. -1.
     999901    1    3    3    0    0 -0.89498141753E-01  0.71290189020E-02 -0.96317507589E-01  0.88979649502E+00  0.88000000000E+00 0.  1.
        -11    1    4    4    0    0  0.41116873715E-01 -0.50343571020E-02  0.43371750338E-01  0.59977595016E-01  0.51100000000E-03 0. -1.
         11    1    4    4    0    0  0.58044351999E-01  0.13190447014E-01  0.37330437706E-01  0.70263485480E-01  0.51100000000E-03 0.  1.
</event>
<event>
 8    1  0.1099478E+005  0.1043930E+01  0.7957747E-01            NaN
         13   -1    0    0    0    0  0.00000000000E+00  0.00000000000E+00  0.74505805969E-08  0.10566000000E+00  0.10566000000E+00 0.  1.
     999900   -1    0    0    0    0 -0.00000000000E+00 -0.00000000000E+00 -0.74505805969E-08  0.93827000000E+00  0.93827000000E+00 0.  1.
     999902    2    1    2    0    0  0.57117429967E-02 -0.19107986650E-01  0.10851692053E-01  0.10212254105E+01  0.10209729873E+01 0.  0.
     999903    2    3    3    0    0  0.18448280769E-01 -0.16778589445E-01  0.12942848853E+00  0.13317805699E+00  0.19047338239E-01 0.  0.
         14    1    1    2    0    0 -0.57117429967E-02  0.19107986650E-01 -0.10851692053E-01  0.22704589455E-01  0.00000000000E+00 0. -1.
     999901    1    3    3    0    0 -0.12736537773E-01 -0.23293972048E-02 -0.11857679648E+00  0.88804735355E+00  0.88000000000E+00 0.  1.
        -11    1    4    4    0    0  0.14910281828E-01 -0.96955749524E-02  0.45187970323E-01  0.48564745040E-01  0.51100000000E-03 0. -1.
         11    1    4    4    0    0  0.35379989410E-02 -0.70830144930E-02  0.84240518209E-01  0.84613311955E-01  0.51100000000E-03 0.  1.
</event>
<event>
 8    1  0.1099478E+005  0.1043930E+01  0.7957747E-01            NaN
         13   -1    0    0    0    0  0.00000000000E+00  0.00000000000E+00  0.74505805969E-08  0.10566000000E+00  0.10566000000E+00 0. -1.
     999900   -1    0    0    0    0 -0.00000000000E+00 -0.00000000000E+00 -0.74505805969E-08  0.93827000000E+00  0.93827000000E+00 0.  1.
     999902    2    1    2    0    0 -0.16283544339E-01  0.61992454495E-02  0.15298666190E-01  0.10207430716E+01  0.10204796836E+01 0.  0.
     999903    2    3    3    0    0 -0.11235619687E+00  0.43066030825E-01 -0.50896743965E-01  0.13227757046E+00  0.20694905535E-01 0.  0.
         14    1    1    2    0    0  0.16283544339E-01 -0.61992454495E-02 -0.15298666190E-01  0.23186928377E-01  0.00000000000E+00 0.  1.
     999901    1    3    3    0    0  0.96072652531E-01 -0.36866785375E-01  0.66195410155E-01  0.88846550116E+00  0.88000000000E+00 0. -1.
        -11    1    4    4    0    0 -0.52445842342E-01  0.93659657000E-02 -0.19919859410E-01  0.56880133723E-01  0.51100000000E-03 0. -1.
         11    1    4    4    0    0 -0.59910354527E-01  0.33700065125E-01 -0.30976884555E-01  0.75397436739E-01  0.51100000000E-03 0.  1.
</event>
<event>
 8    1  0.1099478E+005  0.1043930E+01  0.7957747E-01            NaN
         13   -1    0    0    0    0  0.00000000000E+00  0.00000000000E+00  0.74505805969E-08  0.10566000000E+00  0.10566000000E+00 0. -1.
     999900   -1    0    0    0    0 -0.00000000000E+00 -0.00000000000E+00 -0.74505805969E-08  0.93827000000E+00  0.93827000000E+00 0.  1.
     999902    2    1    2    0    0  0.15445822333E-01 -0.16366438459E-01  0.77206008069E-02  0.10201383752E+01  0.10198609038E+01 0.  0.
     999903    2    3    3    0    0  0.12884820078E+00 -0.21325122795E-01  0.13194763367E-01  0.13283084424E+00  0.20330068703E-01 0.  0.
         14    1    1    2    0    0 -0.15445822333E-01  0.16366438459E-01 -0.77206008069E-02  0.23791624833E-01  0.00000000000E+00 0.  1.
     999901    1    3    3    0    0 -0.11340237845E+00  0.49586843364E-02 -0.54741625605E-02  0.88730753093E+00  0.88000000000E+00 0. -1.
        -11    1    4    4    0    0  0.12809730085E+00 -0.22795271479E-01  0.14113051978E-01  0.13087391735E+00  0.51100000000E-03 0. -1.
         11    1    4    4    0    0  0.75089993682E-03  0.14701486834E-02 -0.91828861067E-03  0.19569268865E-02  0.51100000000E-03 0.  1.
</event>
<event>
 7    1  0.1099478E+005  0.1043930E+01  0.7957747E-01            NaN
         13   -1    0    0    0    0  0.00000000000E+00  0.00000000000E+00  0.74505805969E-08  0.10566000000E+00  0.10566000000E+00 0. -1.
     999900   -1    0    0    0    0 -0.00000000000E+00 -0.00000000000E+00 -0.74505805969E-08  0.93827000000E+00  0.93827000000E+00 0. -1.
     999902    2    1    2    0    0  0.14785707787E-01  0.51264649559E-02 -0.21963376920E-01  0.10169617275E+01  0.10166040859E+01 0.  0.
         14    1    1    2    0    0 -0.14785707787E-01 -0.51264649559E-02  0.21963376920E-01  0.26968272533E-01  0.00000000000E+00 0. -1.
     999901    1    3    3    0    0  0.18878704110E-01  0.11350813875E+00  0.37749574194E-01  0.88829360764E+00  0.88000000000E+00 0. -1.
        -11    1    3    3    0    0 -0.66992183823E-02 -0.36628036513E-02 -0.10338875211E-01  0.12862702638E-01  0.51100000000E-03 0.  1.
         11    1    3    3    0    0  0.26062220598E-02 -0.10471887014E+00 -0.49374075903E-01  0.11580541718E+00  0.51100000000E-03 0. -1.
</event>
<event>
 8    1  0.1099478E+005  0.1043930E+01  0.7957747E-01            NaN
         13   -1    0    0    0    0  0.00000000000E+00  0.00000000000E+00  0.74505805969E-08  0.10566000000E+00  0.10566000000E+00 0. -1.
     999900   -1    0    0    0    0 -0.00000000000E+00 -0.00000000000E+00 -0.74505805969E-08  0.93827000000E+00  0.93827000000E+00 0. -1.
     999902    2    1    2    0    0  0.47432928882E-02  0.49910487102E-02  0.22582014482E-01  0.10203215953E+01  0.10200484307E+01 0.  0.
     999903    2    3    3    0    0  0.11733038962E+00 -0.42893318107E-01  0.36287977646E-01  0.13175160910E+00  0.20866530922E-01 0.  0.
         14    1    1    2    0    0 -0.47432928882E-02 -0.49910487102E-02 -0.22582014482E-01  0.23608404705E-01  0.00000000000E+00 0.  1.
     999901    1    3    3    0    0 -0.11258709673E+00  0.47884366817E-01 -0.13705963164E-01  0.88856998619E+00  0.88000000000E+00 0. -1.
        -11    1    4    4    0    0  0.69409987359E-01 -0.24676348886E-01  0.10662312268E-01  0.74435304550E-01  0.51100000000E-03 0. -1.
         11    1    4    4    0    0  0.47920402262E-01 -0.18216969221E-01  0.25625665378E-01  0.57316304553E-01  0.51100000000E-03 0.  1.
</event>
<event>
 8    1  0.1099478E+005  0.1043930E+01  0.7957747E-01            NaN
         13   -1    0    0    0    0  0.00000000000E+00  0.00000000000E+00  0.74505805969E-08  0.10566000000E+00  0.10566000000E+00 0.  1.
     999900   -1    0    0    0    0 -0.00000000000E+00 -0.00000000000E+00 -0.74505805969E-08  0.93827000000E+00  0.93827000000E+00 0. -1.
     999902    2    1    2    0    0  0.15148837075E-01 -0.34306931219E-02  0.17523926260E-01  0.10205132344E+01  0.10202445377E+01 0.  0.
     999903    2    3    3    0    0 -0.57376746093E-01 -0.32559953408E-02 -0.11228530517E+00  0.12803890574E+00  0.21983610479E-01 0.  0.
         14    1    1    2    0    0 -0.15148837075E-01  0.34306931219E-02 -0.17523926260E-01  0.23416765609E-01  0.00000000000E+00 0. -1.
     999901    1    3    3    0    0  0.72525583168E-01 -0.17469778115E-03  0.12980923143E+00  0.89247432865E+00  0.88000000000E+00 0.  1.
        -11    1    4    4    0    0 -0.87949344880E-02  0.38689543879E-02 -0.36413576690E-01  0.37663369062E-01  0.51100000000E-03 0.  1.
         11    1    4    4    0    0 -0.48581811605E-01 -0.71249497287E-02 -0.75871728476E-01  0.90375536681E-01  0.51100000000E-03 0. -1.
</event>
<event>
 8    1  0.1099478E+005  0.1043930E+01  0.7957747E-01            NaN
         13   -1    0    0    0    0  0.00000000000E+00  0.00000000000E+00  0.74505805969E-08  0.10566000000E+00  0.10566000000E+00 0. -1.
     999900   -1    0    0    0    0 -0.00000000000E+00 -0.00000000000E+00 -0.74505805969E-08  0.93827000000E+00  0.93827000000E+00 0.  1.
     999902    2    1    2    0    0 -0.13749161349E-01  0.16353903924E-01 -0.98229966186E-02  0.10204144546E+01  0.10201434597E+01 0.  0.
     999903    2    3    3    0    0  0.94464990470E-01 -0.80548016695E-01 -0.25695040519E-01  0.12836501281E+00  0.20142591420E-01 0.  0.
         14    1    1    2    0    0  0.13749161349E-01 -0.16353903924E-01  0.98229966186E-02  0.23515545368E-01  0.00000000000E+00 0. -1.
     999901    1    3    3    0    0 -0.10821415182E+00  0.96901920619E-01  0.15872043901E-01  0.89204944182E+00  0.88000000000E+00 0.  1.
        -11    1    4    4    0    0  0.37888997485E-01 -0.41780156226E-01 -0.45215080714E-02  0.56585004559E-01  0.51100000000E-03 0.  1.
         11    1    4    4    0    0  0.56575992984E-01 -0.38767860469E-01 -0.21173532448E-01  0.71780008253E-01  0.51100000000E-03 0. -1.
</event>
<event>
 8    1  0.1099478E+005  0.1043930E+01  0.7957747E-01            NaN
         13   -1    0    0    0    0  0.00000000000E+00  0.00000000000E+00  0.74505805969E-08  0.10566000000E+00  0.10566000000E+00 0.  1.
     999900   -1    0    0    0    0 -0.00000000000E+00 -0.00000000000E+00 -0.74505805969E-08  0.93827000000E+00  0.93827000000E+00 0.  1.
     999902    2    1    2    0    0  0.17329902323E-02  0.19040907269E-01 -0.12697776170E-01  0.10209780301E+01  0.10207200130E+01 0.  0.
     999903    2    3    3    0    0  0.47999478248E-01  0.76456509374E-01 -0.96476715879E-01  0.13392896150E+00  0.21901193680E-01 0.  0.
         14    1    1    2    0    0 -0.17329902323E-02 -0.19040907269E-01  0.12697776170E-01  0.22951969946E-01  0.00000000000E+00 0. -1.
     999901    1    3    3    0    0 -0.46266488015E-01 -0.57415602105E-01  0.83778939709E-01  0.88704906855E+00  0.88000000000E+00 0. -1.
        -11    1    4    4    0    0  0.38234387690E-01  0.73134284986E-01 -0.86933556419E-01  0.11986741173E+00  0.51100000000E-03 0.  1.
         11    1    4    4    0    0  0.97650905581E-02  0.33222243873E-02 -0.95431594601E-02  0.14061549771E-01  0.51100000000E-03 0. -1.
</event>
<event>
 8    1  0.1099478E+005  0.1043930E+01  0.7957747E-01            NaN
         13   -1    0    0    0    0  0.00000000000E+00  0.00000000000E+00  0.74505805969E-08  0.10566000000E+00  0.10566000000E+00 0. -1.
     999900   -1    0    0    0    0 -0.00000000000E+00 -0.00000000000E+00 -0.74505805969E-08  0.93827000000E+00  0.93827000000E+00 0. -1.
     999902    2    1    2    0    0 -0.29192018718E-02  0.10945591837E-01 -0.21039209556E-01  0.10200348947E+01  0.10197549756E+01 0.  0.
     999903    2    3    3    0    0  0.15208596888E-01 -0.51834815034E-01  0.11404479419E+00  0.12733243324E+00  0.17005410993E-01 0.  0.
         14    1    1    2    0    0  0.29192018718E-02 -0.10945591837E-01  0.21039209556E-01  0.23895105335E-01  0.00000000000E+00 0. -1.
     999901    1    3    3    0    0 -0.18127798760E-01  0.62780406871E-01 -0.13508400375E+00  0.89270246143E+00  0.88000000000E+00 0. -1.
        -11    1    4    4    0    0  0.28524948814E-02 -0.37647538846E-01  0.73456400115E-01  0.82592843195E-01  0.51100000000E-03 0.  1.
         11    1    4    4    0    0  0.12356102006E-01 -0.14187276188E-01  0.40588394074E-01  0.44739590040E-01  0.51100000000E-03 0. -1.
</event>
<event>
 8    1  0.1099478E+005  0.1043930E+01  0.7957747E-01            NaN
         13   -1    0    0    0    0  0.00000000000E+00  0.00000000000E+00  0.74505805969E-08  0.10566000000E+00  0.10566000000E+00 0.  1.
     999900   -1    0    0    0    0 -0.00000000000E+00 -0.00000000000E+00 -0.74505805969E-08  0.93827000000E+00  0.93827000000E+00 0. -1.
     999902    2    1    2    0    0  0.17706954176E-01  0.12692646598E-01  0.88850020085E-02  0.10204016604E+01  0.10201303670E+01 0.  0.
     999903    2    3    3    0    0  0.41882673789E-02 -0.12340275798E+00 -0.28947083471E-01  0.12903418245E+00  0.23792947255E-01 0.  0.
         14    1    1    2    0    0 -0.17706954176E-01 -0.12692646598E-01 -0.88850020085E-02  0.23528339604E-01  0.00000000000E+00 0.  1.
     999901    1    3    3    0    0  0.13518686797E-01  0.13609540458E+00  0.37832085479E-01  0.89136747794E+00  0.88000000000E+00 0.  1.
        -11    1    4    4    0    0 -0.33388745501E-02 -0.39537544691E-01 -0.19763964606E-01  0.44331038127E-01  0.51100000000E-03 0. -1.
         11    1    4    4    0    0  0.75271419290E-02 -0.83865213290E-01 -0.91831188646E-02  0.84703144327E-01  0.51100000000E-03 0.  1.
</event>
<event>
 8    1  0.1099478E+005  0.1043930E+01  0.7957747E-01            NaN
         13   -1    0    0    0    0  0.00000000000E+00  0.00000000000E+00  0.74505805969E-08  0.10566000000E+00  0.10566000000E+00 0.  1.
     999900   -1    0    0    0    0 -0.00000000000E+00 -0.00000000000E+00 -0.74505805969E-08  0.93827000000E+00  0.93827000000E+00 0. -1.
     999902    2    1    2    0    0 -0.17592192035E-01 -0.12988372490E-01 -0.64447372410E-02  0.10211326826E+01  0.10208781700E+01 0.  0.
     999903    2    3    3    0    0 -0.55903489610E-01  0.96148175790E-01 -0.67049685736E-01  0.13149708226E+00  0.20643411215E-01 0.  0.
         14    1    1    2    0    0  0.17592192035E-01  0.12988372490E-01  0.64447372410E-02  0.22797317357E-01  0.00000000000E+00 0. -1.
     999901    1    3    3    0    0  0.38311297575E-01 -0.10913654828E+00  0.60604948495E-01  0.88963560039E+00  0.88000000000E+00 0.  1.
        -11    1    4    4    0    0 -0.35233759548E-01  0.73624556083E-01 -0.41057610901E-01  0.91367289574E-01  0.51100000000E-03 0.  1.
         11    1    4    4    0    0 -0.20669730062E-01  0.22523619707E-01 -0.25992074835E-01  0.40129792683E-01  0.51100000000E-03 0. -1.
</event>
<event>
 8    1  0.1099478E+005  0.1043930E+01  0.7957747E-01            NaN
         13   -1    0    0    0    0  0.00000000000E+00  0.00000000000E+00  0.74505805969E-08  0.10566000000E+00  0.10566000000E+00 0. -1.
     999900   -1    0    0    0    0 -0.00000000000E+00 -0.00000000000E+00 -0.74505805969E-08  0.93827000000E+00  0.93827000000E+00 0.  1.
     999902    2    1    2    0    0 -0.12359978101E-01  0.21837594698E-01 -0.24754787733E-02  0.10187153694E+01  0.10184032729E+01 0.  0.
     999903    2    3    3    0    0 -0.35190649551E-01 -0.11412803913E+00 -0.38807196242E-01  0.12724025094E+00  0.20505897879E-01 0.  0.
         14    1    1    2    0    0  0.12359978101E-01 -0.21837594698E-01  0.24754787733E-02  0.25214630594E-01  0.00000000000E+00 0. -1.
     999901    1    3    3    0    0  0.22830671450E-01  0.13596563383E+00  0.36331717469E-01  0.89147511846E+00  0.88000000000E+00 0. -1.
        -11    1    4    4    0    0 -0.21796961656E-01 -0.54088894312E-01 -0.28339035309E-01  0.64838862333E-01  0.51100000000E-03 0.  1.
         11    1    4    4    0    0 -0.13393687896E-01 -0.60039144821E-01 -0.10468160933E-01  0.62401388612E-01  0.51100000000E-03 0. -1.
</event>
<event>
 8    1  0.1099478E+005  0.1043930E+01  0.7957747E-01            NaN
         13   -1    0    0    0    0  0.00000000000E+00  0.00000000000E+00  0.74505805969E-08  0.10566000000E+00  0.10566000000E+00 0.  1.
     999900   -1    0    0    0    0 -0.00000000000E+00 -0.00000000000E+00 -0.74505805969E-08  0.93827000000E+00  0.93827000000E+00 0.  1.
     999902    2    1    2    0    0 -0.18881708284E-01 -0.95789761496E-02  0.15591926546E-02  0.10227001443E+01  0.10224797692E+01 0.  0.
     999903    2    3    3    0    0  0.43242665350E-01  0.11698618022E+00  0.33465252648E-01  0.13090634903E+00  0.21467524601E-01 0.  0.
         14    1    1    2    0    0  0.18881708284E-01  0.95789761496E-02 -0.15591926546E-02  0.21229855711E-01  0.00000000000E+00 0. -1.
     999901    1    3    3    0    0 -0.62124373633E-01 -0.12656515637E+00 -0.31906059993E-01  0.89179379526E+00  0.88000000000E+00 0.  1.
        -11    1    4    4    0    0  0.44015197229E-01  0.96791726571E-01  0.27513533218E-01  0.10983274353E+00  0.51100000000E-03 0. -1.
         11    1    4    4    0    0 -0.77253187979E-03  0.20194453645E-01  0.59517194301E-02  0.21073605498E-01  0.51100000000E-03 0.  1.
</event>
<event>
 8    1  0.1099478E+005  0.1043930E+01  0.7957747E-01            NaN
         13   -1    0    0    0    0  0.00000000000E+00  0.00000000000E+00  0.74505805969E-08  0.10566000000E+00  0.10566000000E+00 0. -1.
     999900   -1    0    0    0    0 -0.00000000000E+00 -0.00000000000E+00 -0.74505805969E-08  0.93827000000E+00  0.93827000000E+00 0.  1.
     999902    2    1    2    0    0 -0.29987504997E-01 -0.43089884624E-02  0.36372099560E-02  0.10134169350E+01  0.10129574705E+01 0.  0.
     999903    2    3    3    0    0  0.11134684798E+00 -0.41555485514E-01 -0.12970869258E-01  0.12120702186E+00  0.19947926401E-01 0.  0.
         14    1    1    2    0    0  0.29987504997E-01  0.43089884624E-02 -0.36372099560E-02  0.30513064968E-01  0.00000000000E+00 0. -1.
     999901    1    3    3    0    0 -0.14133435297E+00  0.37246497052E-01  0.16608079214E-01  0.89220991318E+00  0.88000000000E+00 0.  1.
        -11    1    4    4    0    0  0.37415246215E-01 -0.22875120608E-01 -0.94831230515E-02  0.44870508532E-01  0.51100000000E-03 0.  1.
         11    1    4    4    0    0  0.73931601761E-01 -0.18680364907E-01 -0.34877462061E-02  0.76336513325E-01  0.51100000000E-03 0. -1.
</event>
<event>
 8    1  0.1099478E+005  0.1043930E+01  0.7957747E-01            NaN
         13   -1    0    0    0    0  0.00000000000E+00  0.00000000000E+00  0.74505805969E-08  0.10566000000E+00  0.10566000000E+00 0.  1.
     999900   -1    0    0    0    0 -0.00000000000E+00 -0.00000000000E+00 -0.74505805969E-08  0.93827000000E+00  0.93827000000E+00 0. -1.
     999902    2    1    2    0    0  0.26115343045E-02  0.22695564086E-01 -0.75495160235E-02  0.10198695775E+01  0.10195857252E+01 0.  0.
     999903    2    3    3    0    0  0.18469538443E-01  0.86761067356E-02  0.12573589494E+00  0.12958140936E+00  0.23778723625E-01 0.  0.
         14    1    1    2    0    0 -0.26115343045E-02 -0.22695564086E-01  0.75495160235E-02  0.24060422540E-01  0.00000000000E+00 0.  1.
     999901    1    3    3    0    0 -0.15858004138E-01  0.14019457351E-01 -0.13328541096E+00  0.89028816810E+00  0.88000000000E+00 0. -1.
        -11    1    4    4    0    0  0.21516654360E-01 -0.11801137559E-03  0.76454610794E-01  0.79426374550E-01  0.51100000000E-03 0.  1.
         11    1    4    4    0    0 -0.30471159176E-02  0.87941181112E-02  0.49281284147E-01  0.50155034811E-01  0.51100000000E-03 0. -1.
</event>
<event>
 8    1  0.1099478E+005  0.1043930E+01  0.7957747E-01            NaN
         13   -1    0    0    0    0  0.00000000000E+00  0.00000000000E+00  0.74505805969E-08  0.10566000000E+00  0.10566000000E+00 0.  1.
     999900   -1    0    0    0    0 -0.00000000000E+00 -0.00000000000E+00 -0.74505805969E-08  0.93827000000E+00  0.93827000000E+00 0. -1.
     999902    2    1    2    0    0 -0.21830968837E-01 -0.82279890102E-02 -0.52841192385E-02  0.10200090276E+01  0.10197284950E+01 0.  0.
     999903    2    3    3    0    0  0.75726718946E-02  0.65982574116E-01  0.10889820409E+00  0.12904921667E+00  0.19591733527E-01 0.  0.
         14    1    1    2    0    0  0.21830968837E-01  0.82279890102E-02  0.52841192385E-02  0.23920972381E-01  0.00000000000E+00 0. -1.
     999901    1    3    3    0    0 -0.29403640732E-01 -0.74210563126E-01 -0.11418232333E+00  0.89095981095E+00  0.88000000000E+00 0.  1.
        -11    1    4    4    0    0 -0.49226446016E-02  0.39807507933E-01  0.66944749108E-01  0.78043133406E-01  0.51100000000E-03 0. -1.
         11    1    4    4    0    0  0.12495316496E-01  0.26175066183E-01  0.41953454980E-01  0.51006083263E-01  0.51100000000E-03 0.  1.
</event>
<event>
 8    1  0.1099478E+005  0.1043930E+01  0.7957747E-01            NaN
         13   -1    0    0    0    0  0.00000000000E+00  0.00000000000E+00  0.74505805969E-08  0.10566000000E+00  0.10566000000E+00 0.  1.
     999900   -1    0    0    0    0 -0.00000000000E+00 -0.00000000000E+00 -0.74505805969E-08  0.93827000000E+00  0.93827000000E+00 0.  1.
     999902    2    1    2    0    0 -0.50435648820E-02 -0.20367335205E-01 -0.12028821141E-01  0.10197440862E+01  0.10194572295E+01 0.  0.
     999903    2    3    3    0    0  0.10058537790E+00 -0.87297694572E-02  0.77555187265E-01  0.12883544828E+00  0.19751924993E-01 0.  0.
         14    1    1    2    0    0  0.50435648820E-02  0.20367335205E-01  0.12028821141E-01  0.24185913837E-01  0.00000000000E+00 0.  1.
     999901    1    3    3    0    0 -0.10562894278E+00 -0.11637565748E-01 -0.89584008405E-01  0.89090863788E+00  0.88000000000E+00 0. -1.
        -11    1    4    4    0    0  0.57708463908E-01  0.26193875129E-02  0.51498977338E-01  0.77392078312E-01  0.51100000000E-03 0. -1.
         11    1    4    4    0    0  0.42876913990E-01 -0.11349156970E-01  0.26056209926E-01  0.51443369971E-01  0.51100000000E-03 0.  1.
</event>
<event>
 8    1  0.1099478E+005  0.1043930E+01  0.7957747E-01            NaN
         13   -1    0    0    0    0  0.00000000000E+00  0.00000000000E+00  0.74505805969E-08  0.10566000000E+00  0.10566000000E+00 0. -1.
     999900   -1    0    0    0    0 -0.00000000000E+00 -0.00000000000E+00 -0.74505805969E-08  0.93827000000E+00  0.93827000000E+00 0.  1.
     999902    2    1    2    0    0 -0.19923198598E-01 -0.78514764185E-02 -0.98517257451E-02  0.10203580670E+01  0.10200857557E+01 0.  0.
     999903    2    3    3    0    0  0.47583971511E-02  0.20297728049E-01 -0.12843383934E+00  0.13161554157E+00  0.19818163078E-01 0.  0.
         14    1    1    2    0    0  0.19923198598E-01  0.78514764185E-02  0.98517257451E-02  0.23571932981E-01  0.00000000000E+00 0.  1.
     999901    1    3    3    0    0 -0.24681595749E-01 -0.28149204468E-01  0.11858211359E+00  0.88874252545E+00  0.88000000000E+00 0. -1.
        -11    1    4    4    0    0  0.25321376430E-03 -0.12773391195E-02 -0.53190715972E-01  0.53209107294E-01  0.51100000000E-03 0.  1.
         11    1    4    4    0    0  0.45051833868E-02  0.21575067169E-01 -0.75243123366E-01  0.78406434274E-01  0.51100000000E-03 0. -1.
</event>
<event>
 8    1  0.1099478E+005  0.1043930E+01  0.7957747E-01            NaN
         13   -1    0    0    0    0  0.00000000000E+00  0.00000000000E+00  0.74505805969E-08  0.10566000000E+00  0.10566000000E+00 0.  1.
     999900   -1    0    0    0    0 -0.00000000000E+00 -0.00000000000E+00 -0.74505805969E-08  0.93827000000E+00  0.93827000000E+00 0. -1.
     999902    2    1    2    0    0  0.22007907943E-01 -0.13728959300E-01 -0.87428554120E-02  0.10165572059E+01  0.10161886060E+01 0.  0.
     999903    2    3    3    0    0 -0.59537030090E-01 -0.10888293054E+00 -0.21470334262E-01  0.12758822789E+00  0.20436000787E-01 0.  0.
         14    1    1    2    0    0 -0.22007907943E-01  0.13728959300E-01  0.87428554120E-02  0.27372794089E-01  0.00000000000E+00 0.  1.
     999901    1    3    3    0    0  0.81544938033E-01  0.95153971241E-01  0.12727478850E-01  0.88896897802E+00  0.88000000000E+00 0.  1.
        -11    1    4    4    0    0 -0.30430281309E-01 -0.37221251400E-01 -0.36858508540E-02  0.48221055503E-01  0.51100000000E-03 0.  1.
         11    1    4    4    0    0 -0.29106748782E-01 -0.71661679141E-01 -0.17784483408E-01  0.79367172389E-01  0.51100000000E-03 0. -1.
</event>
<event>
 8    1  0.1099478E+005  0.1043930E+01  0.7957747E-01            NaN
         13   -1    0    0    0    0  0.00000000000E+00  0.00000000000E+00  0.74505805969E-08  0.10566000000E+00  0.10566000000E+00 0.  1.
     999900   -1    0    0    0    0 -0.00000000000E+00 -0.00000000000E+00 -0.74505805969E-08  0.93827000000E+00  0.93827000000E+00 0.  1.
     999902    2    1    2    0    0 -0.13575652265E-01 -0.17206547486E-01 -0.62895640281E-02  0.10211281969E+01  0.10208735829E+01 0.  0.
     999903    2    3    3    0    0 -0.45993386195E-01 -0.56161552856E-01  0.10868424212E+00  0.13220335301E+00  0.19898504164E-01 0.  0.
         14    1    1    2    0    0  0.13575652265E-01  0.17206547486E-01  0.62895640281E-02  0.22801803140E-01  0.00000000000E+00 0.  1.
     999901    1    3    3    0    0  0.32417733930E-01  0.38955005371E-01 -0.11497380615E+00  0.88892484385E+00  0.88000000000E+00 0.  1.
        -11    1    4    4    0    0 -0.29267332059E-01 -0.28567697724E-01  0.45010431772E-01  0.60818501860E-01  0.51100000000E-03 0. -1.
         11    1    4    4    0    0 -0.16726054136E-01 -0.27593855132E-01  0.63673810349E-01  0.71384851148E-01  0.51100000000E-03 0.  1.
</event>
<event>
 8    1  0.1099478E+005  0.1043930E+01  0.7957747E-01            NaN
         13   -1    0    0    0    0  0.00000000000E+00  0.00000000000E+00  0.74505805969E-08  0.10566000000E+00  0.10566000000E+00 0. -1.
     999900   -1    0    0    0    0 -0.00000000000E+00 -0.00000000000E+00 -0.74505805969E-08  0.93827000000E+00  0.93827000000E+00 0. -1.
     999902    2    1    2    0    0 -0.56051514367E-02 -0.25462659783E-01  0.11319834825E-01  0.10155063580E+01  0.10151084965E+01 0.  0.
     999903    2    3    3    0    0  0.43779523799E-01  0.86963883046E-01 -0.72326625154E-01  0.12305170705E+00  0.20765795027E-01 0.  0.
         14    1    1    2    0    0  0.56051514367E-02  0.25462659783E-01 -0.11319834825E-01  0.28423642031E-01  0.00000000000E+00 0. -1.
     999901    1    3    3    0    0 -0.49384675235E-01 -0.11242654283E+00  0.83646459979E-01  0.89245465092E+00  0.88000000000E+00 0.  1.
        -11    1    4    4    0    0  0.29461418674E-01  0.75373042071E-01 -0.55824283086E-01  0.98314202252E-01  0.51100000000E-03 0. -1.
         11    1    4    4    0    0  0.14318105125E-01  0.11590840975E-01 -0.16502342068E-01  0.24737504797E-01  0.51100000000E-03 0.  1.
</event>
<event>
 8    1  0.1099478E+005  0.1043930E+01  0.7957747E-01            NaN
         13   -1    0    0    0    0  0.00000000000E+00  0.00000000000E+00  0.74505805969E-08  0.10566000000E+00  0.10566000000E+00 0.  1.
     999900   -1    0    0    0    0 -0.00000000000E+00 -0.00000000000E+00 -0.74505805969E-08  0.93827000000E+00  0.93827000000E+00 0.  1.
     999902    2    1    2    0    0  0.48747771428E-02  0.15050234655E-01  0.17076130816E-01  0.10206519576E+01  0.10203864715E+01 0.  0.
     999903    2    3    3    0    0  0.36643419875E-01 -0.64659047115E-01 -0.10290853982E+00  0.12837445733E+00  0.19138995069E-01 0.  0.
         14    1    1    2    0    0 -0.48747771428E-02 -0.15050234655E-01 -0.17076130816E-01  0.23278042422E-01  0.00000000000E+00 0. -1.
     999901    1    3    3    0    0 -0.31768642732E-01  0.79709281770E-01  0.11998467064E+00  0.89227750025E+00  0.88000000000E+00 0. -1.
        -11    1    4    4    0    0  0.31715570395E-01 -0.46195542305E-01 -0.87094618746E-01  0.10356466226E+00  0.51100000000E-03 0. -1.
         11    1    4    4    0    0  0.49278494795E-02 -0.18463504810E-01 -0.15813921076E-01  0.24809795065E-01  0.51100000000E-03 0.  1.
</event>
<event>
 8    1  0.1099478E+005  0.1043930E+01  0.7957747E-01            NaN
         13   -1    0    0    0    0  0.00000000000E+00  0.00000000000E+00  0.74505805969E-08  0.10566000000E+00  0.10566000000E+00 0.  1.
     999900   -1    0    0    0    0 -0.00000000000E+00 -0.00000000000E+00 -0.74505805969E-08  0.93827000000E+00  0.93827000000E+00 0. -1.
     999902    2    1    2    0    0  0.16337153184E-01 -0.24615241930E-02 -0.16488767973E-01  0.10205881675E+01  0.10203212075E+01 0.  0.
     999903    2    3    3    0    0 -0.32925740392E-01  0.40381938254E-01  0.11552757133E+00  0.12834901301E+00  0.20298869020E-01 0.  0.
         14    1    1    2    0    0 -0.16337153184E-01  0.24615241930E-02  0.16488767973E-01  0.23341832506E-01  0.00000000000E+00 0.  1.
     999901    1    3    3    0    0  0.49262893575E-01 -0.42843462447E-01 -0.13201633931E+00  0.89223915449E+00  0.88000000000E+00 0. -1.
        -11    1    4    4    0    0 -0.35312109757E-01  0.34999474290E-01  0.10682636015E+00  0.11783055903E+00  0.51100000000E-03 0.  1.
         11    1    4    4    0    0  0.23863693651E-02  0.53824639638E-02  0.87012111805E-02  0.10518453977E-01  0.51100000000E-03 0. -1.
</event>
<event>
 8    1  0.1099478E+005  0.1043930E+01  0.7957747E-01            NaN
         13   -1    0    0    0    0  0.00000000000E+00  0.00000000000E+00  0.74505805969E-08  0.10566000000E+00  0.10566000000E+00 0. -1.
     999900   -1    0    0    0    0 -0.00000000000E+00 -0.00000000000E+00 -0.74505805969E-08  0.93827000000E+00  0.93827000000E+00 0. -1.
     999902    2    1    2    0    0 -0.22402603107E-01  0.63669057848E-02 -0.28187667349E-03  0.10206385086E+01  0.10203727122E+01 0.  0.
     999903    2    3    3    0    0  0.94860329226E-01  0.81541715440E-01  0.10913387486E-01  0.12961259362E+00  0.32137034400E-01 0.  0.
         14    1    1    2    0    0  0.22402603107E-01 -0.63669057848E-02  0.28187667349E-03  0.23291491359E-01  0.00000000000E+00 0. -1.
     999901    1    3    3    0    0 -0.11726293233E+00 -0.75174809655E-01 -0.11195264159E-01  0.89102591502E+00  0.88000000000E+00 0.  1.
        -11    1    4    4    0    0  0.55253337888E-01  0.57004700117E-01 -0.69902211866E-02  0.79696872564E-01  0.51100000000E-03 0. -1.
         11    1    4    4    0    0  0.39606991337E-01  0.24537015322E-01  0.17903608672E-01  0.49915721053E-01  0.51100000000E-03 0.  1.
</event>
<event>
 8    1  0.1099478E+005  0.1043930E+01  0.7957747E-01            NaN
         13   -1    0    0    0    0  0.00000000000E+00  0.00000000000E+00  0.74505805969E-08  0.10566000000E+00  0.10566000000E+00 0. -1.
     999900   -1    0    0    0    0 -0.00000000000E+00 -0.00000000000E+00 -0.74505805969E-08  0.93827000000E+00  0.93827000000E+00 0. -1.
     999902    2    1    2    0    0 -0.13650192664E-01  0.15419576946E-01  0.18624457474E-01  0.10161638060E+01  0.10157843861E+01 0.  0.
     999903    2    3    3    0    0  0.81327473353E-01 -0.49493315885E-01  0.80865713521E-01  0.12649621940E+00  0.19957045362E-01 0.  0.
         14    1    1    2    0    0  0.13650192664E-01 -0.15419576946E-01 -0.18624457474E-01  0.27766193999E-01  0.00000000000E+00 0.  1.
     999901    1    3    3    0    0 -0.94977666017E-01  0.64912892831E-01 -0.62241256046E-01  0.88966758660E+00  0.88000000000E+00 0. -1.
        -11    1    4    4    0    0  0.43666703514E-01 -0.37986382908E-01  0.49050982774E-01  0.75868348567E-01  0.51100000000E-03 0.  1.
         11    1    4    4    0    0  0.37660769839E-01 -0.11506932976E-01  0.31814730746E-01  0.50627870831E-01  0.51100000000E-03 0. -1.
</event>
<event>
 8    1  0.1099478E+005  0.1043930E+01  0.7957747E-01            NaN
         13   -1    0    0    0    0  0.00000000000E+00  0.00000000000E+00  0.74505805969E-08  0.10566000000E+00  0.10566000000E+00 0. -1.
     999900   -1    0    0    0    0 -0.00000000000E+00 -0.00000000000E+00 -0.74505805969E-08  0.93827000000E+00  0.93827000000E+00 0.  1.
     999902    2    1    2    0    0 -0.42851036939E-02 -0.23231509456E-01  0.23691862299E-02  0.10201880921E+01  0.10199117928E+01 0.  0.
     999903    2    3    3    0    0 -0.42367752939E-01 -0.72228547950E-01  0.10070467113E+00  0.13253902548E+00  0.20326653940E-01 0.  0.
         14    1    1    2    0    0  0.42851036939E-02  0.23231509456E-01 -0.23691862299E-02  0.23741907856E-01  0.00000000000E+00 0.  1.
     999901    1    3    3    0    0  0.38082649246E-01  0.48997038494E-01 -0.98335484899E-01  0.88764906666E+00  0.88000000000E+00 0.  1.
        -11    1    4    4    0    0 -0.74385079876E-02 -0.25245380935E-01  0.42439041337E-01  0.49939903987E-01  0.51100000000E-03 0. -1.
         11    1    4    4    0    0 -0.34929244952E-01 -0.46983167015E-01  0.58265629792E-01  0.82599121495E-01  0.51100000000E-03 0.  1.
</event>
<event>
 8    1  0.1099478E+005  0.1043930E+01  0.7957747E-01            NaN
         13   -1    0    0    0    0  0.00000000000E+00  0.00000000000E+00  0.74505805969E-08  0.10566000000E+00  0.10566000000E+00 0.  1.
     999900   -1    0    0    0    0 -0.00000000000E+00 -0.00000000000E+00 -0.74505805969E-08  0.93827000000E+00  0.93827000000E+00 0. -1.
     999902    2    1    2    0    0  0.67465717426E-02 -0.10123593559E-01 -0.20292338549E-01  0.10202702794E+01  0.10199959120E+01 0.  0.
     999903    2    3    3    0    0 -0.55730032745E-01  0.54893631215E-01  0.98912250183E-01  0.12766717630E+00  0.19902948772E-01 0.  0.
         14    1    1    2    0    0 -0.67465717426E-02  0.10123593559E-01  0.20292338549E-01  0.23659720637E-01  0.00000000000E+00 0.  1.
     999901    1    3    3    0    0  0.62476604488E-01 -0.65017224775E-01 -0.11920458873E+00  0.89260310306E+00  0.88000000000E+00 0.  1.
        -11    1    4    4    0    0 -0.26471131132E-01  0.38116223787E-01  0.49649137719E-01  0.67962234339E-01  0.51100000000E-03 0. -1.
         11    1    4    4    0    0 -0.29258901613E-01  0.16777407429E-01  0.49263112464E-01  0.59704941959E-01  0.51100000000E-03 0.  1.
</event>
<event>
 8    1  0.1099478E+005  0.1043930E+01  0.7957747E-01            NaN
         13   -1    0    0    0    0  0.00000000000E+00  0.00000000000E+00  0.74505805969E-08  0.10566000000E+00  0.10566000000E+00 0.  1.
     999900   -1    0    0    0    0 -0.00000000000E+00 -0.00000000000E+00 -0.74505805969E-08  0.93827000000E+00  0.93827000000E+00 0. -1.
     999902    2    1    2    0    0  0.23578309547E-01 -0.48380705035E-02  0.26439678822E-02  0.10197156618E+01  0.10194281224E+01 0.  0.
     999903    2    3    3    0    0  0.53377717101E-01 -0.10362218170E+00 -0.58940445464E-01  0.13154960455E+00  0.15639217451E-01 0.  0.
         14    1    1    2    0    0 -0.23578309547E-01  0.48380705035E-02 -0.26439678822E-02  0.24214338179E-01  0.00000000000E+00 0.  1.
     999901    1    3    3    0    0 -0.29799407554E-01  0.98784111200E-01  0.61584413346E-01  0.88816605727E+00  0.88000000000E+00 0.  1.
        -11    1    4    4    0    0  0.23328942485E-01 -0.57719634151E-01 -0.25371383562E-01  0.67229189708E-01  0.51100000000E-03 0.  1.
         11    1    4    4    0    0  0.30048774616E-01 -0.45902547553E-01 -0.33569061902E-01  0.64320414845E-01  0.51100000000E-03 0. -1.
</event>
<event>
 8    1  0.1099478E+005  0.1043930E+01  0.7957747E-01            NaN
         13   -1    0    0    0    0  0.00000000000E+00  0.00000000000E+00  0.74505805969E-08  0.10566000000E+00  0.10566000000E+00 0. -1.
     999900   -1    0    0    0    0 -0.00000000000E+00 -0.00000000000E+00 -0.74505805969E-08  0.93827000000E+00  0.93827000000E+00 0. -1.
     999902    2    1    2    0    0 -0.14248645448E-01 -0.24601770782E-02  0.18511476050E-01  0.10204406170E+01  0.10201702317E+01 0.  0.
     999903    2    3    3    0    0 -0.11167986027E+00  0.14905688225E-01 -0.65268971588E-01  0.13093874611E+00  0.13796588345E-01 0.  0.
         14    1    1    2    0    0  0.14248645448E-01  0.24601770782E-02 -0.18511476050E-01  0.23489383004E-01  0.00000000000E+00 0. -1.
     999901    1    3    3    0    0  0.97431214822E-01 -0.17365865303E-01  0.83780447638E-01  0.88950187088E+00  0.88000000000E+00 0.  1.
        -11    1    4    4    0    0 -0.76232224185E-01  0.15561324553E-01 -0.48799315101E-01  0.91843024239E-01  0.51100000000E-03 0.  1.
         11    1    4    4    0    0 -0.35447636085E-01 -0.65563632780E-03 -0.16469656487E-01  0.39095721873E-01  0.51100000000E-03 0. -1.
</event>
<event>
 8    1  0.1099478E+005  0.1043930E+01  0.7957747E-01            NaN
         13   -1    0    0    0    0  0.00000000000E+00  0.00000000000E+00  0.74505805969E-08  0.10566000000E+00  0.10566000000E+00 0.  1.
     999900   -1    0    0    0    0 -0.00000000000E+00 -0.00000000000E+00 -0.74505805969E-08  0.93827000000E+00  0.93827000000E+00 0.  1.
     999902    2    1    2    0    0 -0.26803512679E-01 -0.58885628574E-02 -0.13962247454E-02  0.10164517739E+01  0.10160802900E+01 0.  0.
     999903    2    3    3    0    0  0.80727228879E-01  0.66108946599E-01  0.64662625764E-01  0.12453794767E+00  0.21003974277E-01 0.  0.
         14    1    1    2    0    0  0.26803512679E-01  0.58885628574E-02  0.13962247454E-02  0.27478226071E-01  0.00000000000E+00 0. -1.
     999901    1    3    3    0    0 -0.10753074156E+00 -0.71997509456E-01 -0.66058850509E-01  0.89191382626E+00  0.88000000000E+00 0.  1.
        -11    1    4    4    0    0  0.73352936221E-01  0.63354419718E-01  0.53035534030E-01  0.11048739630E+00  0.51100000000E-03 0.  1.
         11    1    4    4    0    0  0.73742926575E-02  0.27545268807E-02  0.11627091734E-01  0.14050551368E-01  0.51100000000E-03 0. -1.
</event>
<event>
 8    1  0.1099478E+005  0.1043930E+01  0.7957747E-01            NaN
         13   -1    0    0    0    0  0.00000000000E+00  0.00000000000E+00  0.74505805969E-08  0.10566000000E+00  0.10566000000E+00 0.  1.
     999900   -1    0    0    0    0 -0.00000000000E+00 -0.00000000000E+00 -0.74505805969E-08  0.93827000000E+00  0.93827000000E+00 0. -1.
     999902    2    1    2    0    0 -0.10634821205E-02  0.23002796120E-02  0.23697625878E-01  0.10200972546E+01  0.10198188119E+01 0.  0.
     999903    2    3    3    0    0  0.66111914201E-01  0.99397732892E-03  0.11367869665E+00  0.13296094412E+00  0.19595749485E-01 0.  0.
         14    1    1    2    0    0  0.10634821205E-02 -0.23002796120E-02 -0.23697625878E-01  0.23832745389E-01  0.00000000000E+00 0. -1.
     999901    1    3    3    0    0 -0.67175396321E-01  0.13063022831E-02 -0.89981070776E-01  0.88713631049E+00  0.88000000000E+00 0. -1.
        -11    1    4    4    0    0  0.22209318038E-01 -0.64508280842E-02  0.51732482470E-01  0.56669020234E-01  0.51100000000E-03 0. -1.
         11    1    4    4    0    0  0.43902596163E-01  0.74448054131E-02  0.61946214183E-01  0.76291923885E-01  0.51100000000E-03 0.  1.
</event>
<event>
 8    1  0.1099478E+005  0.1043930E+01  0.7957747E-01            NaN
         13   -1    0    0    0    0  0.00000000000E+00  0.00000000000E+00  0.74505805969E-08  0.10566000000E+00  0.10566000000E+00 0.  1.
     999900   -1    0    0    0    0 -0.00000000000E+00 -0.00000000000E+00 -0.74505805969E-08  0.93827000000E+00  0.93827000000E+00 0.  1.
     999902    2    1    2    0    0 -0.13035671593E-02  0.14814178923E-01 -0.19404162546E-01  0.10194824907E+01  0.10191893191E+01 0.  0.
     999903    2    3    3    0    0 -0.92721780867E-01 -0.83989088400E-01 -0.25480605564E-01  0.12922618013E+00  0.19966190287E-01 0.  0.
         14    1    1    2    0    0  0.13035671593E-02 -0.14814178923E-01  0.19404162546E-01  0.24447509252E-01  0.00000000000E+00 0. -1.
     999901    1    3    3    0    0  0.91418213707E-01  0.98803267323E-01  0.60764430182E-02  0.89025631062E+00  0.88000000000E+00 0.  1.
        -11    1    4    4    0    0 -0.38340078343E-01 -0.27513887319E-01 -0.14235368034E-02  0.47215073660E-01  0.51100000000E-03 0.  1.
         11    1    4    4    0    0 -0.54381702524E-01 -0.56475201080E-01 -0.24057068761E-01  0.82011106472E-01  0.51100000000E-03 0. -1.
</event>
<event>
 8    1  0.1099478E+005  0.1043930E+01  0.7957747E-01            NaN
         13   -1    0    0    0    0  0.00000000000E+00  0.00000000000E+00  0.74505805969E-08  0.10566000000E+00  0.10566000000E+00 0.  1.
     999900   -1    0    0    0    0 -0.00000000000E+00 -0.00000000000E+00 -0.74505805969E-08  0.93827000000E+00  0.93827000000E+00 0. -1.
     999902    2    1    2    0    0  0.19022382632E-01 -0.14466869989E-01  0.52869818325E-03  0.10200255885E+01  0.10197454488E+01 0.  0.
     999903    2    3    3    0    0 -0.11196718538E+00 -0.21632622282E-01 -0.55895579782E-01  0.12851377472E+00  0.19668591830E-01 0.  0.
         14    1    1    2    0    0 -0.19022382632E-01  0.14466869989E-01 -0.52869818325E-03  0.23904411518E-01  0.00000000000E+00 0.  1.
     999901    1    3    3    0    0  0.13098956801E+00  0.71657522925E-02  0.56424277965E-01  0.89151181376E+00  0.88000000000E+00 0.  1.
        -11    1    4    4    0    0 -0.13473400434E-01 -0.38255500520E-02 -0.30075501072E-03  0.14018520858E-01  0.51100000000E-03 0.  1.
         11    1    4    4    0    0 -0.98493784946E-01 -0.17807072229E-01 -0.55594824771E-01  0.11449525386E+00  0.51100000000E-03 0. -1.
</event>
<event>
 8    1  0.1099478E+005  0.1043930E+01  0.7957747E-01            NaN
         13   -1    0    0    0    0  0.00000000000E+00  0.00000000000E+00  0.74505805969E-08  0.10566000000E+00  0.10566000000E+00 0. -1.
     999900   -1    0    0    0    0 -0.00000000000E+00 -0.00000000000E+00 -0.74505805969E-08  0.93827000000E+00  0.93827000000E+00 0. -1.
     999902    2    1    2    0    0  0.14000319408E-01 -0.19432458028E-01  0.38386301997E-02  0.10196737750E+01  0.10193852280E+01 0.  0.
     999903    2    3    3    0    0  0.72109581321E-01 -0.87147671046E-01  0.68490189690E-01  0.13280182229E+00  0.12284528172E-01 0.  0.
         14    1    1    2    0    0 -0.14000319408E-01  0.19432458028E-01 -0.38386301997E-02  0.24256224981E-01  0.00000000000E+00 0. -1.
     999901    1    3    3    0    0 -0.58109261913E-01  0.67715213018E-01 -0.64651559491E-01  0.88687195273E+00  0.88000000000E+00 0. -1.
        -11    1    4    4    0    0  0.39191364257E-01 -0.50846106041E-01  0.32205881015E-01  0.71824573962E-01  0.51100000000E-03 0.  1.
         11    1    4    4    0    0  0.32918217064E-01 -0.36301565005E-01  0.36284308676E-01  0.60977248327E-01  0.51100000000E-03 0. -1.
</event>
<event>
 7    1  0.1099478E+005  0.1043930E+01  0.7957747E-01            NaN
         13   -1    0    0    0    0  0.00000000000E+00  0.00000000000E+00  0.74505805969E-08  0.10566000000E+00  0.10566000000E+00 0.  1.
     999900   -1    0    0    0    0 -0.00000000000E+00 -0.00000000000E+00 -0.74505805969E-08  0.93827000000E+00  0.93827000000E+00 0.  1.
     999903    2    1    2    0    0 -0.27877792884E-01  0.73893611520E-01 -0.77592767680E-01  0.11259087696E+00  0.20460469637E-01 0.  0.
         14    1    1    2    0    0 -0.33978954228E-01  0.53392458791E-02 -0.20756058941E-01  0.40173260506E-01  0.00000000000E+00 0. -1.
     999901    1    1    2    0    0  0.61856747112E-01 -0.79232857399E-01  0.98348826622E-01  0.89116586254E+00  0.88000000000E+00 0. -1.
        -11    1    3    3    0    0 -0.25503142239E-02  0.30013133306E-01 -0.21553468709E-01  0.37041941200E-01  0.51100000000E-03 0.  1.
         11    1    3    3    0    0 -0.25327478660E-01  0.43880478214E-01 -0.56039298971E-01  0.75548935755E-01  0.51100000000E-03 0. -1.
</event>
<event>
 8    1  0.1099478E+005  0.1043930E+01  0.7957747E-01            NaN
         13   -1    0    0    0    0  0.00000000000E+00  0.00000000000E+00  0.74505805969E-08  0.10566000000E+00  0.10566000000E+00 0.  1.
     999900   -1    0    0    0    0 -0.00000000000E+00 -0.00000000000E+00 -0.74505805969E-08  0.93827000000E+00  0.93827000000E+00 0. -1.
     999902    2    1    2    0    0  0.16863737751E-01 -0.16415137729E-01 -0.35413728612E-04  0.10203961169E+01  0.10201246943E+01 0.  0.
     999903    2    3    3    0    0  0.63347334302E-01 -0.32604129767E-01  0.10943498241E+00  0.13224828249E+00  0.20920774480E-01 0.  0.
         14    1    1    2    0    0 -0.16863737751E-01  0.16415137729E-01  0.35413728612E-04  0.23533883057E-01  0.00000000000E+00 0.  1.
     999901    1    3    3    0    0 -0.46483596552E-01  0.16188992038E-01 -0.10947039614E+00  0.88814783445E+00  0.88000000000E+00 0. -1.
        -11    1    4    4    0    0  0.42805334134E-01 -0.10559724440E-01  0.66709871891E-01  0.79964195358E-01  0.51100000000E-03 0.  1.
         11    1    4    4    0    0  0.20542000169E-01 -0.22044405327E-01  0.42725110522E-01  0.52284087132E-01  0.51100000000E-03 0. -1.
</event>
<event>
 8    1  0.1099478E+005  0.1043930E+01  0.7957747E-01            NaN
         13   -1    0    0    0    0  0.00000000000E+00  0.00000000000E+00  0.74505805969E-08  0.10566000000E+00  0.10566000000E+00 0.  1.
     999900   -1    0    0    0    0 -0.00000000000E+00 -0.00000000000E+00 -0.74505805969E-08  0.93827000000E+00  0.93827000000E+00 0.  1.
     999902    2    1    2    0    0  0.64074017065E-03  0.22721674746E-01 -0.62267266247E-02  0.10203618610E+01  0.10200896383E+01 0.  0.
     999903    2    3    3    0    0  0.59004930041E-01 -0.64771681286E-01  0.91916494343E-01  0.12868167292E+00  0.20817745946E-01 0.  0.
         14    1    1    2    0    0 -0.64074017065E-03 -0.22721674746E-01  0.62267266247E-02  0.23568138995E-01  0.00000000000E+00 0.  1.
     999901    1    3    3    0    0 -0.58364189870E-01  0.87493356032E-01 -0.98143220968E-01  0.89168018809E+00  0.88000000000E+00 0.  1.
        -11    1    4    4    0    0  0.60295514277E-01 -0.59959886910E-01  0.86269419408E-01  0.12113385541E+00  0.51100000000E-03 0. -1.
         11    1    4    4    0    0 -0.12905842366E-02 -0.48117943762E-02  0.56470749359E-02  0.75478175072E-02  0.51100000000E-03 0.  1.
</event>
<event>
 8    1  0.1099478E+005  0.1043930E+01  0.7957747E-01            NaN
         13   -1    0    0    0    0  0.00000000000E+00  0.00000000000E+00  0.74505805969E-08  0.10566000000E+00  0.10566000000E+00 0. -1.
     999900   -1    0    0    0    0 -0.00000000000E+00 -0.00000000000E+00 -0.74505805969E-08  0.93827000000E+00  0.93827000000E+00 0.  1.
     999902    2    1    2    0    0 -0.10914617212E-01  0.11673160570E-01  0.17849741316E-01  0.10199716025E+01  0.10196901809E+01 0.  0.
     999903    2    3    3    0    0  0.10484123527E+00 -0.26095690195E-01  0.69532499067E-01  0.13008564860E+00  0.20367569425E-01 0.  0.
         14    1    1    2    0    0  0.10914617212E-01 -0.11673160570E-01 -0.17849741316E-01  0.23958397518E-01  0.00000000000E+00 0.  1.
     999901    1    3    3    0    0 -0.11575585248E+00  0.37768850765E-01 -0.51682757751E-01  0.88988595388E+00  0.88000000000E+00 0.  1.
        -11    1    4    4    0    0  0.51719177536E-01 -0.11852794730E-01  0.22188526502E-01  0.57514814589E-01  0.51100000000E-03 0. -1.
         11    1    4    4    0    0  0.53122057737E-01 -0.14242895466E-01  0.47343972565E-01  0.72570834009E-01  0.51100000000E-03 0.  1.
</event>
<event>
 8    1  0.1099478E+005  0.1043930E+01  0.7957747E-01            NaN
         13   -1    0    0    0    0  0.00000000000E+00  0.00000000000E+00  0.74505805969E-08  0.10566000000E+00  0.10566000000E+00 0. -1.
     999900   -1    0    0    0    0 -0.00000000000E+00 -0.00000000000E+00 -0.74505805969E-08  0.93827000000E+00  0.93827000000E+00 0.  1.
     999902    2    1    2    0    0 -0.15681295220E-01  0.17802649894E-01 -0.14666472543E-02  0.10201605150E+01  0.10198835659E+01 0.  0.
     999903    2    3    3    0    0  0.19453217399E-01 -0.74898747301E-01  0.10080591485E+00  0.12870795879E+00  0.20387647508E-01 0.  0.
         14    1    1    2    0    0  0.15681295220E-01 -0.17802649894E-01  0.14666472543E-02  0.23769485000E-01  0.00000000000E+00 0.  1.
     999901    1    3    3    0    0 -0.35134512619E-01  0.92701397195E-01 -0.10227256211E+00  0.89145255621E+00  0.88000000000E+00 0. -1.
        -11    1    4    4    0    0  0.11931420189E-01 -0.24636691863E-01  0.49025179067E-01  0.56152067435E-01  0.51100000000E-03 0.  1.
         11    1    4    4    0    0  0.75217972099E-02 -0.50262055438E-01  0.51780735788E-01  0.72555891351E-01  0.51100000000E-03 0. -1.
</event>
<event>
 8    1  0.1099478E+005  0.1043930E+01  0.7957747E-01            NaN
         13   -1    0    0    0    0  0.00000000000E+00  0.00000000000E+00  0.74505805969E-08  0.10566000000E+00  0.10566000000E+00 0. -1.
     999900   -1    0    0    0    0 -0.00000000000E+00 -0.00000000000E+00 -0.74505805969E-08  0.93827000000E+00  0.93827000000E+00 0.  1.
     999902    2    1    2    0    0  0.18707823952E-01  0.39748995945E-02  0.12547066722E-01  0.10210561856E+01  0.10207999425E+01 0.  0.
     999903    2    3    3    0    0  0.89846756153E-01  0.87782484390E-01  0.41055601476E-01  0.13375849284E+00  0.20677713563E-01 0.  0.
         14    1    1    2    0    0 -0.18707823952E-01 -0.39748995945E-02 -0.12547066722E-01  0.22873814442E-01  0.00000000000E+00 0.  1.
     999901    1    3    3    0    0 -0.71138932201E-01 -0.83807584796E-01 -0.28508534754E-01  0.88729769272E+00  0.88000000000E+00 0. -1.
        -11    1    4    4    0    0  0.35275226431E-01  0.48525151668E-01  0.16981844047E-01  0.62351231683E-01  0.51100000000E-03 0. -1.
         11    1    4    4    0    0  0.54571529722E-01  0.39257332723E-01  0.24073757428E-01  0.71407261160E-01  0.51100000000E-03 0.  1.
</event>
<event>
 8    1  0.1099478E+005  0.1043930E+01  0.7957747E-01            NaN
         13   -1    0    0    0    0  0.00000000000E+00  0.00000000000E+00  0.74505805969E-08  0.10566000000E+00  0.10566000000E+00 0.  1.
     999900   -1    0    0    0    0 -0.00000000000E+00 -0.00000000000E+00 -0.74505805969E-08  0.93827000000E+00  0.93827000000E+00 0. -1.
     999902    2    1    2    0    0 -0.17053481681E-02 -0.54595493118E-02 -0.23412041199E-01  0.10198294074E+01  0.10195445952E+01 0.  0.
     999903    2    3    3    0    0  0.71888671619E-01  0.63138832846E-01  0.82189500619E-01  0.12782408038E+00  0.20721684105E-01 0.  0.
         14    1    1    2    0    0  0.17053481681E-02  0.54595493118E-02  0.23412041199E-01  0.24100592611E-01  0.00000000000E+00 0.  1.
     999901    1    3    3    0    0 -0.73594019787E-01 -0.68598382158E-01 -0.10560154182E+00  0.89200532701E+00  0.88000000000E+00 0.  1.
        -11    1    4    4    0    0  0.55953694640E-01  0.51025250515E-01  0.74911235331E-01  0.10651923035E+00  0.51100000000E-03 0.  1.
         11    1    4    4    0    0  0.15934976979E-01  0.12113582332E-01  0.72782652877E-02  0.21304850031E-01  0.51100000000E-03 0. -1.
</event>
<event>
 8    1  0.1099478E+005  0.1043930E+01  0.7957747E-01            NaN
         13   -1    0    0    0    0  0.00000000000E+00  0.00000000000E+00  0.74505805969E-08  0.10566000000E+00  0.10566000000E+00 0.  1.
     999900   -1    0    0    0    0 -0.00000000000E+00 -0.00000000000E+00 -0.74505805969E-08  0.93827000000E+00  0.93827000000E+00 0. -1.
     999902    2    1    2    0    0  0.77699467500E-02 -0.21128882792E-01  0.68654743595E-02  0.10203941444E+01  0.10201226757E+01 0.  0.
     999903    2    3    3    0    0 -0.42960563242E-01  0.11061166751E+00  0.44223967764E-01  0.12836005634E+00  0.20976028095E-01 0.  0.
         14    1    1    2    0    0 -0.77699467500E-02  0.21128882792E-01 -0.68654743595E-02  0.23535855598E-01  0.00000000000E+00 0. -1.
     999901    1    3    3    0    0  0.50730509992E-01 -0.13174055030E+00 -0.37358493404E-01  0.89203408806E+00  0.88000000000E+00 0.  1.
        -11    1    4    4    0    0 -0.29579555047E-01  0.78252512348E-01  0.20727211308E-01  0.86187494308E-01  0.51100000000E-03 0. -1.
         11    1    4    4    0    0 -0.13381008195E-01  0.32359155164E-01  0.23496756456E-01  0.42172562030E-01  0.51100000000E-03 0.  1.
</event>
<event>
 8    1  0.1099478E+005  0.1043930E+01  0.7957747E-01            NaN
         13   -1    0    0    0    0  0.00000000000E+00  0.00000000000E+00  0.74505805969E-08  0.10566000000E+00  0.10566000000E+00 0.  1.
     999900   -1    0    0    0    0 -0.00000000000E+00 -0.00000000000E+00 -0.74505805969E-08  0.93827000000E+00  0.93827000000E+00 0. -1.
     999902    2    1    2    0    0 -0.18730757954E-01  0.34272597688E-02 -0.13212839630E-01  0.10207531466E+01  0.10204899900E+01 0.  0.
     999903    2    3    3    0    0 -0.11483577154E+00 -0.33483536998E-01  0.53511274371E-01  0.13224277076E+00  0.17784607354E-01 0.  0.
         14    1    1    2    0    0  0.18730757954E-01 -0.34272597688E-02  0.13212839630E-01  0.23176853413E-01  0.00000000000E+00 0. -1.
     999901    1    3    3    0    0  0.96105013589E-01  0.36910796766E-01 -0.66724114001E-01  0.88851037582E+00  0.88000000000E+00 0. -1.
        -11    1    4    4    0    0 -0.10126659980E+00 -0.25169357510E-01  0.50924791888E-01  0.11611208526E+00  0.51100000000E-03 0. -1.
         11    1    4    4    0    0 -0.13569171739E-01 -0.83141794874E-02  0.25864824838E-02  0.16130685505E-01  0.51100000000E-03 0.  1.
</event>
<event>
 8    1  0.1099478E+005  0.1043930E+01  0.7957747E-01            NaN
         13   -1    0    0    0    0  0.00000000000E+00  0.00000000000E+00  0.74505805969E-08  0.10566000000E+00  0.10566000000E+00 0.  1.
     999900   -1    0    0    0    0 -0.00000000000E+00 -0.00000000000E+00 -0.74505805969E-08  0.93827000000E+00  0.93827000000E+00 0. -1.
     999902    2    1    2    0    0  0.72240755543E-02 -0.20271818724E-01  0.10100809971E-01  0.10201569004E+01  0.10198798661E+01 0.  0.
     999903    2    3    3    0    0 -0.61010983352E-02 -0.16074358767E-01  0.12913679364E+00  0.13203261613E+00  0.21463733123E-01 0.  0.
         14    1    1    2    0    0 -0.72240755543E-02  0.20271818724E-01 -0.10100809971E-01  0.23773099589E-01  0.00000000000E+00 0.  1.
     999901    1    3    3    0    0  0.13325173890E-01 -0.41974599566E-02 -0.11903598367E+00  0.88812428429E+00  0.88000000000E+00 0. -1.
        -11    1    4    4    0    0 -0.14051358158E-01 -0.99575552806E-02  0.73121762424E-01  0.75124209375E-01  0.51100000000E-03 0. -1.
         11    1    4    4    0    0  0.79502598224E-02 -0.61168034869E-02  0.56015031214E-01  0.56908406752E-01  0.51100000000E-03 0.  1.
</event>
<event>
 8    1  0.1099478E+005  0.1043930E+01  0.7957747E-01            NaN
         13   -1    0    0    0    0  0.00000000000E+00  0.00000000000E+00  0.74505805969E-08  0.10566000000E+00  0.10566000000E+00 0.  1.
     999900   -1    0    0    0    0 -0.00000000000E+00 -0.00000000000E+00 -0.74505805969E-08  0.93827000000E+00  0.93827000000E+00 0. -1.
     999902    2    1    2    0    0 -0.27571048676E-02  0.23329174656E-01  0.83280362725E-03  0.10204237119E+01  0.10201529328E+01 0.  0.
     999903    2    3    3    0    0  0.72887212469E-01  0.10922695600E+00  0.61980915847E-02  0.13299524838E+00  0.20155547480E-01 0.  0.
         14    1    1    2    0    0  0.27571048676E-02 -0.23329174656E-01 -0.83280362725E-03  0.23506288080E-01  0.00000000000E+00 0.  1.
     999901    1    3    3    0    0 -0.75644317336E-01 -0.85897781343E-01 -0.53652879574E-02  0.88742846354E+00  0.88000000000E+00 0. -1.
        -11    1    4    4    0    0  0.59979133317E-01  0.81822242659E-01 -0.24703774748E-02  0.10148270647E+00  0.51100000000E-03 0. -1.
         11    1    4    4    0    0  0.12908079152E-01  0.27404713341E-01  0.86684690595E-02  0.31512541908E-01  0.51100000000E-03 0.  1.
</event>
<event>
 8    1  0.1099478E+005  0.1043930E+01  0.7957747E-01            NaN
         13   -1    0    0    0    0  0.00000000000E+00  0.00000000000E+00  0.74505805969E-08  0.10566000000E+00  0.10566000000E+00 0. -1.
     999900   -1    0    0    0    0 -0.00000000000E+00 -0.00000000000E+00 -0.74505805969E-08  0.93827000000E+00  0.93827000000E+00 0.  1.
     999902    2    1    2    0    0  0.22374610283E-01 -0.19627863322E-02  0.10180507616E-01  0.10192699422E+01  0.10189715877E+01 0.  0.
     999903    2    3    3    0    0 -0.45833657617E-01  0.11582917852E+00 -0.46120615139E-02  0.12868241989E+00  0.31949511865E-01 0.  0.
         14    1    1    2    0    0 -0.22374610283E-01  0.19627863322E-02 -0.10180507616E-01  0.24660057803E-01  0.00000000000E+00 0. -1.
     999901    1    3    3    0    0  0.68208267900E-01 -0.11779196486E+00  0.14792569130E-01  0.89058752231E+00  0.88000000000E+00 0. -1.
        -11    1    4    4    0    0 -0.30721216426E-01  0.39130609421E-01 -0.82096489876E-02  0.50424767623E-01  0.51100000000E-03 0. -1.
         11    1    4    4    0    0 -0.15112441191E-01  0.76698569102E-01  0.35975874737E-02  0.78257652263E-01  0.51100000000E-03 0.  1.
</event>
<event>
 8    1  0.1099478E+005  0.1043930E+01  0.7957747E-01            NaN
         13   -1    0    0    0    0  0.00000000000E+00  0.00000000000E+00  0.74505805969E-08  0.10566000000E+00  0.10566000000E+00 0.  1.
     999900   -1    0    0    0    0 -0.00000000000E+00 -0.00000000000E+00 -0.74505805969E-08  0.93827000000E+00  0.93827000000E+00 0. -1.
     999902    2    1    2    0    0  0.74632274053E-02 -0.43264462771E-02 -0.24102518962E-01  0.10183302086E+01  0.10180083813E+01 0.  0.
     999903    2    3    3    0    0  0.80955245527E-01 -0.95027803530E-01 -0.32628980528E-01  0.13057995457E+00  0.20060880930E-01 0.  0.
         14    1    1    2    0    0 -0.74632274053E-02  0.43264462771E-02  0.24102518962E-01  0.25599791425E-01  0.00000000000E+00 0.  1.
     999901    1    3    3    0    0 -0.73492018121E-01  0.90701357253E-01  0.85264615660E-02  0.88775025400E+00  0.88000000000E+00 0.  1.
        -11    1    4    4    0    0  0.73525596828E-01 -0.92103866033E-01 -0.33526131338E-01  0.12252917257E+00  0.51100000000E-03 0. -1.
         11    1    4    4    0    0  0.74296486984E-02 -0.29239374968E-02  0.89715080980E-03  0.80507820019E-02  0.51100000000E-03 0.  1.
</event>
<event>
 8    1  0.1099478E+005  0.1043930E+01  0.7957747E-01            NaN
         13   -1    0    0    0    0  0.00000000000E+00  0.00000000000E+00  0.74505805969E-08  0.10566000000E+00  0.10566000000E+00 0.  1.
     999900   -1    0    0    0    0 -0.00000000000E+00 -0.00000000000E+00 -0.74505805969E-08  0.93827000000E+00  0.93827000000E+00 0. -1.
     999902    2    1    2    0    0 -0.22107838211E-01 -0.21065650032E-02  0.76981712582E-02  0.10204256181E+01  0.10201548834E+01 0.  0.
     999903    2    3    3    0    0 -0.25827332347E-01  0.12321392050E+00 -0.15352182033E-01  0.13124038573E+00  0.33758377506E-01 0.  0.
         14    1    1    2    0    0  0.22107838211E-01  0.21065650032E-02 -0.76981712582E-02  0.23504381872E-01  0.00000000000E+00 0.  1.
     999901    1    3    3    0    0  0.37194941363E-02 -0.12532048551E+00  0.23050353291E-01  0.88918523240E+00  0.88000000000E+00 0.  1.
        -11    1    4    4    0    0 -0.14792521925E-02  0.38730036676E-01  0.94268989611E-02  0.39891496249E-01  0.51100000000E-03 0. -1.
         11    1    4    4    0    0 -0.24348080154E-01  0.84483883828E-01 -0.24779080994E-01  0.91348889483E-01  0.51100000000E-03 0.  1.
</event>
<event>
 8    1  0.1099478E+005  0.1043930E+01  0.7957747E-01            NaN
         13   -1    0    0    0    0  0.00000000000E+00  0.00000000000E+00  0.74505805969E-08  0.10566000000E+00  0.10566000000E+00 0.  1.
     999900   -1    0    0    0    0 -0.00000000000E+00 -0.00000000000E+00 -0.74505805969E-08  0.93827000000E+00  0.93827000000E+00 0. -1.
     999902    2    1    2    0    0 -0.22852235134E-01  0.15135126895E-02  0.68490472803E-02  0.10200255063E+01  0.10197453646E+01 0.  0.
     999903    2    3    3    0    0 -0.84365787742E-01  0.75237085169E-01 -0.64492836963E-01  0.13193274832E+00  0.21649917646E-01 0.  0.
         14    1    1    2    0    0  0.22852235134E-01 -0.15135126895E-02 -0.68490472803E-02  0.23904493718E-01  0.00000000000E+00 0. -1.
     999901    1    3    3    0    0  0.61513552608E-01 -0.73723572480E-01  0.71341884243E-01  0.88809275796E+00  0.88000000000E+00 0. -1.
        -11    1    4    4    0    0 -0.48829057996E-01  0.29143134295E-01 -0.30534158854E-01  0.64546070053E-01  0.51100000000E-03 0.  1.
         11    1    4    4    0    0 -0.35536729746E-01  0.46093950874E-01 -0.33958678108E-01  0.67386678269E-01  0.51100000000E-03 0. -1.
</event>
<event>
 8    1  0.1099478E+005  0.1043930E+01  0.7957747E-01            NaN
         13   -1    0    0    0    0  0.00000000000E+00  0.00000000000E+00  0.74505805969E-08  0.10566000000E+00  0.10566000000E+00 0.  1.
     999900   -1    0    0    0    0 -0.00000000000E+00 -0.00000000000E+00 -0.74505805969E-08  0.93827000000E+00  0.93827000000E+00 0.  1.
     999902    2    1    2    0    0  0.24486768171E-03 -0.18789529112E-01  0.22417744739E-01  0.10146783053E+01  0.10142565758E+01 0.  0.
     999903    2    3    3    0    0  0.51733055570E-01  0.59823850189E-01  0.96757562443E-01  0.12655809642E+00  0.19993093555E-01 0.  0.
         14    1    1    2    0    0 -0.24486768171E-03  0.18789529112E-01 -0.22417744739E-01  0.29251694714E-01  0.00000000000E+00 0.  1.
     999901    1    3    3    0    0 -0.51488187888E-01 -0.78613379301E-01 -0.74339817704E-01  0.88812020886E+00  0.88000000000E+00 0.  1.
        -11    1    4    4    0    0  0.35741424998E-01  0.52475078854E-01  0.81087674679E-01  0.10298813265E+00  0.51100000000E-03 0. -1.
         11    1    4    4    0    0  0.15991630572E-01  0.73487713344E-02  0.15669887764E-01  0.23569963768E-01  0.51100000000E-03 0.  1.
</event>
<event>
 8    1  0.1099478E+005  0.1043930E+01  0.7957747E-01            NaN
         13   -1    0    0    0    0  0.00000000000E+00  0.00000000000E+00  0.74505805969E-08  0.10566000000E+00  0.10566000000E+00 0.  1.
     999900   -1    0    0    0    0 -0.00000000000E+00 -0.00000000000E+00 -0.74505805969E-08  0.93827000000E+00  0.93827000000E+00 0.  1.
     999902    2    1    2    0    0  0.21517339346E-01 -0.12711176866E-01 -0.46069773094E-03  0.10189343573E+01  0.10186277251E+01 0.  0.
     999903    2    3    3    0    0 -0.58933497244E-01  0.62396588505E-01 -0.91911899409E-01  0.12737570205E+00  0.20255391012E-01 0.  0.
         14    1    1    2    0    0 -0.21517339346E-01  0.12711176866E-01  0.46069773094E-03  0.24995642665E-01  0.00000000000E+00 0.  1.
     999901    1    3    3    0    0  0.80450836590E-01 -0.75107765371E-01  0.91451201678E-01  0.89155865529E+00  0.88000000000E+00 0. -1.
        -11    1    4    4    0    0 -0.42320823344E-01  0.46081617022E-01 -0.78898908717E-01  0.10069690379E+00  0.51100000000E-03 0. -1.
         11    1    4    4    0    0 -0.16612673900E-01  0.16314971483E-01 -0.13012990691E-01  0.26678798255E-01  0.51100000000E-03 0.  1.
</event>
<event>
 8    1  0.1099478E+005  0.1043930E+01  0.7957747E-01            NaN
         13   -1    0    0    0    0  0.00000000000E+00  0.00000000000E+00  0.74505805969E-08  0.10566000000E+00  0.10566000000E+00 0.  1.
     999900   -1    0    0    0    0 -0.00000000000E+00 -0.00000000000E+00 -0.74505805969E-08  0.93827000000E+00  0.93827000000E+00 0. -1.
     999902    2    1    2    0    0  0.23944119907E-01  0.31298713159E-02 -0.21892992720E-03  0.10197811925E+01  0.10194952259E+01 0.  0.
     999903    2    3    3    0    0  0.82958368436E-01 -0.80918832187E-01 -0.59657503149E-01  0.13181733623E+00  0.19668354072E-01 0.  0.
         14    1    1    2    0    0 -0.23944119907E-01 -0.31298713159E-02  0.21892992720E-03  0.24148807484E-01  0.00000000000E+00 0.  1.
     999901    1    3    3    0    0 -0.59014248529E-01  0.84048703503E-01  0.59438573222E-01  0.88796385629E+00  0.88000000000E+00 0.  1.
        -11    1    4    4    0    0  0.24564964226E-01 -0.16376687115E-01 -0.22756509021E-01  0.37279393397E-01  0.51100000000E-03 0. -1.
         11    1    4    4    0    0  0.58393404210E-01 -0.64542145072E-01 -0.36900994129E-01  0.94537942829E-01  0.51100000000E-03 0.  1.
</event>
<event>
 8    1  0.1099478E+005  0.1043930E+01  0.7957747E-01            NaN
         13   -1    0    0    0    0  0.00000000000E+00  0.00000000000E+00  0.74505805969E-08  0.10566000000E+00  0.10566000000E+00 0. -1.
     999900   -1    0    0    0    0 -0.00000000000E+00 -0.00000000000E+00 -0.74505805969E-08  0.93827000000E+00  0.93827000000E+00 0.  1.
     999902    2    1    2    0    0 -0.42818641115E-02  0.58834028206E-02  0.23384899761E-01  0.10194391379E+01  0.10191449129E+01 0.  0.
     999903    2    3    3    0    0  0.94033765536E-01  0.23245743915E-01 -0.80981946558E-01  0.12766570675E+00  0.18914104250E-01 0.  0.
         14    1    1    2    0    0  0.42818641115E-02 -0.58834028206E-02 -0.23384899761E-01  0.24490862089E-01  0.00000000000E+00 0.  1.
     999901    1    3    3    0    0 -0.98315629648E-01 -0.17362341094E-01  0.10436684632E+00  0.89177343117E+00  0.88000000000E+00 0. -1.
        -11    1    4    4    0    0  0.72114412392E-01  0.23423589665E-01 -0.69766412217E-01  0.10303769418E+00  0.51100000000E-03 0.  1.
         11    1    4    4    0    0  0.21919353144E-01 -0.17784575008E-03 -0.11215534341E-01  0.24628012565E-01  0.51100000000E-03 0. -1.
</event>
<event>
 8    1  0.1099478E+005  0.1043930E+01  0.7957747E-01            NaN
         13   -1    0    0    0    0  0.00000000000E+00  0.00000000000E+00  0.74505805969E-08  0.10566000000E+00  0.10566000000E+00 0.  1.
     999900   -1    0    0    0    0 -0.00000000000E+00 -0.00000000000E+00 -0.74505805969E-08  0.93827000000E+00  0.93827000000E+00 0.  1.
     999902    2    1    2    0    0  0.23297961981E-01 -0.27991174575E-01 -0.40018004384E-02  0.10072923787E+01  0.10066258595E+01 0.  0.
     999903    2    3    3    0    0  0.55064578526E-01  0.75519583804E-01  0.69457462523E-01  0.11761836070E+00  0.16565757651E-01 0.  0.
         14    1    1    2    0    0 -0.23297961981E-01  0.27991174575E-01  0.40018004384E-02  0.36637621283E-01  0.00000000000E+00 0. -1.
     999901    1    3    3    0    0 -0.31766616545E-01 -0.10351075838E+00 -0.73459262961E-01  0.88967401802E+00  0.88000000000E+00 0.  1.
        -11    1    4    4    0    0  0.30187325468E-01  0.41311529402E-01  0.27724716447E-01  0.58196547178E-01  0.51100000000E-03 0.  1.
         11    1    4    4    0    0  0.24877253058E-01  0.34208054402E-01  0.41732746076E-01  0.59421813517E-01  0.51100000000E-03 0. -1.
</event>
<event>
 8    1  0.1099478E+005  0.1043930E+01  0.7957747E-01            NaN
         13   -1    0    0    0    0  0.00000000000E+00  0.00000000000E+00  0.74505805969E-08  0.10566000000E+00  0.10566000000E+00 0. -1.
     999900   -1    0    0    0    0 -0.00000000000E+00 -0.00000000000E+00 -0.74505805969E-08  0.93827000000E+00  0.93827000000E+00 0. -1.
     999902    2    1    2    0    0  0.89982895130E-02 -0.20326907204E-01 -0.90937221559E-02  0.10199123366E+01  0.10196295044E+01 0.  0.
     999903    2    3    3    0    0  0.67691767809E-01 -0.10877897171E+00  0.27824509640E-01  0.13276429491E+00  0.20907284605E-01 0.  0.
         14    1    1    2    0    0 -0.89982895130E-02  0.20326907204E-01  0.90937221559E-02  0.24017663361E-01  0.00000000000E+00 0. -1.
     999901    1    3    3    0    0 -0.58693478296E-01  0.88452064508E-01 -0.36918231796E-01  0.88714804173E+00  0.88000000000E+00 0. -1.
        -11    1    4    4    0    0  0.26886236010E-01 -0.61092195010E-01  0.98099836161E-02  0.67465716312E-01  0.51100000000E-03 0.  1.
         11    1    4    4    0    0  0.40805531800E-01 -0.47686776702E-01  0.18014526024E-01  0.65298578595E-01  0.51100000000E-03 0. -1.
</event>
<event>
 8    1  0.1224137E+005  0.1043930E+01  0.7957747E-01            NaN
         13   -1    0    0    0    0  0.00000000000E+00  0.00000000000E+00  0.74505805969E-08  0.10566000000E+00  0.10566000000E+00 0.  1.
     999900   -1    0    0    0    0 -0.00000000000E+00 -0.00000000000E+00 -0.74505805969E-08  0.93827000000E+00  0.93827000000E+00 0. -1.
     999902    2    1    2    0    0  0.58265879414E-02 -0.99698388464E-02  0.21478118635E-01  0.10195444224E+01  0.10192527522E+01 0.  0.
     999903    2    3    3    0    0 -0.10964349305E+00 -0.96824681101E-02 -0.62287166332E-01  0.12805687615E+00  0.20085484388E-01 0.  0.
         14    1    1    2    0    0 -0.58265879414E-02  0.99698388464E-02 -0.21478118635E-01  0.24385577577E-01  0.00000000000E+00 0. -1.
     999901    1    3    3    0    0  0.11547008099E+00 -0.28737073632E-03  0.83765284967E-01  0.89148754627E+00  0.88000000000E+00 0.  1.
        -11    1    4    4    0    0 -0.55113403670E-01  0.48102625852E-02 -0.34005559169E-01  0.64940473247E-01  0.51100000000E-03 0. -1.
         11    1    4    4    0    0 -0.54530089384E-01 -0.14492730695E-01 -0.28281607163E-01  0.63116402907E-01  0.51100000000E-03 0.  1.
</event>
<event>
 8    1  0.1099478E+005  0.1043930E+01  0.7957747E-01            NaN
         13   -1    0    0    0    0  0.00000000000E+00  0.00000000000E+00  0.74505805969E-08  0.10566000000E+00  0.10566000000E+00 0. -1.
     999900   -1    0    0    0    0 -0.00000000000E+00 -0.00000000000E+00 -0.74505805969E-08  0.93827000000E+00  0.93827000000E+00 0.  1.
     999902    2    1    2    0    0  0.82035046364E-02  0.44216530434E-02 -0.21058214667E-01  0.10209018236E+01  0.10206420707E+01 0.  0.
     999903    2    3    3    0    0  0.82219230169E-01  0.55100563159E-01 -0.87435339558E-01  0.13385469842E+00  0.21818978336E-01 0.  0.
         14    1    1    2    0    0 -0.82035046364E-02 -0.44216530434E-02  0.21058214667E-01  0.23028176413E-01  0.00000000000E+00 0. -1.
     999901    1    3    3    0    0 -0.74015725533E-01 -0.50678910115E-01  0.66377124892E-01  0.88704712517E+00  0.88000000000E+00 0. -1.
        -11    1    4    4    0    0  0.34792294202E-01  0.29012750167E-01 -0.52885799021E-01  0.69637721582E-01  0.51100000000E-03 0.  1.
         11    1    4    4    0    0  0.47426935968E-01  0.26087812992E-01 -0.34549540538E-01  0.64216976839E-01  0.51100000000E-03 0. -1.
</event>
<event>
 8    1  0.1099478E+005  0.1043930E+01  0.7957747E-01            NaN
         13   -1    0    0    0    0  0.00000000000E+00  0.00000000000E+00  0.74505805969E-08  0.10566000000E+00  0.10566000000E+00 0. -1.
     999900   -1    0    0    0    0 -0.00000000000E+00 -0.00000000000E+00 -0.74505805969E-08  0.93827000000E+00  0.93827000000E+00 0.  1.
     999902    2    1    2    0    0 -0.17759225257E-01  0.39998944883E-02  0.14917156045E-01  0.10203946907E+01  0.10201232348E+01 0.  0.
     999903    2    3    3    0    0  0.10726081423E+00  0.66610548456E-01 -0.15329361772E-01  0.12884269780E+00  0.20581642543E-01 0.  0.
         14    1    1    2    0    0  0.17759225257E-01 -0.39998944883E-02 -0.14917156045E-01  0.23535309263E-01  0.00000000000E+00 0.  1.
     999901    1    3    3    0    0 -0.12502003949E+00 -0.62610653967E-01  0.30246517818E-01  0.89155199293E+00  0.88000000000E+00 0.  1.
        -11    1    4    4    0    0  0.99416502533E-01  0.59206329681E-01 -0.19351400340E-01  0.11731908739E+00  0.51100000000E-03 0.  1.
         11    1    4    4    0    0  0.78443116977E-02  0.74042187752E-02  0.40220385678E-02  0.11523610412E-01  0.51100000000E-03 0. -1.
</event>
<event>
 8    1  0.1099478E+005  0.1043930E+01  0.7957747E-01            NaN
         13   -1    0    0    0    0  0.00000000000E+00  0.00000000000E+00  0.74505805969E-08  0.10566000000E+00  0.10566000000E+00 0.  1.
     999900   -1    0    0    0    0 -0.00000000000E+00 -0.00000000000E+00 -0.74505805969E-08  0.93827000000E+00  0.93827000000E+00 0. -1.
     999902    2    1    2    0    0 -0.73420267794E-02  0.33578214440E-02  0.22246846305E-01  0.10202635154E+01  0.10199889893E+01 0.  0.
     999903    2    3    3    0    0 -0.12152874601E+00  0.43166592343E-01  0.19733818313E-01  0.13199010008E+00  0.19984297119E-01 0.  0.
         14    1    1    2    0    0  0.73420267794E-02 -0.33578214440E-02 -0.22246846305E-01  0.23666484585E-01  0.00000000000E+00 0. -1.
     999901    1    3    3    0    0  0.11418671923E+00 -0.39808770899E-01  0.25130279918E-02  0.88827341534E+00  0.88000000000E+00 0.  1.
        -11    1    4    4    0    0 -0.27600071994E-01  0.10472538016E-01  0.13133839876E-01  0.32314035611E-01  0.51100000000E-03 0. -1.
         11    1    4    4    0    0 -0.93928674016E-01  0.32694054327E-01  0.65999784378E-02  0.99676064465E-01  0.51100000000E-03 0.  1.
</event>
<event>
 8    1  0.1099478E+005  0.1043930E+01  0.7957747E-01            NaN
         13   -1    0    0    0    0  0.00000000000E+00  0.00000000000E+00  0.74505805969E-08  0.10566000000E+00  0.10566000000E+00 0. -1.
     999900   -1    0    0    0    0 -0.00000000000E+00 -0.00000000000E+00 -0.74505805969E-08  0.93827000000E+00  0.93827000000E+00 0. -1.
     999902    2    1    2    0    0 -0.75665587831E-02  0.22043964221E-01 -0.54142572464E-02  0.10200029577E+01  0.10197222810E+01 0.  0.
     999903    2    3    3    0    0  0.71198703691E-01 -0.77740933020E-01  0.69412898566E-01  0.12772492060E+00  0.19560081319E-01 0.  0.
         14    1    1    2    0    0  0.75665587831E-02 -0.22043964221E-01  0.54142572464E-02  0.23927042273E-01  0.00000000000E+00 0.  1.
     999901    1    3    3    0    0 -0.78765262474E-01  0.99784897241E-01 -0.74827155812E-01  0.89227803713E+00  0.88000000000E+00 0. -1.
        -11    1    4    4    0    0  0.14625443903E-01 -0.22613877953E-01  0.26688377111E-01  0.37918619164E-01  0.51100000000E-03 0. -1.
         11    1    4    4    0    0  0.56573259788E-01 -0.55127055067E-01  0.42724521454E-01  0.89806301438E-01  0.51100000000E-03 0.  1.
</event>
<event>
 8    1  0.1099478E+005  0.1043930E+01  0.7957747E-01            NaN
         13   -1    0    0    0    0  0.00000000000E+00  0.00000000000E+00  0.74505805969E-08  0.10566000000E+00  0.10566000000E+00 0. -1.
     999900   -1    0    0    0    0 -0.00000000000E+00 -0.00000000000E+00 -0.74505805969E-08  0.93827000000E+00  0.93827000000E+00 0. -1.
     999902    2    1    2    0    0 -0.15991766132E-01  0.16514309623E-01  0.44872331838E-02  0.10205079107E+01  0.10202390904E+01 0.  0.
     999903    2    3    3    0    0  0.41969699940E-01 -0.10835863315E+00  0.50793230265E-01  0.12860150934E+00  0.21338858273E-01 0.  0.
         14    1    1    2    0    0  0.15991766132E-01 -0.16514309623E-01 -0.44872331838E-02  0.23422089317E-01  0.00000000000E+00 0. -1.
     999901    1    3    3    0    0 -0.57961466072E-01  0.12487294278E+00 -0.46305997081E-01  0.89190640134E+00  0.88000000000E+00 0. -1.
        -11    1    4    4    0    0  0.96798510492E-02 -0.46550853647E-01  0.28270258524E-01  0.55318623714E-01  0.51100000000E-03 0. -1.
         11    1    4    4    0    0  0.32289848891E-01 -0.61807779507E-01  0.22522971740E-01  0.73282885628E-01  0.51100000000E-03 0.  1.
</event>
<event>
 8    1  0.1099478E+005  0.1043930E+01  0.7957747E-01            NaN
         13   -1    0    0    0    0  0.00000000000E+00  0.00000000000E+00  0.74505805969E-08  0.10566000000E+00  0.10566000000E+00 0. -1.
     999900   -1    0    0    0    0 -0.00000000000E+00 -0.00000000000E+00 -0.74505805969E-08  0.93827000000E+00  0.93827000000E+00 0.  1.
     999902    2    1    2    0    0  0.15465425309E-02  0.66560730280E-02  0.21714098392E-01  0.10211660555E+01  0.10209122958E+01 0.  0.
     999903    2    3    3    0    0  0.80557994429E-01 -0.11931646259E-01  0.10401066824E+00  0.13360702179E+00  0.20016556048E-01 0.  0.
         14    1    1    2    0    0 -0.15465425309E-02 -0.66560730280E-02 -0.21714098392E-01  0.22763944538E-01  0.00000000000E+00 0.  1.
     999901    1    3    3    0    0 -0.79011451898E-01  0.18587719287E-01 -0.82296569846E-01  0.88755903367E+00  0.88000000000E+00 0. -1.
        -11    1    4    4    0    0  0.34159528767E-01 -0.14927056510E-01  0.43381976589E-01  0.57200939113E-01  0.51100000000E-03 0. -1.
         11    1    4    4    0    0  0.46398465662E-01  0.29954102501E-02  0.60628691650E-01  0.76406082680E-01  0.51100000000E-03 0.  1.
</event>
<event>
 8    1  0.1099478E+005  0.1043930E+01  0.7957747E-01            NaN
         13   -1    0    0    0    0  0.00000000000E+00  0.00000000000E+00  0.74505805969E-08  0.10566000000E+00  0.10566000000E+00 0. -1.
     999900   -1    0    0    0    0 -0.00000000000E+00 -0.00000000000E+00 -0.74505805969E-08  0.93827000000E+00  0.93827000000E+00 0. -1.
     999902    2    1    2    0    0 -0.13732764883E-01  0.17593274837E-01  0.74997452110E-02  0.10203851847E+01  0.10201135068E+01 0.  0.
     999903    2    3    3    0    0  0.23536090290E-02  0.12691941222E+00  0.36076862663E-01  0.13301399549E+00  0.16646510188E-01 0.  0.
         14    1    1    2    0    0  0.13732764883E-01 -0.17593274837E-01 -0.74997452110E-02  0.23544815333E-01  0.00000000000E+00 0. -1.
     999901    1    3    3    0    0 -0.16086373912E-01 -0.10932613739E+00 -0.28577117452E-01  0.88737118918E+00  0.88000000000E+00 0. -1.
        -11    1    4    4    0    0  0.87156064017E-02  0.99057363046E-01  0.28398318723E-01  0.10341686804E+00  0.51100000000E-03 0.  1.
         11    1    4    4    0    0 -0.63619973727E-02  0.27862049179E-01  0.76785439401E-02  0.29597127446E-01  0.51100000000E-03 0. -1.
</event>
<event>
 8    1  0.1099478E+005  0.1043930E+01  0.7957747E-01            NaN
         13   -1    0    0    0    0  0.00000000000E+00  0.00000000000E+00  0.74505805969E-08  0.10566000000E+00  0.10566000000E+00 0.  1.
     999900   -1    0    0    0    0 -0.00000000000E+00 -0.00000000000E+00 -0.74505805969E-08  0.93827000000E+00  0.93827000000E+00 0. -1.
     999902    2    1    2    0    0 -0.17659427245E-01  0.14998867009E-01 -0.27355504891E-02  0.10205996631E+01  0.10203329691E+01 0.  0.
     999903    2    3    3    0    0 -0.80237458292E-01 -0.10002643526E+00  0.15202857288E-01  0.13072966329E+00  0.20390697154E-01 0.  0.
         14    1    1    2    0    0  0.17659427245E-01 -0.14998867009E-01  0.27355504891E-02  0.23330336874E-01  0.00000000000E+00 0. -1.
     999901    1    3    3    0    0  0.62578031046E-01  0.11502530227E+00 -0.17938407777E-01  0.88986999983E+00  0.88000000000E+00 0. -1.
        -11    1    4    4    0    0 -0.50582957247E-01 -0.75575813380E-01  0.15701739513E-01  0.92288378881E-01  0.51100000000E-03 0. -1.
         11    1    4    4    0    0 -0.29654501045E-01 -0.24450621881E-01 -0.49888222546E-03  0.38441284410E-01  0.51100000000E-03 0.  1.
</event>
<event>
 8    1  0.1099478E+005  0.1043930E+01  0.7957747E-01            NaN
         13   -1    0    0    0    0  0.00000000000E+00  0.00000000000E+00  0.74505805969E-08  0.10566000000E+00  0.10566000000E+00 0. -1.
     999900   -1    0    0    0    0 -0.00000000000E+00 -0.00000000000E+00 -0.74505805969E-08  0.93827000000E+00  0.93827000000E+00 0. -1.
     999902    2    1    2    0    0  0.11430854628E-02  0.23116051817E-01  0.39734818702E-02  0.10204470902E+01  0.10201768556E+01 0.  0.
     999903    2    3    3    0    0  0.54510900902E-01  0.16999665932E-01  0.11681405275E+00  0.13161722549E+00  0.20424107521E-01 0.  0.
         14    1    1    2    0    0 -0.11430854628E-02 -0.23116051817E-01 -0.39734818702E-02  0.23482909831E-01  0.00000000000E+00 0.  1.
     999901    1    3    3    0    0 -0.53367815440E-01  0.61163858850E-02 -0.11284057088E+00  0.88882986467E+00  0.88000000000E+00 0. -1.
        -11    1    4    4    0    0  0.17358627823E-01  0.15317248214E-01  0.38665247314E-01  0.45068864237E-01  0.51100000000E-03 0. -1.
         11    1    4    4    0    0  0.37152273080E-01  0.16824177181E-02  0.78148805435E-01  0.86548361257E-01  0.51100000000E-03 0.  1.
</event>
<event>
 8    1  0.1099478E+005  0.1043930E+01  0.7957747E-01            NaN
         13   -1    0    0    0    0  0.00000000000E+00  0.00000000000E+00  0.74505805969E-08  0.10566000000E+00  0.10566000000E+00 0. -1.
     999900   -1    0    0    0    0 -0.00000000000E+00 -0.00000000000E+00 -0.74505805969E-08  0.93827000000E+00  0.93827000000E+00 0. -1.
     999902    2    1    2    0    0 -0.13799800932E-01 -0.20452444216E-01  0.13675639261E-02  0.10192195324E+01  0.10189199419E+01 0.  0.
     999903    2    3    3    0    0 -0.14366556636E-01 -0.79812725647E-01  0.10165795572E+00  0.13153595871E+00  0.19771174684E-01 0.  0.
         14    1    1    2    0    0  0.13799800932E-01  0.20452444216E-01 -0.13675639261E-02  0.24710467645E-01  0.00000000000E+00 0. -1.
     999901    1    3    3    0    0  0.56675570412E-03  0.59360281431E-01 -0.10029039180E+00  0.88768357364E+00  0.88000000000E+00 0. -1.
        -11    1    4    4    0    0  0.17699121440E-02  0.16911753038E-03  0.27670910182E-02  0.33285287199E-02  0.51100000000E-03 0. -1.
         11    1    4    4    0    0 -0.16136468780E-01 -0.79981843177E-01  0.98890864705E-01  0.12820742999E+00  0.51100000000E-03 0.  1.
</event>
<event>
 8    1  0.1099478E+005  0.1043930E+01  0.7957747E-01            NaN
         13   -1    0    0    0    0  0.00000000000E+00  0.00000000000E+00  0.74505805969E-08  0.10566000000E+00  0.10566000000E+00 0.  1.
     999900   -1    0    0    0    0 -0.00000000000E+00 -0.00000000000E+00 -0.74505805969E-08  0.93827000000E+00  0.93827000000E+00 0. -1.
     999902    2    1    2    0    0  0.17469426181E-01 -0.15094930519E-01 -0.55369088706E-02  0.10201877352E+01  0.10199114275E+01 0.  0.
     999903    2    3    3    0    0  0.16398977778E-01  0.22793147463E-01  0.12502605114E+00  0.12974776594E+00  0.20359647779E-01 0.  0.
         14    1    1    2    0    0 -0.17469426181E-01  0.15094930519E-01  0.55369088706E-02  0.23742264810E-01  0.00000000000E+00 0.  1.
     999901    1    3    3    0    0  0.10704484024E-02 -0.37888077982E-01 -0.13056296002E+00  0.89043996925E+00  0.88000000000E+00 0. -1.
        -11    1    4    4    0    0  0.26670463680E-02 -0.31621929857E-02  0.29964497685E-01  0.30253013789E-01  0.51100000000E-03 0.  1.
         11    1    4    4    0    0  0.13731931410E-01  0.25955340449E-01  0.95061553460E-01  0.99494752150E-01  0.51100000000E-03 0. -1.
</event>
<event>
 8    1  0.1099478E+005  0.1043930E+01  0.7957747E-01            NaN
         13   -1    0    0    0    0  0.00000000000E+00  0.00000000000E+00  0.74505805969E-08  0.10566000000E+00  0.10566000000E+00 0. -1.
     999900   -1    0    0    0    0 -0.00000000000E+00 -0.00000000000E+00 -0.74505805969E-08  0.93827000000E+00  0.93827000000E+00 0. -1.
     999902    2    1    2    0    0 -0.10193457167E-01 -0.12018599327E-01 -0.16295720064E-01  0.10212605538E+01  0.10210089201E+01 0.  0.
     999903    2    3    3    0    0  0.78570989098E-01 -0.32311822337E-01 -0.99763656505E-01  0.13263361394E+00  0.20528862545E-01 0.  0.
         14    1    1    2    0    0  0.10193457167E-01  0.12018599327E-01  0.16295720064E-01  0.22669446204E-01  0.00000000000E+00 0. -1.
     999901    1    3    3    0    0 -0.88764446265E-01  0.20293223010E-01  0.83467936441E-01  0.88862693985E+00  0.88000000000E+00 0.  1.
        -11    1    4    4    0    0  0.73619620864E-01 -0.23571280353E-01 -0.86969901519E-01  0.11635926575E+00  0.51100000000E-03 0.  1.
         11    1    4    4    0    0  0.49513682340E-02 -0.87405419841E-02 -0.12793754986E-01  0.16274348196E-01  0.51100000000E-03 0. -1.
</event>
<event>
 8    1  0.1099478E+005  0.1043930E+01  0.7957747E-01            NaN
         13   -1    0    0    0    0  0.00000000000E+00  0.00000000000E+00  0.74505805969E-08  0.10566000000E+00  0.10566000000E+00 0.  1.
     999900   -1    0    0    0    0 -0.00000000000E+00 -0.00000000000E+00 -0.74505805969E-08  0.93827000000E+00  0.93827000000E+00 0.  1.
     999902    2    1    2    0    0  0.13495470204E-01 -0.15573480846E-01 -0.14713584808E-01  0.10186090482E+01  0.10182942809E+01 0.  0.
     999903    2    3    3    0    0 -0.49571705029E-01 -0.57117069479E-01  0.10094698848E+00  0.12783370809E+00  0.20771347453E-01 0.  0.
         14    1    1    2    0    0 -0.13495470204E-01  0.15573480846E-01  0.14713584808E-01  0.25320951791E-01  0.00000000000E+00 0.  1.
     999901    1    3    3    0    0  0.63067175233E-01  0.41543588633E-01 -0.11566057329E+00  0.89077534012E+00  0.88000000000E+00 0.  1.
        -11    1    4    4    0    0 -0.32485350389E-01 -0.46269517976E-01  0.61787337491E-01  0.83750238679E-01  0.51100000000E-03 0.  1.
         11    1    4    4    0    0 -0.17086354640E-01 -0.10847551503E-01  0.39159650993E-01  0.44083469412E-01  0.51100000000E-03 0. -1.
</event>
<event>
 8    1  0.1099478E+005  0.1043930E+01  0.7957747E-01            NaN
         13   -1    0    0    0    0  0.00000000000E+00  0.00000000000E+00  0.74505805969E-08  0.10566000000E+00  0.10566000000E+00 0.  1.
     999900   -1    0    0    0    0 -0.00000000000E+00 -0.00000000000E+00 -0.74505805969E-08  0.93827000000E+00  0.93827000000E+00 0.  1.
     999902    2    1    2    0    0  0.53262777690E-02 -0.22992280583E-01  0.48532089281E-02  0.10198350246E+01  0.10195503468E+01 0.  0.
     999903    2    3    3    0    0 -0.76358530505E-01  0.85814205444E-01  0.53028861013E-01  0.12807712432E+00  0.19924523513E-01 0.  0.
         14    1    1    2    0    0 -0.53262777690E-02  0.22992280583E-01 -0.48532089281E-02  0.24094975372E-01  0.00000000000E+00 0. -1.
     999901    1    3    3    0    0  0.81684808274E-01 -0.10880648603E+00 -0.48175652085E-01  0.89175790031E+00  0.88000000000E+00 0.  1.
        -11    1    4    4    0    0 -0.68737599195E-01  0.83467225973E-01  0.46275983393E-01  0.11761531837E+00  0.51100000000E-03 0.  1.
         11    1    4    4    0    0 -0.76209313096E-02  0.23469794717E-02  0.67528776204E-02  0.10461805954E-01  0.51100000000E-03 0. -1.
</event>
<event>
 8    1  0.1099478E+005  0.1043930E+01  0.7957747E-01            NaN
         13   -1    0    0    0    0  0.00000000000E+00  0.00000000000E+00  0.74505805969E-08  0.10566000000E+00  0.10566000000E+00 0. -1.
     999900   -1    0    0    0    0 -0.00000000000E+00 -0.00000000000E+00 -0.74505805969E-08  0.93827000000E+00  0.93827000000E+00 0. -1.
     999902    2    1    2    0    0  0.28553366228E-01 -0.33244252669E-02 -0.13672692256E-01  0.10120977987E+01  0.10115970863E+01 0.  0.
     999903    2    3    3    0    0 -0.27077935197E-01  0.11296882121E+00  0.29912694982E-01  0.12163800350E+00  0.20146102230E-01 0.  0.
         14    1    1    2    0    0 -0.28553366228E-01  0.33244252669E-02  0.13672692256E-01  0.31832201304E-01  0.00000000000E+00 0.  1.
     999901    1    3    3    0    0  0.55631301425E-01 -0.11629324648E+00 -0.43585387239E-01  0.89045979519E+00  0.88000000000E+00 0.  1.
        -11    1    4    4    0    0 -0.72816549453E-02  0.44570872974E-01  0.21675823292E-02  0.45216642406E-01  0.51100000000E-03 0.  1.
         11    1    4    4    0    0 -0.19796280252E-01  0.68397948236E-01  0.27745112653E-01  0.76421361097E-01  0.51100000000E-03 0. -1.
</event>
<event>
 8    1  0.1099478E+005  0.1043930E+01  0.7957747E-01            NaN
         13   -1    0    0    0    0  0.00000000000E+00  0.00000000000E+00  0.74505805969E-08  0.10566000000E+00  0.10566000000E+00 0. -1.
     999900   -1    0    0    0    0 -0.00000000000E+00 -0.00000000000E+00 -0.74505805969E-08  0.93827000000E+00  0.93827000000E+00 0.  1.
     999902    2    1    2    0    0 -0.14075028241E-01  0.12553095269E-01 -0.15230698652E-01  0.10196882838E+01  0.10194000860E+01 0.  0.
     999903    2    3    3    0    0  0.50695417531E-01  0.22625203057E-01 -0.11758987184E+00  0.13133359210E+00  0.18417635102E-01 0.  0.
         14    1    1    2    0    0  0.14075028241E-01 -0.12553095269E-01  0.15230698652E-01  0.24241716157E-01  0.00000000000E+00 0. -1.
     999901    1    3    3    0    0 -0.64770445771E-01 -0.10072107787E-01  0.10235917319E+00  0.88835469174E+00  0.88000000000E+00 0. -1.
        -11    1    4    4    0    0  0.23122971300E-01  0.16320595616E-01 -0.42234757679E-01  0.50843578948E-01  0.51100000000E-03 0.  1.
         11    1    4    4    0    0  0.27572446230E-01  0.63046074405E-02 -0.75355114164E-01  0.80490013155E-01  0.51100000000E-03 0. -1.
</event>
<event>
 8    1  0.1099478E+005  0.1043930E+01  0.7957747E-01            NaN
         13   -1    0    0    0    0  0.00000000000E+00  0.00000000000E+00  0.74505805969E-08  0.10566000000E+00  0.10566000000E+00 0. -1.
     999900   -1    0    0    0    0 -0.00000000000E+00 -0.00000000000E+00 -0.74505805969E-08  0.93827000000E+00  0.93827000000E+00 0. -1.
     999902    2    1    2    0    0 -0.21047190568E-01  0.99787864664E-02  0.51729183729E-02  0.10200695831E+01  0.10197904858E+01 0.  0.
     999903    2    3    3    0    0  0.51152118935E-01  0.47174702885E-01 -0.10708197235E+00  0.12922872359E+00  0.19786923304E-01 0.  0.
         14    1    1    2    0    0  0.21047190568E-01 -0.99787864664E-02 -0.51729183729E-02  0.23860416900E-01  0.00000000000E+00 0.  1.
     999901    1    3    3    0    0 -0.72199309503E-01 -0.37195916419E-01  0.11225489072E+00  0.89084085952E+00  0.88000000000E+00 0.  1.
        -11    1    4    4    0    0  0.25960999774E-01  0.17342441212E-01 -0.63169433388E-01  0.70465397267E-01  0.51100000000E-03 0.  1.
         11    1    4    4    0    0  0.25191119161E-01  0.29832261673E-01 -0.43912538960E-01  0.58763326318E-01  0.51100000000E-03 0. -1.
</event>
<event>
 8    1  0.1099478E+005  0.1043930E+01  0.7957747E-01            NaN
         13   -1    0    0    0    0  0.00000000000E+00  0.00000000000E+00  0.74505805969E-08  0.10566000000E+00  0.10566000000E+00 0.  1.
     999900   -1    0    0    0    0 -0.00000000000E+00 -0.00000000000E+00 -0.74505805969E-08  0.93827000000E+00  0.93827000000E+00 0. -1.
     999902    2    1    2    0    0 -0.21178170696E-01 -0.82717705235E-02  0.68852877598E-02  0.10201740683E+01  0.10198974387E+01 0.  0.
     999903    2    3    3    0    0  0.41106246078E-01  0.48148952026E-04  0.12214288710E+00  0.13043653185E+00  0.20126554274E-01 0.  0.
         14    1    1    2    0    0  0.21178170696E-01  0.82717705235E-02 -0.68852877598E-02  0.23755931662E-01  0.00000000000E+00 0. -1.
     999901    1    3    3    0    0 -0.62284416774E-01 -0.83199194755E-02 -0.11525759934E+00  0.88973753649E+00  0.88000000000E+00 0. -1.
        -11    1    4    4    0    0  0.14126192884E-01 -0.93907415462E-02  0.39597606213E-01  0.43080934194E-01  0.51100000000E-03 0.  1.
         11    1    4    4    0    0  0.26980053193E-01  0.94388904982E-02  0.82545280885E-01  0.87355597654E-01  0.51100000000E-03 0. -1.
</event>
<event>
 8    1  0.1099478E+005  0.1043930E+01  0.7957747E-01            NaN
         13   -1    0    0    0    0  0.00000000000E+00  0.00000000000E+00  0.74505805969E-08  0.10566000000E+00  0.10566000000E+00 0. -1.
     999900   -1    0    0    0    0 -0.00000000000E+00 -0.00000000000E+00 -0.74505805969E-08  0.93827000000E+00  0.93827000000E+00 0.  1.
     999902    2    1    2    0    0  0.95056303892E-03 -0.24203422675E-02 -0.25889511571E-01  0.10179102299E+01  0.10175776175E+01 0.  0.
     999903    2    3    3    0    0 -0.45306145661E-01 -0.11177041589E+00 -0.43587559350E-01  0.12976027488E+00  0.19813654468E-01 0.  0.
         14    1    1    2    0    0 -0.95056303892E-03  0.24203422675E-02  0.25889511571E-01  0.26019770102E-01  0.00000000000E+00 0. -1.
     999901    1    3    3    0    0  0.46256708700E-01  0.10935007363E+00  0.17698047778E-01  0.88814995502E+00  0.88000000000E+00 0. -1.
        -11    1    4    4    0    0 -0.12023686532E-01 -0.41384616887E-01 -0.67445312298E-02  0.43623449832E-01  0.51100000000E-03 0. -1.
         11    1    4    4    0    0 -0.33282459130E-01 -0.70385799006E-01 -0.36843028120E-01  0.86136825049E-01  0.51100000000E-03 0.  1.
</event>
<event>
 8    1  0.1099478E+005  0.1043930E+01  0.7957747E-01            NaN
         13   -1    0    0    0    0  0.00000000000E+00  0.00000000000E+00  0.74505805969E-08  0.10566000000E+00  0.10566000000E+00 0. -1.
     999900   -1    0    0    0    0 -0.00000000000E+00 -0.00000000000E+00 -0.74505805969E-08  0.93827000000E+00  0.93827000000E+00 0. -1.
     999902    2    1    2    0    0 -0.67797778651E-02 -0.45120646024E-03 -0.22554160628E-01  0.10203745519E+01  0.10201026257E+01 0.  0.
     999903    2    3    3    0    0  0.11109470374E+00  0.58411757233E-01 -0.29997202213E-01  0.13053488048E+00  0.19635587572E-01 0.  0.
         14    1    1    2    0    0  0.67797778651E-02  0.45120646024E-03  0.22554160628E-01  0.23555448134E-01  0.00000000000E+00 0. -1.
     999901    1    3    3    0    0 -0.11787448160E+00 -0.58862963693E-01  0.74430415846E-02  0.88983967139E+00  0.88000000000E+00 0.  1.
        -11    1    4    4    0    0  0.78128988592E-01  0.33672713584E-01 -0.26767350720E-01  0.89189364187E-01  0.51100000000E-03 0.  1.
         11    1    4    4    0    0  0.32965715145E-01  0.24739043649E-01 -0.32298514926E-02  0.41345516290E-01  0.51100000000E-03 0. -1.
</event>
<event>
 8    1  0.1099478E+005  0.1043930E+01  0.7957747E-01            NaN
         13   -1    0    0    0    0  0.00000000000E+00  0.00000000000E+00  0.74505805969E-08  0.10566000000E+00  0.10566000000E+00 0.  1.
     999900   -1    0    0    0    0 -0.00000000000E+00 -0.00000000000E+00 -0.74505805969E-08  0.93827000000E+00  0.93827000000E+00 0. -1.
     999902    2    1    2    0    0 -0.32985444058E-02  0.18385417559E-01 -0.10617387510E-01  0.10224443562E+01  0.10222185816E+01 0.  0.
     999903    2    3    3    0    0 -0.97460198940E-01  0.13996435479E-01 -0.89756416008E-01  0.13387884580E+00  0.13150686511E-01 0.  0.
         14    1    1    2    0    0  0.32985444058E-02 -0.18385417559E-01  0.10617387510E-01  0.21485643847E-01  0.00000000000E+00 0.  1.
     999901    1    3    3    0    0  0.94161654534E-01  0.43889820796E-02  0.79139028499E-01  0.88856551035E+00  0.88000000000E+00 0. -1.
        -11    1    4    4    0    0 -0.87683039216E-01  0.14757250402E-01 -0.75967022762E-01  0.11695016663E+00  0.51100000000E-03 0. -1.
         11    1    4    4    0    0 -0.97771597244E-02 -0.76081492288E-03 -0.13789393246E-01  0.16928679179E-01  0.51100000000E-03 0.  1.
</event>
<event>
 8    1  0.1099478E+005  0.1043930E+01  0.7957747E-01            NaN
         13   -1    0    0    0    0  0.00000000000E+00  0.00000000000E+00  0.74505805969E-08  0.10566000000E+00  0.10566000000E+00 0. -1.
     999900   -1    0    0    0    0 -0.00000000000E+00 -0.00000000000E+00 -0.74505805969E-08  0.93827000000E+00  0.93827000000E+00 0.  1.
     999902    2    1    2    0    0 -0.58554237958E-02  0.51180306979E-02 -0.22452563623E-01  0.10201687324E+01  0.10198919770E+01 0.  0.
     999903    2    3    3    0    0 -0.94534305585E-01  0.52282227623E-01 -0.74791668767E-01  0.13291015255E+00  0.20028696293E-01 0.  0.
         14    1    1    2    0    0  0.58554237958E-02 -0.51180306979E-02  0.22452563623E-01  0.23761267628E-01  0.00000000000E+00 0. -1.
     999901    1    3    3    0    0  0.88678881790E-01 -0.47164196925E-01  0.52339105144E-01  0.88725857983E+00  0.88000000000E+00 0.  1.
        -11    1    4    4    0    0 -0.24258898278E-01  0.66787335846E-02 -0.10332785522E-01  0.27205279003E-01  0.51100000000E-03 0.  1.
         11    1    4    4    0    0 -0.70275407307E-01  0.45603494039E-01 -0.64458883245E-01  0.10570487354E+00  0.51100000000E-03 0. -1.
</event>
<event>
 8    1  0.1099478E+005  0.1043930E+01  0.7957747E-01            NaN
         13   -1    0    0    0    0  0.00000000000E+00  0.00000000000E+00  0.74505805969E-08  0.10566000000E+00  0.10566000000E+00 0.  1.
     999900   -1    0    0    0    0 -0.00000000000E+00 -0.00000000000E+00 -0.74505805969E-08  0.93827000000E+00  0.93827000000E+00 0.  1.
     999902    2    1    2    0    0 -0.15495708453E-01 -0.14499070228E-01 -0.11327822805E-01  0.10198746557E+01  0.10195909248E+01 0.  0.
     999903    2    3    3    0    0  0.52590599417E-01 -0.11798974141E+00 -0.12835787331E-01  0.13119679605E+00  0.18986617234E-01 0.  0.
         14    1    1    2    0    0  0.15495708453E-01  0.14499070228E-01  0.11327822805E-01  0.24055344259E-01  0.00000000000E+00 0.  1.
     999901    1    3    3    0    0 -0.68086307870E-01  0.10349067118E+00  0.15079645260E-02  0.88867785969E+00  0.88000000000E+00 0.  1.
        -11    1    4    4    0    0  0.49231720804E-01 -0.93291968853E-01 -0.78953470097E-02  0.10578162133E+00  0.51100000000E-03 0.  1.
         11    1    4    4    0    0  0.33588786130E-02 -0.24697772555E-01 -0.49404403212E-02  0.25415174724E-01  0.51100000000E-03 0. -1.
</event>
<event>
 8    1  0.1099478E+005  0.1043930E+01  0.7957747E-01            NaN
         13   -1    0    0    0    0  0.00000000000E+00  0.00000000000E+00  0.74505805969E-08  0.10566000000E+00  0.10566000000E+00 0. -1.
     999900   -1    0    0    0    0 -0.00000000000E+00 -0.00000000000E+00 -0.74505805969E-08  0.93827000000E+00  0.93827000000E+00 0.  1.
     999902    2    1    2    0    0 -0.20005447606E-01 -0.39695347838E-02 -0.12105651226E-01  0.10202124552E+01  0.10199367293E+01 0.  0.
     999903    2    3    3    0    0  0.43752622854E-01  0.54966130625E-01  0.10533128970E+00  0.12817549446E+00  0.19967705637E-01 0.  0.
         14    1    1    2    0    0  0.20005447606E-01  0.39695347838E-02  0.12105651226E-01  0.23717544813E-01  0.00000000000E+00 0. -1.
     999901    1    3    3    0    0 -0.63758070460E-01 -0.58935665409E-01 -0.11743694093E+00  0.89203696073E+00  0.88000000000E+00 0.  1.
        -11    1    4    4    0    0  0.43595601586E-01  0.46365373582E-01  0.85803213958E-01  0.10683059951E+00  0.51100000000E-03 0.  1.
         11    1    4    4    0    0  0.15702126859E-03  0.86007570430E-02  0.19528075741E-01  0.21344894953E-01  0.51100000000E-03 0. -1.
</event>
<event>
 8    1  0.1099478E+005  0.1043930E+01  0.7957747E-01            NaN
         13   -1    0    0    0    0  0.00000000000E+00  0.00000000000E+00  0.74505805969E-08  0.10566000000E+00  0.10566000000E+00 0. -1.
     999900   -1    0    0    0    0 -0.00000000000E+00 -0.00000000000E+00 -0.74505805969E-08  0.93827000000E+00  0.93827000000E+00 0. -1.
     999902    2    1    2    0    0  0.43696718202E-02  0.59755109954E-02  0.22221899836E-01  0.10205074981E+01  0.10202386682E+01 0.  0.
     999903    2    3    3    0    0 -0.29606617893E-01  0.11832534469E+00  0.47321784683E-01  0.13235949375E+00  0.20056053000E-01 0.  0.
         14    1    1    2    0    0 -0.43696718202E-02 -0.59755109954E-02 -0.22221899836E-01  0.23422501911E-01  0.00000000000E+00 0.  1.
     999901    1    3    3    0    0  0.33976289713E-01 -0.11234983369E+00 -0.25099884848E-01  0.88814800434E+00  0.88000000000E+00 0. -1.
        -11    1    4    4    0    0 -0.14141532127E-01  0.22755731721E-01  0.10194931655E-01  0.28670612298E-01  0.51100000000E-03 0.  1.
         11    1    4    4    0    0 -0.15465085765E-01  0.95569612964E-01  0.37126853028E-01  0.10368888145E+00  0.51100000000E-03 0. -1.
</event>
<event>
 8    1  0.1099478E+005  0.1043930E+01  0.7957747E-01            NaN
         13   -1    0    0    0    0  0.00000000000E+00  0.00000000000E+00  0.74505805969E-08  0.10566000000E+00  0.10566000000E+00 0.  1.
     999900   -1    0    0    0    0 -0.00000000000E+00 -0.00000000000E+00 -0.74505805969E-08  0.93827000000E+00  0.93827000000E+00 0.  1.
     999902    2    1    2    0    0 -0.13190792771E-01 -0.24592528631E-02  0.20299841398E-01  0.10195963094E+01  0.10193058940E+01 0.  0.
     999903    2    3    3    0    0  0.12619431131E+00  0.43811255561E-02  0.10094175162E-01  0.12854123047E+00  0.21834767975E-01 0.  0.
         14    1    1    2    0    0  0.13190792771E-01  0.24592528631E-02 -0.20299841398E-01  0.24333690623E-01  0.00000000000E+00 0. -1.
     999901    1    3    3    0    0 -0.13938510408E+00 -0.68403784192E-02  0.10205666236E-01  0.89105507890E+00  0.88000000000E+00 0. -1.
        -11    1    4    4    0    0  0.85537035311E-01 -0.27107254658E-02  0.15305035691E-01  0.86939275825E-01  0.51100000000E-03 0.  1.
         11    1    4    4    0    0  0.40657275994E-01  0.70918510219E-02 -0.52108605293E-02  0.41601954649E-01  0.51100000000E-03 0. -1.
</event>
<event>
 8    1  0.1099478E+005  0.1043930E+01  0.7957747E-01            NaN
         13   -1    0    0    0    0  0.00000000000E+00  0.00000000000E+00  0.74505805969E-08  0.10566000000E+00  0.10566000000E+00 0. -1.
     999900   -1    0    0    0    0 -0.00000000000E+00 -0.00000000000E+00 -0.74505805969E-08  0.93827000000E+00  0.93827000000E+00 0. -1.
     999902    2    1    2    0    0  0.14576160929E-01 -0.16913729687E-01 -0.57994685267E-02  0.10208611345E+01  0.10206004524E+01 0.  0.
     999903    2    3    3    0    0 -0.12615635169E+00  0.23212434379E-02  0.14304546893E-01  0.12924473958E+00  0.24057626739E-01 0.  0.
         14    1    1    2    0    0 -0.14576160929E-01  0.16913729687E-01  0.57994685267E-02  0.23068865480E-01  0.00000000000E+00 0. -1.
     999901    1    3    3    0    0  0.14073251261E+00 -0.19234973125E-01 -0.20104015420E-01  0.89161639494E+00  0.88000000000E+00 0.  1.
        -11    1    4    4    0    0 -0.25727553920E-01 -0.16720326349E-02  0.12647854488E-01  0.28721630664E-01  0.51100000000E-03 0. -1.
         11    1    4    4    0    0 -0.10042879777E+00  0.39932760728E-02  0.16566924046E-02  0.10052310891E+00  0.51100000000E-03 0.  1.
</event>
<event>
 8    1  0.1099478E+005  0.1043930E+01  0.7957747E-01            NaN
         13   -1    0    0    0    0  0.00000000000E+00  0.00000000000E+00  0.74505805969E-08  0.10566000000E+00  0.10566000000E+00 0.  1.
     999900   -1    0    0    0    0 -0.00000000000E+00 -0.00000000000E+00 -0.74505805969E-08  0.93827000000E+00  0.93827000000E+00 0. -1.
     999902    2    1    2    0    0 -0.32548839061E-02  0.14148124094E-02  0.23706521020E-01  0.10199592866E+01  0.10196775722E+01 0.  0.
     999903    2    3    3    0    0  0.46062756691E-02 -0.74575366358E-01 -0.10164673840E+00  0.12779913013E+00  0.20441506594E-01 0.  0.
         14    1    1    2    0    0  0.32548839061E-02 -0.14148124094E-02 -0.23706521020E-01  0.23970713428E-01  0.00000000000E+00 0. -1.
     999901    1    3    3    0    0 -0.78611595752E-02  0.75990178768E-01  0.12535325942E+00  0.89216015644E+00  0.88000000000E+00 0.  1.
        -11    1    4    4    0    0 -0.27293028992E-02 -0.29726384150E-01 -0.55555468762E-01  0.63069630087E-01  0.51100000000E-03 0.  1.
         11    1    4    4    0    0  0.73355785683E-02 -0.44848982208E-01 -0.46091269635E-01  0.64729500042E-01  0.51100000000E-03 0. -1.
</event>
<event>
 8    1  0.1105643E+005  0.1043930E+01  0.7957747E-01            NaN
         13   -1    0    0    0    0  0.00000000000E+00  0.00000000000E+00  0.74505805969E-08  0.10566000000E+00  0.10566000000E+00 0.  1.
     999900   -1    0    0    0    0 -0.00000000000E+00 -0.00000000000E+00 -0.74505805969E-08  0.93827000000E+00  0.93827000000E+00 0. -1.
     999902    2    1    2    0    0 -0.16253233148E-01 -0.17591789701E-01  0.15371288134E-02  0.10199299705E+01  0.10196475583E+01 0.  0.
     999903    2    3    3    0    0 -0.61761665669E-01  0.63315073488E-01  0.93258765309E-01  0.13030656894E+00  0.21431349114E-01 0.  0.
         14    1    1    2    0    0  0.16253233148E-01  0.17591789701E-01 -0.15371288134E-02  0.24000029534E-01  0.00000000000E+00 0. -1.
     999901    1    3    3    0    0  0.45508432521E-01 -0.80906863190E-01 -0.91721636495E-01  0.88962340153E+00  0.88000000000E+00 0. -1.
        -11    1    4    4    0    0 -0.21893466956E-01  0.37725443339E-01  0.43694902843E-01  0.61741708965E-01  0.51100000000E-03 0.  1.
         11    1    4    4    0    0 -0.39868198713E-01  0.25589630149E-01  0.49563862466E-01  0.68564859975E-01  0.51100000000E-03 0. -1.
</event>
<event>
 8    1  0.1099478E+005  0.1043930E+01  0.7957747E-01            NaN
         13   -1    0    0    0    0  0.00000000000E+00  0.00000000000E+00  0.74505805969E-08  0.10566000000E+00  0.10566000000E+00 0. -1.
     999900   -1    0    0    0    0 -0.00000000000E+00 -0.00000000000E+00 -0.74505805969E-08  0.93827000000E+00  0.93827000000E+00 0. -1.
     999902    2    1    2    0    0 -0.11737879485E-01 -0.10402024386E-01  0.16548826235E-01  0.10211299216E+01  0.10208753465E+01 0.  0.
     999903    2    3    3    0    0 -0.60521355054E-01  0.77254340850E-01 -0.82961421601E-01  0.12985793432E+00  0.18692726758E-01 0.  0.
         14    1    1    2    0    0  0.11737879485E-01  0.10402024386E-01 -0.16548826235E-01  0.22800078419E-01  0.00000000000E+00 0.  1.
     999901    1    3    3    0    0  0.48783475569E-01 -0.87656365236E-01  0.99510247836E-01  0.89127198726E+00  0.88000000000E+00 0.  1.
        -11    1    4    4    0    0 -0.29216693080E-01  0.22701301351E-01 -0.30904057098E-01  0.48210850477E-01  0.51100000000E-03 0. -1.
         11    1    4    4    0    0 -0.31304661974E-01  0.54553039499E-01 -0.52057364503E-01  0.81647083842E-01  0.51100000000E-03 0.  1.
</event>
<event>
 8    1  0.1099478E+005  0.1043930E+01  0.7957747E-01            NaN
         13   -1    0    0    0    0  0.00000000000E+00  0.00000000000E+00  0.74505805969E-08  0.10566000000E+00  0.10566000000E+00 0. -1.
     999900   -1    0    0    0    0 -0.00000000000E+00 -0.00000000000E+00 -0.74505805969E-08  0.93827000000E+00  0.93827000000E+00 0. -1.
     999902    2    1    2    0    0  0.39422841726E-02  0.20621203908E-01  0.67929268832E-02  0.10218637472E+01  0.10216254688E+01 0.  0.
     999903    2    3    3    0    0  0.59414722166E-01 -0.14926306071E-01 -0.11409405787E+00  0.13115926206E+00  0.20794089522E-01 0.  0.
         14    1    1    2    0    0 -0.39422841726E-02 -0.20621203908E-01 -0.67929268832E-02  0.22066252757E-01  0.00000000000E+00 0.  1.
     999901    1    3    3    0    0 -0.55472437993E-01  0.35547509979E-01  0.12088698476E+00  0.89070448518E+00  0.88000000000E+00 0. -1.
        -11    1    4    4    0    0  0.21201797192E-01 -0.32038219953E-02 -0.61265685292E-01  0.64911678417E-01  0.51100000000E-03 0. -1.
         11    1    4    4    0    0  0.38212924974E-01 -0.11722484075E-01 -0.52828372581E-01  0.66247583642E-01  0.51100000000E-03 0.  1.
</event>
<event>
 8    1  0.1099478E+005  0.1043930E+01  0.7957747E-01            NaN
         13   -1    0    0    0    0  0.00000000000E+00  0.00000000000E+00  0.74505805969E-08  0.10566000000E+00  0.10566000000E+00 0.  1.
     999900   -1    0    0    0    0 -0.00000000000E+00 -0.00000000000E+00 -0.74505805969E-08  0.93827000000E+00  0.93827000000E+00 0. -1.
     999902    2    1    2    0    0 -0.12686752509E-01 -0.14433466105E-01 -0.34712047012E-02  0.10244023812E+01  0.10242162422E+01 0.  0.
     999903    2    3    3    0    0  0.28172472363E-01 -0.36016007536E-01  0.12436344774E+00  0.13396598219E+00  0.19742751889E-01 0.  0.
         14    1    1    2    0    0  0.12686752509E-01  0.14433466105E-01  0.34712047012E-02  0.19527618778E-01  0.00000000000E+00 0.  1.
     999901    1    3    3    0    0 -0.40859224873E-01  0.21582541430E-01 -0.12783465244E+00  0.89043639903E+00  0.88000000000E+00 0. -1.
        -11    1    4    4    0    0  0.13188743457E-01 -0.30668915745E-01  0.92640369539E-01  0.98473471231E-01  0.51100000000E-03 0.  1.
         11    1    4    4    0    0  0.14983728907E-01 -0.53470917911E-02  0.31723078205E-01  0.35492510962E-01  0.51100000000E-03 0. -1.
</event>
<event>
 8    1  0.1099478E+005  0.1043930E+01  0.7957747E-01            NaN
         13   -1    0    0    0    0  0.00000000000E+00  0.00000000000E+00  0.74505805969E-08  0.10566000000E+00  0.10566000000E+00 0. -1.
     999900   -1    0    0    0    0 -0.00000000000E+00 -0.00000000000E+00 -0.74505805969E-08  0.93827000000E+00  0.93827000000E+00 0. -1.
     999902    2    1    2    0    0 -0.18695400040E-01  0.56863112324E-02  0.11584359414E-01  0.10212132771E+01  0.10209605809E+01 0.  0.
     999903    2    3    3    0    0  0.70582803940E-01  0.20598611486E-01  0.10691052178E+00  0.13144923439E+00  0.21042969037E-01 0.  0.
         14    1    1    2    0    0  0.18695400040E-01 -0.56863112324E-02 -0.11584359414E-01  0.22716722940E-01  0.00000000000E+00 0.  1.
     999901    1    3    3    0    0 -0.89278203980E-01 -0.14912300253E-01 -0.95326162367E-01  0.88976404267E+00  0.88000000000E+00 0. -1.
        -11    1    4    4    0    0  0.48970672294E-01  0.13506834595E-01  0.89060872055E-01  0.10253127024E+00  0.51100000000E-03 0.  1.
         11    1    4    4    0    0  0.21612131645E-01  0.70917768913E-02  0.17849649726E-01  0.28917964141E-01  0.51100000000E-03 0. -1.
</event>
<event>
 8    1  0.1099478E+005  0.1043930E+01  0.7957747E-01            NaN
         13   -1    0    0    0    0  0.00000000000E+00  0.00000000000E+00  0.74505805969E-08  0.10566000000E+00  0.10566000000E+00 0. -1.
     999900   -1    0    0    0    0 -0.00000000000E+00 -0.00000000000E+00 -0.74505805969E-08  0.93827000000E+00  0.93827000000E+00 0.  1.
     999902    2    1    2    0    0  0.10666302740E-01  0.18041647476E-02 -0.23446604390E-01  0.10181081433E+01  0.10177806361E+01 0.  0.
     999903    2    3    3    0    0 -0.11658152973E+00 -0.39818754512E-01 -0.27566716542E-01  0.12797250557E+00  0.20982183784E-01 0.  0.
         14    1    1    2    0    0 -0.10666302740E-01 -0.18041647476E-02  0.23446604390E-01  0.25821856672E-01  0.00000000000E+00 0. -1.
     999901    1    3    3    0    0  0.12724783247E+00  0.41622919259E-01  0.41201121520E-02  0.89013563775E+00  0.88000000000E+00 0. -1.
        -11    1    4    4    0    0 -0.65187422360E-01 -0.32145984609E-01 -0.20557955683E-01  0.75535786374E-01  0.51100000000E-03 0. -1.
         11    1    4    4    0    0 -0.51394107372E-01 -0.76727699030E-02 -0.70087608591E-02  0.52436719199E-01  0.51100000000E-03 0.  1.
</event>
<event>
 8    1  0.1099478E+005  0.1043930E+01  0.7957747E-01            NaN
         13   -1    0    0    0    0  0.00000000000E+00  0.00000000000E+00  0.74505805969E-08  0.10566000000E+00  0.10566000000E+00 0. -1.
     999900   -1    0    0    0    0 -0.00000000000E+00 -0.00000000000E+00 -0.74505805969E-08  0.93827000000E+00  0.93827000000E+00 0. -1.
     999902    2    1    2    0    0  0.77944148254E-02 -0.20772491118E-01 -0.67972129946E-02  0.10207254445E+01  0.10204616513E+01 0.  0.
     999903    2    3    3    0    0  0.10262390922E+00 -0.42486346008E-01 -0.68949513706E-01  0.13318556769E+00  0.25448058107E-01 0.  0.
         14    1    1    2    0    0 -0.77944148254E-02  0.20772491118E-01  0.67972129946E-02  0.23204555463E-01  0.00000000000E+00 0.  1.
     999901    1    3    3    0    0 -0.94829494394E-01  0.21713854889E-01  0.62152300711E-01  0.88753987684E+00  0.88000000000E+00 0.  1.
        -11    1    4    4    0    0  0.67256964534E-01 -0.29262686330E-01 -0.59004993023E-01  0.94136360734E-01  0.51100000000E-03 0.  1.
         11    1    4    4    0    0  0.35366944686E-01 -0.13223659678E-01 -0.99445206821E-02  0.39049206961E-01  0.51100000000E-03 0. -1.
</event>
<event>
 8    1  0.1099478E+005  0.1043930E+01  0.7957747E-01            NaN
         13   -1    0    0    0    0  0.00000000000E+00  0.00000000000E+00  0.74505805969E-08  0.10566000000E+00  0.10566000000E+00 0. -1.
     999900   -1    0    0    0    0 -0.00000000000E+00 -0.00000000000E+00 -0.74505805969E-08  0.93827000000E+00  0.93827000000E+00 0.  1.
     999902    2    1    2    0    0 -0.11317353348E-01 -0.15341771644E-01 -0.12701747437E-01  0.10210217737E+01  0.10207647503E+01 0.  0.
     999903    2    3    3    0    0  0.69777000225E-01  0.56030180536E-01 -0.93238349482E-01  0.13076540950E+00  0.19949727224E-01 0.  0.
         14    1    1    2    0    0  0.11317353348E-01  0.15341771644E-01  0.12701747437E-01  0.22908226294E-01  0.00000000000E+00 0.  1.
     999901    1    3    3    0    0 -0.81094353573E-01 -0.71371952181E-01  0.80536602044E-01  0.89025636421E+00  0.88000000000E+00 0. -1.
        -11    1    4    4    0    0  0.45210664312E-01  0.43892799178E-01 -0.74448634918E-01  0.97536876869E-01  0.51100000000E-03 0. -1.
         11    1    4    4    0    0  0.24566335913E-01  0.12137381358E-01 -0.18789714564E-01  0.33228532631E-01  0.51100000000E-03 0.  1.
</event>
<event>
 8    1  0.1099478E+005  0.1043930E+01  0.7957747E-01            NaN
         13   -1    0    0    0    0  0.00000000000E+00  0.00000000000E+00  0.74505805969E-08  0.10566000000E+00  0.10566000000E+00 0. -1.
     999900   -1    0    0    0    0 -0.00000000000E+00 -0.00000000000E+00 -0.74505805969E-08  0.93827000000E+00  0.93827000000E+00 0.  1.
     999902    2    1    2    0    0  0.16224808286E-01  0.15864893625E-01  0.70383252528E-02  0.10201712695E+01  0.10198945739E+01 0.  0.
     999903    2    3    3    0    0  0.70275242554E-01  0.70387560276E-01  0.85498923964E-01  0.13335097417E+00  0.24070686635E-01 0.  0.
         14    1    1    2    0    0 -0.16224808286E-01 -0.15864893625E-01 -0.70383252528E-02  0.23758730522E-01  0.00000000000E+00 0.  1.
     999901    1    3    3    0    0 -0.54050434268E-01 -0.54522666651E-01 -0.78460598711E-01  0.88682029531E+00  0.88000000000E+00 0.  1.
        -11    1    4    4    0    0  0.57872818676E-01  0.44930735524E-01  0.54177924829E-01  0.91123777336E-01  0.51100000000E-03 0. -1.
         11    1    4    4    0    0  0.12402423878E-01  0.25456824752E-01  0.31320999134E-01  0.42227196832E-01  0.51100000000E-03 0.  1.
</event>
<event>
 8    1  0.1099478E+005  0.1043930E+01  0.7957747E-01            NaN
         13   -1    0    0    0    0  0.00000000000E+00  0.00000000000E+00  0.74505805969E-08  0.10566000000E+00  0.10566000000E+00 0. -1.
     999900   -1    0    0    0    0 -0.00000000000E+00 -0.00000000000E+00 -0.74505805969E-08  0.93827000000E+00  0.93827000000E+00 0.  1.
     999902    2    1    2    0    0 -0.12166202905E-01 -0.16120891918E-01  0.12275073993E-01  0.10202957644E+01  0.10200219948E+01 0.  0.
     999903    2    3    3    0    0  0.12533924714E+00 -0.21234457260E-01  0.14279727131E-01  0.12960057753E+00  0.20774263889E-01 0.  0.
         14    1    1    2    0    0  0.12166202905E-01  0.16120891918E-01 -0.12275073993E-01  0.23634235568E-01  0.00000000000E+00 0.  1.
     999901    1    3    3    0    0 -0.13750545004E+00  0.51135653418E-02 -0.20046531385E-02  0.89069518691E+00  0.88000000000E+00 0.  1.
        -11    1    4    4    0    0  0.14199848355E-01 -0.41428176008E-02 -0.47720025554E-02  0.15550940820E-01  0.51100000000E-03 0. -1.
         11    1    4    4    0    0  0.11113939878E+00 -0.17091639659E-01  0.19051729687E-01  0.11404963671E+00  0.51100000000E-03 0.  1.
</event>
<event>
 8    1  0.1099478E+005  0.1043930E+01  0.7957747E-01            NaN
         13   -1    0    0    0    0  0.00000000000E+00  0.00000000000E+00  0.74505805969E-08  0.10566000000E+00  0.10566000000E+00 0.  1.
     999900   -1    0    0    0    0 -0.00000000000E+00 -0.00000000000E+00 -0.74505805969E-08  0.93827000000E+00  0.93827000000E+00 0.  1.
     999902    2    1    2    0    0  0.23930233726E-01  0.50649036598E-02 -0.32680688530E-02  0.10192522852E+01  0.10189534981E+01 0.  0.
     999903    2    3    3    0    0 -0.68508090409E-01  0.63795887055E-01 -0.85688889772E-01  0.12864161608E+00  0.21042953692E-01 0.  0.
         14    1    1    2    0    0 -0.23930233726E-01 -0.50649036598E-02  0.32680688530E-02  0.24677714831E-01  0.00000000000E+00 0.  1.
     999901    1    3    3    0    0  0.92438324134E-01 -0.58730983395E-01  0.82420820919E-01  0.89061066909E+00  0.88000000000E+00 0.  1.
        -11    1    4    4    0    0 -0.52466168967E-01  0.35342066200E-01 -0.55309423686E-01  0.84030672964E-01  0.51100000000E-03 0.  1.
         11    1    4    4    0    0 -0.16041921442E-01  0.28453820855E-01 -0.30379466086E-01  0.44610943113E-01  0.51100000000E-03 0. -1.
</event>
<event>
 8    1  0.1099478E+005  0.1043930E+01  0.7957747E-01            NaN
         13   -1    0    0    0    0  0.00000000000E+00  0.00000000000E+00  0.74505805969E-08  0.10566000000E+00  0.10566000000E+00 0.  1.
     999900   -1    0    0    0    0 -0.00000000000E+00 -0.00000000000E+00 -0.74505805969E-08  0.93827000000E+00  0.93827000000E+00 0.  1.
     999902    2    1    2    0    0  0.53056641534E-02  0.31881098385E-02  0.23122037513E-01  0.10199937778E+01  0.10197128831E+01 0.  0.
     999903    2    3    3    0    0 -0.10789388612E+00 -0.37886163706E-01 -0.54898147944E-01  0.12837256700E+00  0.19729603351E-01 0.  0.
         14    1    1    2    0    0 -0.53056641534E-02 -0.31881098385E-02 -0.23122037513E-01  0.23936222241E-01  0.00000000000E+00 0. -1.
     999901    1    3    3    0    0  0.11319955028E+00  0.41074273545E-01  0.78020185457E-01  0.89162121076E+00  0.88000000000E+00 0. -1.
        -11    1    4    4    0    0 -0.16750374570E-01 -0.13146977175E-02 -0.14428067543E-01  0.22152510746E-01  0.51100000000E-03 0. -1.
         11    1    4    4    0    0 -0.91143511552E-01 -0.36571465989E-01 -0.40470080401E-01  0.10622005626E+00  0.51100000000E-03 0.  1.
</event>
<event>
 8    1  0.1099478E+005  0.1043930E+01  0.7957747E-01            NaN
         13   -1    0    0    0    0  0.00000000000E+00  0.00000000000E+00  0.74505805969E-08  0.10566000000E+00  0.10566000000E+00 0.  1.
     999900   -1    0    0    0    0 -0.00000000000E+00 -0.00000000000E+00 -0.74505805969E-08  0.93827000000E+00  0.93827000000E+00 0.  1.
     999902    2    1    2    0    0 -0.18382890409E-02  0.18819354316E-01 -0.14690826206E-01  0.10199849008E+01  0.10197037952E+01 0.  0.
     999903    2    3    3    0    0  0.11620895972E+00  0.31764505896E-01  0.44627130169E-01  0.13002908733E+00  0.20061820707E-01 0.  0.
         14    1    1    2    0    0  0.18382890409E-02 -0.18819354316E-01  0.14690826206E-01  0.23945099250E-01  0.00000000000E+00 0.  1.
     999901    1    3    3    0    0 -0.11804724876E+00 -0.12945151580E-01 -0.59317956375E-01  0.88995581342E+00  0.88000000000E+00 0. -1.
        -11    1    4    4    0    0  0.88139540598E-01  0.29828244251E-01  0.40897084791E-01  0.10164219319E+00  0.51100000000E-03 0.  1.
         11    1    4    4    0    0  0.28069419126E-01  0.19362616453E-02  0.37300453785E-02  0.28386894137E-01  0.51100000000E-03 0. -1.
</event>
<event>
 8    1  0.1099478E+005  0.1043930E+01  0.7957747E-01            NaN
         13   -1    0    0    0    0  0.00000000000E+00  0.00000000000E+00  0.74505805969E-08  0.10566000000E+00  0.10566000000E+00 0.  1.
     999900   -1    0    0    0    0 -0.00000000000E+00 -0.00000000000E+00 -0.74505805969E-08  0.93827000000E+00  0.93827000000E+00 0. -1.
     999902    2    1    2    0    0 -0.21817633224E-01 -0.83894938250E-02 -0.92584340703E-02  0.10187881757E+01  0.10184779014E+01 0.  0.
     999903    2    3    3    0    0 -0.35579487455E-01 -0.83340191449E-01  0.91022741753E-01  0.12982062293E+00  0.18888281646E-01 0.  0.
         14    1    1    2    0    0  0.21817633224E-01  0.83894938250E-02  0.92584340703E-02  0.25141824269E-01  0.00000000000E+00 0.  1.
     999901    1    3    3    0    0  0.13761854231E-01  0.74950697624E-01 -0.10028117582E+00  0.88896755280E+00  0.88000000000E+00 0. -1.
        -11    1    4    4    0    0 -0.30760608912E-01 -0.51387848721E-01  0.64431567339E-01  0.87969392675E-01  0.51100000000E-03 0. -1.
         11    1    4    4    0    0 -0.48188785438E-02 -0.31952342728E-01  0.26591174414E-01  0.41851230256E-01  0.51100000000E-03 0.  1.
</event>
<event>
 8    1  0.1099478E+005  0.1043930E+01  0.7957747E-01            NaN
         13   -1    0    0    0    0  0.00000000000E+00  0.00000000000E+00  0.74505805969E-08  0.10566000000E+00  0.10566000000E+00 0. -1.
     999900   -1    0    0    0    0 -0.00000000000E+00 -0.00000000000E+00 -0.74505805969E-08  0.93827000000E+00  0.93827000000E+00 0.  1.
     999902    2    1    2    0    0  0.11739034481E-01  0.13607165999E-01 -0.15604209430E-01  0.10201297637E+01  0.10198520890E+01 0.  0.
     999903    2    3    3    0    0  0.33587131606E-01  0.89298881994E-01 -0.91222747246E-01  0.13338022831E+00  0.19139225511E-01 0.  0.
         14    1    1    2    0    0 -0.11739034481E-01 -0.13607165999E-01  0.15604209430E-01  0.23800236323E-01  0.00000000000E+00 0. -1.
     999901    1    3    3    0    0 -0.21848097125E-01 -0.75691715995E-01  0.75618537816E-01  0.88674953537E+00  0.88000000000E+00 0. -1.
        -11    1    4    4    0    0  0.73727456238E-02  0.37691812145E-01 -0.45976626854E-01  0.59909443485E-01  0.51100000000E-03 0.  1.
         11    1    4    4    0    0  0.26214385982E-01  0.51607069849E-01 -0.45246120392E-01  0.73470784822E-01  0.51100000000E-03 0. -1.
</event>
<event>
 8    1  0.1099478E+005  0.1043930E+01  0.7957747E-01            NaN
         13   -1    0    0    0    0  0.00000000000E+00  0.00000000000E+00  0.74505805969E-08  0.10566000000E+00  0.10566000000E+00 0.  1.
     999900   -1    0    0    0    0 -0.00000000000E+00 -0.00000000000E+00 -0.74505805969E-08  0.93827000000E+00  0.93827000000E+00 0. -1.
     999902    2    1    2    0    0 -0.18726051878E-01  0.12589201477E-01 -0.55971024699E-02  0.10206817620E+01  0.10204169632E+01 0.  0.
     999903    2    3    3    0    0  0.44153450472E-01  0.10287864548E+00 -0.66937738550E-01  0.13171118369E+00  0.18265601068E-01 0.  0.
         14    1    1    2    0    0  0.18726051878E-01 -0.12589201477E-01  0.55971024699E-02  0.23248237973E-01  0.00000000000E+00 0. -1.
     999901    1    3    3    0    0 -0.62879502350E-01 -0.90289444004E-01  0.61340636080E-01  0.88897057834E+00  0.88000000000E+00 0. -1.
        -11    1    4    4    0    0  0.24377687507E-01  0.59122827437E-01 -0.27681233856E-01  0.69687102115E-01  0.51100000000E-03 0. -1.
         11    1    4    4    0    0  0.19775762964E-01  0.43755818044E-01 -0.39256504694E-01  0.62024081575E-01  0.51100000000E-03 0.  1.
</event>
<event>
 8    1  0.1099478E+005  0.1043930E+01  0.7957747E-01            NaN
         13   -1    0    0    0    0  0.00000000000E+00  0.00000000000E+00  0.74505805969E-08  0.10566000000E+00  0.10566000000E+00 0. -1.
     999900   -1    0    0    0    0 -0.00000000000E+00 -0.00000000000E+00 -0.74505805969E-08  0.93827000000E+00  0.93827000000E+00 0.  1.
     999902    2    1    2    0    0  0.11571693355E-01 -0.12684573393E-01  0.15857495699E-01  0.10205577374E+01  0.10202900728E+01 0.  0.
     999903    2    3    3    0    0  0.50650527760E-01 -0.62964764239E-01 -0.10069257666E+00  0.13059191094E+00  0.19626887459E-01 0.  0.
         14    1    1    2    0    0 -0.11571693355E-01  0.12684573393E-01 -0.15857495699E-01  0.23372262601E-01  0.00000000000E+00 0.  1.
     999901    1    3    3    0    0 -0.39078834405E-01  0.50280190846E-01  0.11655007236E+00  0.88996582645E+00  0.88000000000E+00 0. -1.
        -11    1    4    4    0    0  0.31675730568E-01 -0.51972793035E-01 -0.68479612857E-01  0.91620093980E-01  0.51100000000E-03 0. -1.
         11    1    4    4    0    0  0.18974797192E-01 -0.10991971204E-01 -0.32212963804E-01  0.38971816964E-01  0.51100000000E-03 0.  1.
</event>
<event>
 8    1  0.1099478E+005  0.1043930E+01  0.7957747E-01            NaN
         13   -1    0    0    0    0  0.00000000000E+00  0.00000000000E+00  0.74505805969E-08  0.10566000000E+00  0.10566000000E+00 0. -1.
     999900   -1    0    0    0    0 -0.00000000000E+00 -0.00000000000E+00 -0.74505805969E-08  0.93827000000E+00  0.93827000000E+00 0.  1.
     999902    2    1    2    0    0 -0.14116902474E-01  0.57307280763E-02  0.21266897491E-01  0.10177687862E+01  0.10174325005E+01 0.  0.
     999903    2    3    3    0    0 -0.47441626192E-01  0.73163137424E-01 -0.90874215520E-01  0.12746923194E+00  0.19665438531E-01 0.  0.
         14    1    1    2    0    0  0.14116902474E-01 -0.57307280763E-02 -0.21266897491E-01  0.26161213822E-01  0.00000000000E+00 0.  1.
     999901    1    3    3    0    0  0.33324723718E-01 -0.67432409348E-01  0.11214111301E+00  0.89029955423E+00  0.88000000000E+00 0. -1.
        -11    1    4    4    0    0 -0.30170659610E-01  0.42026195353E-01 -0.66768719417E-01  0.84467702767E-01  0.51100000000E-03 0.  1.
         11    1    4    4    0    0 -0.17270966582E-01  0.31136942071E-01 -0.24105496103E-01  0.43001529177E-01  0.51100000000E-03 0. -1.
</event>
<event>
 8    1  0.1099478E+005  0.1043930E+01  0.7957747E-01            NaN
         13   -1    0    0    0    0  0.00000000000E+00  0.00000000000E+00  0.74505805969E-08  0.10566000000E+00  0.10566000000E+00 0.  1.
     999900   -1    0    0    0    0 -0.00000000000E+00 -0.00000000000E+00 -0.74505805969E-08  0.93827000000E+00  0.93827000000E+00 0.  1.
     999902    2    1    2    0    0 -0.12383559148E-01  0.59731126515E-02 -0.19226638550E-01  0.10202932861E+01  0.10200194584E+01 0.  0.
     999903    2    3    3    0    0 -0.18074832135E-01  0.83906128823E-01 -0.99809147748E-01  0.13316337098E+00  0.20091774062E-01 0.  0.
         14    1    1    2    0    0  0.12383559148E-01 -0.59731126515E-02  0.19226638550E-01  0.23636713855E-01  0.00000000000E+00 0.  1.
     999901    1    3    3    0    0  0.56912729871E-02 -0.77933016172E-01  0.80582509198E-01  0.88712991517E+00  0.88000000000E+00 0. -1.
        -11    1    4    4    0    0 -0.14439465169E-01  0.24396783916E-01 -0.36151840160E-01  0.45944726441E-01  0.51100000000E-03 0. -1.
         11    1    4    4    0    0 -0.36353669659E-02  0.59509344908E-01 -0.63657307589E-01  0.87218644536E-01  0.51100000000E-03 0.  1.
</event>
<event>
 8    1  0.1099478E+005  0.1043930E+01  0.7957747E-01            NaN
         13   -1    0    0    0    0  0.00000000000E+00  0.00000000000E+00  0.74505805969E-08  0.10566000000E+00  0.10566000000E+00 0.  1.
     999900   -1    0    0    0    0 -0.00000000000E+00 -0.00000000000E+00 -0.74505805969E-08  0.93827000000E+00  0.93827000000E+00 0. -1.
     999902    2    1    2    0    0 -0.42860761766E-02  0.18982135071E-02 -0.22749841040E-01  0.10207022379E+01  0.10204379107E+01 0.  0.
     999903    2    3    3    0    0 -0.71543966269E-01  0.14457286738E-02  0.10531637342E+00  0.12889240180E+00  0.20027068942E-01 0.  0.
         14    1    1    2    0    0  0.42860761766E-02 -0.18982135071E-02  0.22749841040E-01  0.23227762071E-01  0.00000000000E+00 0.  1.
     999901    1    3    3    0    0  0.67257890093E-01  0.45248483330E-03 -0.12806621446E+00  0.89180983613E+00  0.88000000000E+00 0. -1.
        -11    1    4    4    0    0 -0.62767950317E-01  0.52279639474E-02  0.79952460032E-01  0.10178312326E+00  0.51100000000E-03 0.  1.
         11    1    4    4    0    0 -0.87760159526E-02 -0.37822352736E-02  0.25363913393E-01  0.27109278546E-01  0.51100000000E-03 0. -1.
</event>
<event>
 8    1  0.1099478E+005  0.1043930E+01  0.7957747E-01            NaN
         13   -1    0    0    0    0  0.00000000000E+00  0.00000000000E+00  0.74505805969E-08  0.10566000000E+00  0.10566000000E+00 0. -1.
     999900   -1    0    0    0    0 -0.00000000000E+00 -0.00000000000E+00 -0.74505805969E-08  0.93827000000E+00  0.93827000000E+00 0. -1.
     999902    2    1    2    0    0  0.82830381651E-02 -0.10416983582E-01 -0.20311260455E-01  0.10196468872E+01  0.10193576923E+01 0.  0.
     999903    2    3    3    0    0  0.13388621066E-01  0.12533081050E+00 -0.20401148704E-01  0.12922365147E+00  0.19886628561E-01 0.  0.
         14    1    1    2    0    0 -0.82830381651E-02  0.10416983582E-01  0.20311260455E-01  0.24283112845E-01  0.00000000000E+00 0. -1.
     999901    1    3    3    0    0 -0.51055829005E-02 -0.13574779408E+00  0.89888249594E-04  0.89042323569E+00  0.88000000000E+00 0. -1.
        -11    1    4    4    0    0  0.11057984431E-01  0.75632086160E-01 -0.29457028718E-02  0.76494638786E-01  0.51100000000E-03 0.  1.
         11    1    4    4    0    0  0.23306366341E-02  0.49698724338E-01 -0.17455445833E-01  0.52729012679E-01  0.51100000000E-03 0. -1.
</event>
<event>
 8    1  0.1099478E+005  0.1043930E+01  0.7957747E-01            NaN
         13   -1    0    0    0    0  0.00000000000E+00  0.00000000000E+00  0.74505805969E-08  0.10566000000E+00  0.10566000000E+00 0. -1.
     999900   -1    0    0    0    0 -0.00000000000E+00 -0.00000000000E+00 -0.74505805969E-08  0.93827000000E+00  0.93827000000E+00 0.  1.
     999902    2    1    2    0    0  0.17552356299E-01  0.54924030815E-02  0.13278127295E-01  0.10212460769E+01  0.10209941181E+01 0.  0.
     999903    2    3    3    0    0 -0.81512638850E-01 -0.99027279137E-01  0.11050046352E-02  0.12945774878E+00  0.17532124186E-01 0.  0.
         14    1    1    2    0    0 -0.17552356299E-01 -0.54924030815E-02 -0.13278127295E-01  0.22683923112E-01  0.00000000000E+00 0.  1.
     999901    1    3    3    0    0  0.99064995149E-01  0.10451968222E+00  0.12173122660E-01  0.89178832811E+00  0.88000000000E+00 0.  1.
        -11    1    4    4    0    0 -0.57127674567E-01 -0.77952785490E-01  0.61034680190E-02  0.96838635936E-01  0.51100000000E-03 0.  1.
         11    1    4    4    0    0 -0.24384964282E-01 -0.21074493647E-01 -0.49984633837E-02  0.32619112844E-01  0.51100000000E-03 0. -1.
</event>
<event>
 8    1  0.1099478E+005  0.1043930E+01  0.7957747E-01            NaN
         13   -1    0    0    0    0  0.00000000000E+00  0.00000000000E+00  0.74505805969E-08  0.10566000000E+00  0.10566000000E+00 0.  1.
     999900   -1    0    0    0    0 -0.00000000000E+00 -0.00000000000E+00 -0.74505805969E-08  0.93827000000E+00  0.93827000000E+00 0.  1.
     999902    2    1    2    0    0  0.86756566828E-02  0.77291830538E-02 -0.19759321914E-01  0.10210075636E+01  0.10207502176E+01 0.  0.
     999903    2    3    3    0    0 -0.45577207331E-01 -0.69489403138E-01 -0.10087999119E+00  0.13225189057E+00  0.20192349035E-01 0.  0.
         14    1    1    2    0    0 -0.86756566828E-02 -0.77291830538E-02  0.19759321914E-01  0.22922436434E-01  0.00000000000E+00 0.  1.
     999901    1    3    3    0    0  0.54252864014E-01  0.77218586192E-01  0.81120669274E-01  0.88875567300E+00  0.88000000000E+00 0. -1.
        -11    1    4    4    0    0 -0.30551419439E-01 -0.30717349658E-01 -0.59335929038E-01  0.73470799612E-01  0.51100000000E-03 0.  1.
         11    1    4    4    0    0 -0.15025787892E-01 -0.38772053480E-01 -0.41544062150E-01  0.58781090954E-01  0.51100000000E-03 0. -1.
</event>
<event>
 8    1  0.1099478E+005  0.1043930E+01  0.7957747E-01            NaN
         13   -1    0    0    0    0  0.00000000000E+00  0.00000000000E+00  0.74505805969E-08  0.10566000000E+00  0.10566000000E+00 0.  1.
     999900   -1    0    0    0    0 -0.00000000000E+00 -0.00000000000E+00 -0.74505805969E-08  0.93827000000E+00  0.93827000000E+00 0.  1.
     999902    2    1    2    0    0  0.13031123570E-01  0.12433499948E-01 -0.16393682110E-01  0.10195752281E+01  0.10192843032E+01 0.  0.
     999903    2    3    3    0    0 -0.42525560026E-02  0.20172970952E-01 -0.12895405791E+00  0.13220356795E+00  0.20581577604E-01 0.  0.
         14    1    1    2    0    0 -0.13031123570E-01 -0.12433499948E-01  0.16393682110E-01  0.24354771926E-01  0.00000000000E+00 0.  1.
     999901    1    3    3    0    0  0.17283679573E-01 -0.77394710033E-02  0.11256037580E+00  0.88737166012E+00  0.88000000000E+00 0. -1.
        -11    1    4    4    0    0  0.27651911509E-02  0.64786350564E-02 -0.90597129469E-01  0.90871997795E-01  0.51100000000E-03 0.  1.
         11    1    4    4    0    0 -0.70177471535E-02  0.13694335895E-01 -0.38356928444E-01  0.41331570154E-01  0.51100000000E-03 0. -1.
</event>
<event>
 8    1  0.1099478E+005  0.1043930E+01  0.7957747E-01            NaN
         13   -1    0    0    0    0  0.00000000000E+00  0.00000000000E+00  0.74505805969E-08  0.10566000000E+00  0.10566000000E+00 0.  1.
     999900   -1    0    0    0    0 -0.00000000000E+00 -0.00000000000E+00 -0.74505805969E-08  0.93827000000E+00  0.93827000000E+00 0. -1.
     999902    2    1    2    0    0  0.11837298982E-01  0.17911169283E-01  0.98933762971E-02  0.10202908264E+01  0.10200169410E+01 0.  0.
     999903    2    3    3    0    0 -0.92540063257E-01  0.76731968018E-01  0.49811108364E-01  0.13127567165E+00  0.17340623571E-01 0.  0.
         14    1    1    2    0    0 -0.11837298982E-01 -0.17911169283E-01 -0.98933762971E-02  0.23639173565E-01  0.00000000000E+00 0. -1.
     999901    1    3    3    0    0  0.10437736224E+00 -0.58820798735E-01 -0.39917732067E-01  0.88901515479E+00  0.88000000000E+00 0. -1.
        -11    1    4    4    0    0 -0.57461190474E-01  0.36875632891E-01  0.30429087296E-01  0.74751529660E-01  0.51100000000E-03 0.  1.
         11    1    4    4    0    0 -0.35078872784E-01  0.39856335127E-01  0.19382021068E-01  0.56524141986E-01  0.51100000000E-03 0. -1.
</event>
<event>
 8    1  0.1099478E+005  0.1043930E+01  0.7957747E-01            NaN
         13   -1    0    0    0    0  0.00000000000E+00  0.00000000000E+00  0.74505805969E-08  0.10566000000E+00  0.10566000000E+00 0.  1.
     999900   -1    0    0    0    0 -0.00000000000E+00 -0.00000000000E+00 -0.74505805969E-08  0.93827000000E+00  0.93827000000E+00 0.  1.
     999902    2    1    2    0    0  0.22472295446E-01  0.34334721125E-02 -0.75963014354E-02  0.10199613415E+01  0.10196796760E+01 0.  0.
     999903    2    3    3    0    0  0.18584340792E-01  0.17608627369E-01  0.12557776115E+00  0.12982012680E+00  0.20689363123E-01 0.  0.
         14    1    1    2    0    0 -0.22472295446E-01 -0.34334721125E-02  0.75963014354E-02  0.23968658470E-01  0.00000000000E+00 0. -1.
     999901    1    3    3    0    0  0.38879546540E-02 -0.14175155256E-01 -0.13317406258E+00  0.89014121473E+00  0.88000000000E+00 0.  1.
        -11    1    4    4    0    0  0.42514797021E-02  0.12932182637E-01  0.28629892461E-01  0.31705650769E-01  0.51100000000E-03 0. -1.
         11    1    4    4    0    0  0.14332861090E-01  0.46764447321E-02  0.96947868688E-01  0.98114476029E-01  0.51100000000E-03 0.  1.
</event>
<event>
 8    1  0.1099478E+005  0.1043930E+01  0.7957747E-01            NaN
         13   -1    0    0    0    0  0.00000000000E+00  0.00000000000E+00  0.74505805969E-08  0.10566000000E+00  0.10566000000E+00 0. -1.
     999900   -1    0    0    0    0 -0.00000000000E+00 -0.00000000000E+00 -0.74505805969E-08  0.93827000000E+00  0.93827000000E+00 0. -1.
     999902    2    1    2    0    0 -0.11887607103E-01  0.72641068047E-02 -0.18265666289E-01  0.10209579079E+01  0.10206994331E+01 0.  0.
     999903    2    3    3    0    0 -0.45908790379E-01  0.11915912271E+00  0.27067308012E-01  0.13206364307E+00  0.20041284825E-01 0.  0.
         14    1    1    2    0    0  0.11887607103E-01 -0.72641068047E-02  0.18265666289E-01  0.22972092096E-01  0.00000000000E+00 0. -1.
     999901    1    3    3    0    0  0.34021183276E-01 -0.11189501591E+00 -0.45332974300E-01  0.88889426483E+00  0.88000000000E+00 0.  1.
        -11    1    4    4    0    0 -0.11211365687E-01  0.25994825239E-01  0.14633524278E-01  0.31872038114E-01  0.51100000000E-03 0. -1.
         11    1    4    4    0    0 -0.34697424692E-01  0.93164297476E-01  0.12433783734E-01  0.10019160495E+00  0.51100000000E-03 0.  1.
</event>
<event>
 8    1  0.1099478E+005  0.1043930E+01  0.7957747E-01            NaN
         13   -1    0    0    0    0  0.00000000000E+00  0.00000000000E+00  0.74505805969E-08  0.10566000000E+00  0.10566000000E+00 0.  1.
     999900   -1    0    0    0    0 -0.00000000000E+00 -0.00000000000E+00 -0.74505805969E-08  0.93827000000E+00  0.93827000000E+00 0.  1.
     999902    2    1    2    0    0  0.13309029441E-02 -0.71878482196E-02  0.22271247939E-01  0.10204897579E+01  0.10202205159E+01 0.  0.
     999903    2    3    3    0    0  0.10608657928E+00  0.41980778162E-01 -0.57594097662E-01  0.12932771934E+00  0.19794718140E-01 0.  0.
         14    1    1    2    0    0 -0.13309029441E-02  0.71878482196E-02 -0.22271247939E-01  0.23440242094E-01  0.00000000000E+00 0. -1.
     999901    1    3    3    0    0 -0.10475567634E+00 -0.49168626382E-01  0.79865345601E-01  0.89116203856E+00  0.88000000000E+00 0. -1.
        -11    1    4    4    0    0  0.89388377078E-01  0.27654614561E-01 -0.43441998225E-01  0.10316262886E+00  0.51100000000E-03 0. -1.
         11    1    4    4    0    0  0.16698202204E-01  0.14326163602E-01 -0.14152099437E-01  0.26165090481E-01  0.51100000000E-03 0.  1.
</event>
<event>
 8    1  0.1099478E+005  0.1043930E+01  0.7957747E-01            NaN
         13   -1    0    0    0    0  0.00000000000E+00  0.00000000000E+00  0.74505805969E-08  0.10566000000E+00  0.10566000000E+00 0.  1.
     999900   -1    0    0    0    0 -0.00000000000E+00 -0.00000000000E+00 -0.74505805969E-08  0.93827000000E+00  0.93827000000E+00 0. -1.
     999902    2    1    2    0    0  0.23427394151E-01 -0.50723696469E-02  0.36184423555E-02  0.10196882002E+01  0.10194000004E+01 0.  0.
     999903    2    3    3    0    0 -0.12202866634E+00  0.73645648106E-02  0.29000470288E-01  0.12730017353E+00  0.20471313574E-01 0.  0.
         14    1    1    2    0    0 -0.23427394151E-01  0.50723696469E-02 -0.36184423555E-02  0.24241799760E-01  0.00000000000E+00 0.  1.
     999901    1    3    3    0    0  0.14545606049E+00 -0.12436934458E-01 -0.25382027933E-01  0.89238802671E+00  0.88000000000E+00 0. -1.
        -11    1    4    4    0    0 -0.59794759656E-01  0.13638755594E-01  0.16477399638E-01  0.63507438590E-01  0.51100000000E-03 0. -1.
         11    1    4    4    0    0 -0.62233906687E-01 -0.62741907839E-02  0.12523070650E-01  0.63792734940E-01  0.51100000000E-03 0.  1.
</event>
<event>
 8    1  0.1099478E+005  0.1043930E+01  0.7957747E-01            NaN
         13   -1    0    0    0    0  0.00000000000E+00  0.00000000000E+00  0.74505805969E-08  0.10566000000E+00  0.10566000000E+00 0. -1.
     999900   -1    0    0    0    0 -0.00000000000E+00 -0.00000000000E+00 -0.74505805969E-08  0.93827000000E+00  0.93827000000E+00 0.  1.
     999902    2    1    2    0    0  0.14458609465E-01 -0.26051405867E-01  0.71836194092E-02  0.10132814842E+01  0.10128178684E+01 0.  0.
     999903    2    3    3    0    0 -0.76678717952E-01  0.88708800941E-01  0.22489807470E-01  0.12103140884E+00  0.19847753900E-01 0.  0.
         14    1    1    2    0    0 -0.14458609465E-01  0.26051405867E-01 -0.71836194092E-02  0.30648515839E-01  0.00000000000E+00 0.  1.
     999901    1    3    3    0    0  0.91137327417E-01 -0.11476020681E+00 -0.15306188061E-01  0.89225007532E+00  0.88000000000E+00 0.  1.
        -11    1    4    4    0    0 -0.65628402432E-01  0.63855545513E-01  0.14763071879E-01  0.92751427541E-01  0.51100000000E-03 0.  1.
         11    1    4    4    0    0 -0.11050315520E-01  0.24853255428E-01  0.77267355913E-02  0.28279981300E-01  0.51100000000E-03 0. -1.
</event>
<event>
 7    1  0.1099478E+005  0.1043930E+01  0.7957747E-01            NaN
         13   -1    0    0    0    0  0.00000000000E+00  0.00000000000E+00  0.74505805969E-08  0.10566000000E+00  0.10566000000E+00 0. -1.
     999900   -1    0    0    0    0 -0.00000000000E+00 -0.00000000000E+00 -0.74505805969E-08  0.93827000000E+00  0.93827000000E+00 0.  1.
     999902    2    1    2    0    0  0.21305626886E-01 -0.12706480277E-01 -0.49787726189E-02  0.10186283685E+01  0.10183140874E+01 0.  0.
         14    1    1    2    0    0 -0.21305626886E-01  0.12706480277E-01  0.49787726189E-02  0.25301631466E-01  0.00000000000E+00 0.  1.
     999901    1    3    3    0    0 -0.82275776106E-01 -0.30321910735E-01 -0.70861192787E-01  0.88719221719E+00  0.88000000000E+00 0. -1.
        -11    1    3    3    0    0  0.54784165697E-01 -0.11452736140E-02  0.11487851824E-01  0.55989716228E-01  0.51100000000E-03 0.  1.
         11    1    3    3    0    0  0.48797237296E-01  0.18760704072E-01  0.54394568344E-01  0.75446435113E-01  0.51100000000E-03 0. -1.
</event>
<event>
 8    1  0.1099478E+005  0.1043930E+01  0.7957747E-01            NaN
         13   -1    0    0    0    0  0.00000000000E+00  0.00000000000E+00  0.74505805969E-08  0.10566000000E+00  0.10566000000E+00 0. -1.
     999900   -1    0    0    0    0 -0.00000000000E+00 -0.00000000000E+00 -0.74505805969E-08  0.93827000000E+00  0.93827000000E+00 0.  1.
     999902    2    1    2    0    0  0.88463405075E-02 -0.93544469059E-02 -0.19267296756E-01  0.10207569091E+01  0.10204938390E+01 0.  0.
     999903    2    3    3    0    0  0.67608516350E-01 -0.10844611365E+00  0.26771506291E-01  0.13205464000E+00  0.19754577905E-01 0.  0.
         14    1    1    2    0    0 -0.88463405075E-02  0.93544469059E-02  0.19267296756E-01  0.23173090894E-01  0.00000000000E+00 0. -1.
     999901    1    3    3    0    0 -0.58762175843E-01  0.99091666742E-01 -0.46038803047E-01  0.88870226911E+00  0.88000000000E+00 0.  1.
        -11    1    4    4    0    0  0.54599458565E-01 -0.78437869731E-01  0.12570852076E-01  0.96394438254E-01  0.51100000000E-03 0. -1.
         11    1    4    4    0    0  0.13009057785E-01 -0.30008243917E-01  0.14200654215E-01  0.35660201746E-01  0.51100000000E-03 0.  1.
</event>
<event>
 8    1  0.1099478E+005  0.1043930E+01  0.7957747E-01            NaN
         13   -1    0    0    0    0  0.00000000000E+00  0.00000000000E+00  0.74505805969E-08  0.10566000000E+00  0.10566000000E+00 0. -1.
     999900   -1    0    0    0    0 -0.00000000000E+00 -0.00000000000E+00 -0.74505805969E-08  0.93827000000E+00  0.93827000000E+00 0. -1.
     999902    2    1    2    0    0 -0.13554677174E-01 -0.17937273260E-01  0.11874452968E-01  0.10185040747E+01  0.10181866589E+01 0.  0.
     999903    2    3    3    0    0 -0.94498650753E-01  0.71844706121E-01 -0.44808159529E-01  0.12843348801E+00  0.19893036260E-01 0.  0.
         14    1    1    2    0    0  0.13554677174E-01  0.17937273260E-01 -0.11874452968E-01  0.25425925324E-01  0.00000000000E+00 0.  1.
     999901    1    3    3    0    0  0.80943973578E-01 -0.89781979381E-01  0.56682612496E-01  0.89007058666E+00  0.88000000000E+00 0. -1.
        -11    1    4    4    0    0 -0.25874794097E-01  0.25225844384E-01 -0.52400365260E-02  0.36518040723E-01  0.51100000000E-03 0. -1.
         11    1    4    4    0    0 -0.68623856656E-01  0.46618861738E-01 -0.39568123003E-01  0.91915447292E-01  0.51100000000E-03 0.  1.
</event>
<event>
 8    1  0.1099478E+005  0.1043930E+01  0.7957747E-01            NaN
         13   -1    0    0    0    0  0.00000000000E+00  0.00000000000E+00  0.74505805969E-08  0.10566000000E+00  0.10566000000E+00 0. -1.
     999900   -1    0    0    0    0 -0.00000000000E+00 -0.00000000000E+00 -0.74505805969E-08  0.93827000000E+00  0.93827000000E+00 0.  1.
     999902    2    1    2    0    0 -0.96028175773E-02  0.48737343793E-02 -0.19257654688E-01  0.10218658967E+01  0.10216276651E+01 0.  0.
     999903    2    3    3    0    0 -0.94493101977E-01 -0.90463944712E-01 -0.88091638809E-02  0.13259383233E+00  0.19769961780E-01 0.  0.
         14    1    1    2    0    0  0.96028175773E-02 -0.48737343793E-02  0.19257654688E-01  0.22064103342E-01  0.00000000000E+00 0. -1.
     999901    1    3    3    0    0  0.84890284399E-01  0.95337679091E-01 -0.10448490807E-01  0.88927206433E+00  0.88000000000E+00 0. -1.
        -11    1    4    4    0    0 -0.23288050032E-01 -0.17404064537E-01  0.54437744831E-02  0.29582605334E-01  0.51100000000E-03 0. -1.
         11    1    4    4    0    0 -0.71205051945E-01 -0.73059880174E-01 -0.14252938364E-01  0.10301122699E+00  0.51100000000E-03 0.  1.
</event>
<event>
 8    1  0.1099478E+005  0.1043930E+01  0.7957747E-01            NaN
         13   -1    0    0    0    0  0.00000000000E+00  0.00000000000E+00  0.74505805969E-08  0.10566000000E+00  0.10566000000E+00 0.  1.
     999900   -1    0    0    0    0 -0.00000000000E+00 -0.00000000000E+00 -0.74505805969E-08  0.93827000000E+00  0.93827000000E+00 0. -1.
     999902    2    1    2    0    0  0.29145459140E-02 -0.17027974423E-01  0.12020406413E-01  0.10228839395E+01  0.10226674030E+01 0.  0.
     999903    2    3    3    0    0  0.93353504630E-01  0.84686024675E-01 -0.31120756634E-01  0.13137617018E+00  0.20114596595E-01 0.  0.
         14    1    1    2    0    0 -0.29145459140E-02  0.17027974423E-01 -0.12020406413E-01  0.21046060467E-01  0.00000000000E+00 0. -1.
     999901    1    3    3    0    0 -0.90438958716E-01 -0.10171399910E+00  0.43141163047E-01  0.89150776935E+00  0.88000000000E+00 0.  1.
        -11    1    4    4    0    0  0.42919552891E-01  0.27446907024E-01 -0.17568130999E-01  0.53891753296E-01  0.51100000000E-03 0. -1.
         11    1    4    4    0    0  0.50433951738E-01  0.57239117651E-01 -0.13552625635E-01  0.77484416885E-01  0.51100000000E-03 0.  1.
</event>
<event>
 8    1  0.1099478E+005  0.1043930E+01  0.7957747E-01            NaN
         13   -1    0    0    0    0  0.00000000000E+00  0.00000000000E+00  0.74505805969E-08  0.10566000000E+00  0.10566000000E+00 0.  1.
     999900   -1    0    0    0    0 -0.00000000000E+00 -0.00000000000E+00 -0.74505805969E-08  0.93827000000E+00  0.93827000000E+00 0.  1.
     999902    2    1    2    0    0  0.73674990363E-02  0.20631769620E-01 -0.57542574913E-02  0.10212791404E+01  0.10210279238E+01 0.  0.
     999903    2    3    3    0    0 -0.87807351343E-01  0.96118535841E-01 -0.17500920161E-01  0.13285666880E+00  0.19892419583E-01 0.  0.
         14    1    1    2    0    0 -0.73674990363E-02 -0.20631769620E-01  0.57542574913E-02  0.22650859563E-01  0.00000000000E+00 0. -1.
     999901    1    3    3    0    0  0.95174850379E-01 -0.75486766222E-01  0.11746662669E-01  0.88842247163E+00  0.88000000000E+00 0.  1.
        -11    1    4    4    0    0 -0.73532401445E-01  0.68798267563E-01 -0.16246408542E-01  0.10200207152E+00  0.51100000000E-03 0.  1.
         11    1    4    4    0    0 -0.14274949899E-01  0.27320268278E-01 -0.12545116181E-02  0.30854597288E-01  0.51100000000E-03 0. -1.
</event>
<event>
 8    1  0.1099478E+005  0.1043930E+01  0.7957747E-01            NaN
         13   -1    0    0    0    0  0.00000000000E+00  0.00000000000E+00  0.74505805969E-08  0.10566000000E+00  0.10566000000E+00 0. -1.
     999900   -1    0    0    0    0 -0.00000000000E+00 -0.00000000000E+00 -0.74505805969E-08  0.93827000000E+00  0.93827000000E+00 0.  1.
     999902    2    1    2    0    0 -0.86795528642E-02  0.13077763391E-01 -0.14930217910E-01  0.10222672684E+01  0.10220377166E+01 0.  0.
     999903    2    3    3    0    0  0.12335432213E+00  0.40110163573E-01 -0.13151748572E-01  0.13200502740E+00  0.20669899848E-01 0.  0.
         14    1    1    2    0    0  0.86795528642E-02 -0.13077763391E-01  0.14930217910E-01  0.21662731593E-01  0.00000000000E+00 0. -1.
     999901    1    3    3    0    0 -0.13203387499E+00 -0.27032400183E-01 -0.17784693378E-02  0.89026224100E+00  0.88000000000E+00 0.  1.
        -11    1    4    4    0    0  0.73526811097E-01  0.14992430410E-01 -0.13249678083E-01  0.76202231004E-01  0.51100000000E-03 0. -1.
         11    1    4    4    0    0  0.49827511031E-01  0.25117733163E-01  0.97929510852E-04  0.55802796399E-01  0.51100000000E-03 0.  1.
</event>
<event>
 8    1  0.1099478E+005  0.1043930E+01  0.7957747E-01            NaN
         13   -1    0    0    0    0  0.00000000000E+00  0.00000000000E+00  0.74505805969E-08  0.10566000000E+00  0.10566000000E+00 0.  1.
     999900   -1    0    0    0    0 -0.00000000000E+00 -0.00000000000E+00 -0.74505805969E-08  0.93827000000E+00  0.93827000000E+00 0. -1.
     999902    2    1    2    0    0 -0.10102523039E-01 -0.16932729309E-01 -0.10873476504E-01  0.10214131000E+01  0.10211648790E+01 0.  0.
     999903    2    3    3    0    0 -0.45035026749E-01  0.11760889198E+00  0.17436642525E-01  0.13005279660E+00  0.27380436324E-01 0.  0.
         14    1    1    2    0    0  0.10102523039E-01  0.16932729309E-01  0.10873476504E-01  0.22516899984E-01  0.00000000000E+00 0.  1.
     999901    1    3    3    0    0  0.34932503709E-01 -0.13454162129E+00 -0.28310119029E-01  0.89136030342E+00  0.88000000000E+00 0.  1.
        -11    1    4    4    0    0 -0.26541934875E-01  0.93486948883E-01  0.53229384443E-02  0.97328714741E-01  0.51100000000E-03 0. -1.
         11    1    4    4    0    0 -0.18493091873E-01  0.24121943095E-01  0.12113704080E-01  0.32724081855E-01  0.51100000000E-03 0.  1.
</event>
<event>
 8    1  0.1099478E+005  0.1043930E+01  0.7957747E-01            NaN
         13   -1    0    0    0    0  0.00000000000E+00  0.00000000000E+00  0.74505805969E-08  0.10566000000E+00  0.10566000000E+00 0.  1.
     999900   -1    0    0    0    0 -0.00000000000E+00 -0.00000000000E+00 -0.74505805969E-08  0.93827000000E+00  0.93827000000E+00 0.  1.
     999902    2    1    2    0    0  0.81884893681E-02  0.41002048012E-02 -0.21675765569E-01  0.10203991298E+01  0.10201277775E+01 0.  0.
     999903    2    3    3    0    0  0.11847906992E+00  0.13126954442E-01 -0.55199200980E-01  0.13283543348E+00  0.19715315327E-01 0.  0.
         14    1    1    2    0    0 -0.81884893681E-02 -0.41002048012E-02  0.21675765569E-01  0.23530870161E-01  0.00000000000E+00 0.  1.
     999901    1    3    3    0    0 -0.11029058055E+00 -0.90267496413E-02  0.33523435411E-01  0.88756369636E+00  0.88000000000E+00 0.  1.
        -11    1    4    4    0    0  0.72893986222E-01  0.16891265988E-01 -0.38400040066E-01  0.84105126431E-01  0.51100000000E-03 0.  1.
         11    1    4    4    0    0  0.45585083696E-01 -0.37643115456E-02 -0.16799160914E-01  0.48730307052E-01  0.51100000000E-03 0. -1.
</event>
<event>
 8    1  0.1099478E+005  0.1043930E+01  0.7957747E-01            NaN
         13   -1    0    0    0    0  0.00000000000E+00  0.00000000000E+00  0.74505805969E-08  0.10566000000E+00  0.10566000000E+00 0. -1.
     999900   -1    0    0    0    0 -0.00000000000E+00 -0.00000000000E+00 -0.74505805969E-08  0.93827000000E+00  0.93827000000E+00 0.  1.
     999902    2    1    2    0    0  0.17504191249E-01 -0.10501769312E-01  0.11172762474E-01  0.10206595361E+01  0.10203942248E+01 0.  0.
     999903    2    3    3    0    0  0.78352953072E-01 -0.22124440154E-01  0.10407098240E+00  0.13360387967E+00  0.19762367743E-01 0.  0.
         14    1    1    2    0    0 -0.17504191249E-01  0.10501769312E-01 -0.11172762474E-01  0.23270463925E-01  0.00000000000E+00 0.  1.
     999901    1    3    3    0    0 -0.60848761823E-01  0.11622670842E-01 -0.92898219924E-01  0.88705565640E+00  0.88000000000E+00 0. -1.
        -11    1    4    4    0    0  0.46804227245E-01 -0.20273954341E-01  0.53120435699E-01  0.73645846607E-01  0.51100000000E-03 0.  1.
         11    1    4    4    0    0  0.31548725827E-01 -0.18504858129E-02  0.50950546699E-01  0.59958033064E-01  0.51100000000E-03 0. -1.
</event>
<event>
 8    1  0.1099478E+005  0.1043930E+01  0.7957747E-01            NaN
         13   -1    0    0    0    0  0.00000000000E+00  0.00000000000E+00  0.74505805969E-08  0.10566000000E+00  0.10566000000E+00 0. -1.
     999900   -1    0    0    0    0 -0.00000000000E+00 -0.00000000000E+00 -0.74505805969E-08  0.93827000000E+00  0.93827000000E+00 0. -1.
     999902    2    1    2    0    0  0.78315333220E-02 -0.26278628476E-02 -0.23174550123E-01  0.10193271882E+01  0.10190302342E+01 0.  0.
     999903    2    3    3    0    0 -0.10057371829E+00  0.51757820574E-01 -0.60923367318E-01  0.13020713195E+00  0.21172995160E-01 0.  0.
         14    1    1    2    0    0 -0.78315333220E-02  0.26278628476E-02  0.23174550123E-01  0.24602811846E-01  0.00000000000E+00 0. -1.
     999901    1    3    3    0    0  0.10840525162E+00 -0.54385683421E-01  0.37748817195E-01  0.88912005620E+00  0.88000000000E+00 0. -1.
        -11    1    4    4    0    0 -0.62462401392E-01  0.20385832224E-01 -0.35230799699E-01  0.74556046780E-01  0.51100000000E-03 0. -1.
         11    1    4    4    0    0 -0.38111316903E-01  0.31371988349E-01 -0.25692567619E-01  0.55651085173E-01  0.51100000000E-03 0.  1.
</event>
<event>
 8    1  0.1099478E+005  0.1043930E+01  0.7957747E-01            NaN
         13   -1    0    0    0    0  0.00000000000E+00  0.00000000000E+00  0.74505805969E-08  0.10566000000E+00  0.10566000000E+00 0. -1.
     999900   -1    0    0    0    0 -0.00000000000E+00 -0.00000000000E+00 -0.74505805969E-08  0.93827000000E+00  0.93827000000E+00 0. -1.
     999902    2    1    2    0    0 -0.15761367588E-01  0.15324234949E-01  0.62591128556E-02  0.10210732859E+01  0.10208174302E+01 0.  0.
     999903    2    3    3    0    0  0.36528352364E-01  0.10392141952E+00 -0.69667444861E-01  0.13183286955E+00  0.19808348241E-01 0.  0.
         14    1    1    2    0    0  0.15761367588E-01 -0.15324234949E-01 -0.62591128556E-02  0.22856714085E-01  0.00000000000E+00 0.  1.
     999901    1    3    3    0    0 -0.52289719952E-01 -0.88597184569E-01  0.75926557717E-01  0.88924041636E+00  0.88000000000E+00 0.  1.
        -11    1    4    4    0    0  0.24944752069E-01  0.64165944347E-01 -0.54222020295E-01  0.87634454843E-01  0.51100000000E-03 0.  1.
         11    1    4    4    0    0  0.11583600295E-01  0.39755475170E-01 -0.15445424566E-01  0.44198414709E-01  0.51100000000E-03 0. -1.
</event>
<event>
 8    1  0.1099478E+005  0.1043930E+01  0.7957747E-01            NaN
         13   -1    0    0    0    0  0.00000000000E+00  0.00000000000E+00  0.74505805969E-08  0.10566000000E+00  0.10566000000E+00 0.  1.
     999900   -1    0    0    0    0 -0.00000000000E+00 -0.00000000000E+00 -0.74505805969E-08  0.93827000000E+00  0.93827000000E+00 0. -1.
     999902    2    1    2    0    0  0.63572516121E-03 -0.79374360637E-02 -0.29824580933E-01  0.10130607165E+01  0.10125902936E+01 0.  0.
     999903    2    3    3    0    0 -0.55499611421E-01 -0.69425994365E-01 -0.89378236342E-01  0.12712693978E+00  0.16511030373E-01 0.  0.
         14    1    1    2    0    0 -0.63572516121E-03  0.79374360637E-02  0.29824580933E-01  0.30869283528E-01  0.00000000000E+00 0.  1.
     999901    1    3    3    0    0  0.56135336582E-01  0.61488558302E-01  0.59553655410E-01  0.88593377669E+00  0.88000000000E+00 0.  1.
        -11    1    4    4    0    0 -0.44394391323E-01 -0.55735904791E-01 -0.61436593359E-01  0.94085435581E-01  0.51100000000E-03 0. -1.
         11    1    4    4    0    0 -0.11105220098E-01 -0.13690089574E-01 -0.27941642983E-01  0.33041504197E-01  0.51100000000E-03 0.  1.
</event>
<event>
 8    1  0.1099478E+005  0.1043930E+01  0.7957747E-01            NaN
         13   -1    0    0    0    0  0.00000000000E+00  0.00000000000E+00  0.74505805969E-08  0.10566000000E+00  0.10566000000E+00 0.  1.
     999900   -1    0    0    0    0 -0.00000000000E+00 -0.00000000000E+00 -0.74505805969E-08  0.93827000000E+00  0.93827000000E+00 0. -1.
     999902    2    1    2    0    0  0.10391927584E-01 -0.17351787532E-01  0.97343715290E-02  0.10214837380E+01  0.10212370892E+01 0.  0.
     999903    2    3    3    0    0  0.51528584226E-01 -0.10786206517E+00  0.58361622874E-01  0.13455141562E+00  0.20213468918E-01 0.  0.
         14    1    1    2    0    0 -0.10391927584E-01  0.17351787532E-01 -0.97343715290E-02  0.22446262017E-01  0.00000000000E+00 0.  1.
     999901    1    3    3    0    0 -0.41136656642E-01  0.90510277639E-01 -0.48627251345E-01  0.88693232236E+00  0.88000000000E+00 0. -1.
        -11    1    4    4    0    0  0.48682286718E-01 -0.83283252924E-01  0.45514928093E-01  0.10666740392E+00  0.51100000000E-03 0.  1.
         11    1    4    4    0    0  0.28462975076E-02 -0.24578812247E-01  0.12846694781E-01  0.27884011705E-01  0.51100000000E-03 0. -1.
</event>
<event>
 8    1  0.1099478E+005  0.1043930E+01  0.7957747E-01            NaN
         13   -1    0    0    0    0  0.00000000000E+00  0.00000000000E+00  0.74505805969E-08  0.10566000000E+00  0.10566000000E+00 0. -1.
     999900   -1    0    0    0    0 -0.00000000000E+00 -0.00000000000E+00 -0.74505805969E-08  0.93827000000E+00  0.93827000000E+00 0. -1.
     999902    2    1    2    0    0  0.17413817626E-03 -0.12377904249E-01 -0.20120324327E-01  0.10203064886E+01  0.10200329703E+01 0.  0.
     999903    2    3    3    0    0 -0.11728978415E+00  0.88111099801E-02 -0.55406948153E-01  0.13154786383E+00  0.20009533964E-01 0.  0.
         14    1    1    2    0    0 -0.17413817626E-03  0.12377904249E-01  0.20120324327E-01  0.23623511354E-01  0.00000000000E+00 0.  1.
     999901    1    3    3    0    0  0.11746392232E+00 -0.21189014229E-01  0.35286623826E-01  0.88875862482E+00  0.88000000000E+00 0.  1.
        -11    1    4    4    0    0 -0.19735181964E-02  0.22322671726E-02 -0.42639833212E-02  0.52268982738E-02  0.51100000000E-03 0. -1.
         11    1    4    4    0    0 -0.11531626595E+00  0.65788428075E-02 -0.51142964832E-01  0.12632096555E+00  0.51100000000E-03 0.  1.
</event>
<event>
 8    1  0.1099478E+005  0.1043930E+01  0.7957747E-01            NaN
         13   -1    0    0    0    0  0.00000000000E+00  0.00000000000E+00  0.74505805969E-08  0.10566000000E+00  0.10566000000E+00 0.  1.
     999900   -1    0    0    0    0 -0.00000000000E+00 -0.00000000000E+00 -0.74505805969E-08  0.93827000000E+00  0.93827000000E+00 0. -1.
     999902    2    1    2    0    0  0.11087122302E-01 -0.16094234754E-01  0.12706127297E-01  0.10206191797E+01  0.10203529368E+01 0.  0.
     999903    2    3    3    0    0  0.10974436684E+00  0.29207415637E-02 -0.68997770783E-01  0.13114160931E+00  0.19623265123E-01 0.  0.
         14    1    1    2    0    0 -0.11087122302E-01  0.16094234754E-01 -0.12706127297E-01  0.23310820323E-01  0.00000000000E+00 0. -1.
     999901    1    3    3    0    0 -0.98657244541E-01 -0.19014976317E-01  0.81703898080E-01  0.88947757037E+00  0.88000000000E+00 0.  1.
        -11    1    4    4    0    0  0.55796708709E-01  0.95056943647E-02 -0.28573432228E-01  0.63406096539E-01  0.51100000000E-03 0. -1.
         11    1    4    4    0    0  0.53947658135E-01 -0.65849528010E-02 -0.40424338555E-01  0.67735512770E-01  0.51100000000E-03 0.  1.
</event>
<event>
 8    1  0.1099478E+005  0.1043930E+01  0.7957747E-01            NaN
         13   -1    0    0    0    0  0.00000000000E+00  0.00000000000E+00  0.74505805969E-08  0.10566000000E+00  0.10566000000E+00 0.  1.
     999900   -1    0    0    0    0 -0.00000000000E+00 -0.00000000000E+00 -0.74505805969E-08  0.93827000000E+00  0.93827000000E+00 0.  1.
     999902    2    1    2    0    0 -0.97708029628E-02 -0.45561786936E-02  0.20804684158E-01  0.10204979229E+01  0.10202288706E+01 0.  0.
     999903    2    3    3    0    0  0.97835439091E-02 -0.20898820898E-01 -0.12376169710E+00  0.12833824378E+00  0.24925262321E-01 0.  0.
         14    1    1    2    0    0  0.97708029628E-02  0.45561786936E-02 -0.20804684158E-01  0.23432077111E-01  0.00000000000E+00 0. -1.
     999901    1    3    3    0    0 -0.19554346872E-01  0.16342642205E-01  0.14456638126E+00  0.89215967911E+00  0.88000000000E+00 0. -1.
        -11    1    4    4    0    0  0.10323867847E-01 -0.67677642500E-02 -0.99400766888E-01  0.10016565509E+00  0.51100000000E-03 0.  1.
         11    1    4    4    0    0 -0.54032393819E-03 -0.14131056648E-01 -0.24360930211E-01  0.28172588693E-01  0.51100000000E-03 0. -1.
</event>
<event>
 8    1  0.1099478E+005  0.1043930E+01  0.7957747E-01            NaN
         13   -1    0    0    0    0  0.00000000000E+00  0.00000000000E+00  0.74505805969E-08  0.10566000000E+00  0.10566000000E+00 0. -1.
     999900   -1    0    0    0    0 -0.00000000000E+00 -0.00000000000E+00 -0.74505805969E-08  0.93827000000E+00  0.93827000000E+00 0. -1.
     999902    2    1    2    0    0  0.13240669860E-01 -0.26060468140E-01  0.22718188774E-02  0.10146106463E+01  0.10141869350E+01 0.  0.
     999903    2    3    3    0    0 -0.82728599584E-01 -0.72938958803E-01 -0.57849858998E-01  0.12611624022E+00  0.19864213035E-01 0.  0.
         14    1    1    2    0    0 -0.13240669860E-01  0.26060468140E-01 -0.22718188774E-02  0.29319353660E-01  0.00000000000E+00 0.  1.
     999901    1    3    3    0    0  0.95969269443E-01  0.46878490663E-01  0.60121677876E-01  0.88849440612E+00  0.88000000000E+00 0.  1.
        -11    1    4    4    0    0 -0.46263372716E-01 -0.42339894376E-01 -0.43746761795E-01  0.76465721728E-01  0.51100000000E-03 0.  1.
         11    1    4    4    0    0 -0.36465226868E-01 -0.30599064428E-01 -0.14103097204E-01  0.49650518488E-01  0.51100000000E-03 0. -1.
</event>
<event>
 8    1  0.1099478E+005  0.1043930E+01  0.7957747E-01            NaN
         13   -1    0    0    0    0  0.00000000000E+00  0.00000000000E+00  0.74505805969E-08  0.10566000000E+00  0.10566000000E+00 0. -1.
     999900   -1    0    0    0    0 -0.00000000000E+00 -0.00000000000E+00 -0.74505805969E-08  0.93827000000E+00  0.93827000000E+00 0. -1.
     999902    2    1    2    0    0 -0.32671804432E-03 -0.17311445474E-01  0.15971824148E-01  0.10203738531E+01  0.10201019106E+01 0.  0.
     999903    2    3    3    0    0 -0.77068291824E-01 -0.65482538574E-01  0.84346910435E-01  0.13308310270E+00  0.19215266384E-01 0.  0.
         14    1    1    2    0    0  0.32671804432E-03  0.17311445474E-01 -0.15971824148E-01  0.23556146877E-01  0.00000000000E+00 0.  1.
     999901    1    3    3    0    0  0.76741573780E-01  0.48171093100E-01 -0.68375086287E-01  0.88729075042E+00  0.88000000000E+00 0. -1.
        -11    1    4    4    0    0 -0.28822664659E-01 -0.36785635276E-01  0.40724217451E-01  0.61989127827E-01  0.51100000000E-03 0. -1.
         11    1    4    4    0    0 -0.48245627165E-01 -0.28696903297E-01  0.43622692984E-01  0.71093974875E-01  0.51100000000E-03 0.  1.
</event>
<event>
 8    1  0.1099478E+005  0.1043930E+01  0.7957747E-01            NaN
         13   -1    0    0    0    0  0.00000000000E+00  0.00000000000E+00  0.74505805969E-08  0.10566000000E+00  0.10566000000E+00 0. -1.
     999900   -1    0    0    0    0 -0.00000000000E+00 -0.00000000000E+00 -0.74505805969E-08  0.93827000000E+00  0.93827000000E+00 0.  1.
     999902    2    1    2    0    0  0.11669382027E-01 -0.19064909135E-01  0.92471999987E-02  0.10197400032E+01  0.10194530485E+01 0.  0.
     999903    2    3    3    0    0 -0.23000310623E-01  0.10847365197E+00  0.62816458835E-01  0.12825935975E+00  0.14457122948E-01 0.  0.
         14    1    1    2    0    0 -0.11669382027E-01  0.19064909135E-01 -0.92471999987E-02  0.24189996797E-01  0.00000000000E+00 0.  1.
     999901    1    3    3    0    0  0.34669692650E-01 -0.12753856110E+00 -0.53569258836E-01  0.89148064345E+00  0.88000000000E+00 0.  1.
        -11    1    4    4    0    0 -0.65489584909E-03  0.26563528374E-01  0.10797549572E-01  0.28686200968E-01  0.51100000000E-03 0. -1.
         11    1    4    4    0    0 -0.22345414774E-01  0.81910123591E-01  0.52018909263E-01  0.99573158783E-01  0.51100000000E-03 0.  1.
</event>
<event>
 8    1  0.1099478E+005  0.1043930E+01  0.7957747E-01            NaN
         13   -1    0    0    0    0  0.00000000000E+00  0.00000000000E+00  0.74505805969E-08  0.10566000000E+00  0.10566000000E+00 0. -1.
     999900   -1    0    0    0    0 -0.00000000000E+00 -0.00000000000E+00 -0.74505805969E-08  0.93827000000E+00  0.93827000000E+00 0. -1.
     999902    2    1    2    0    0  0.18085313240E-01 -0.22533346033E-02 -0.14678277895E-01  0.10205289762E+01  0.10202606448E+01 0.  0.
     999903    2    3    3    0    0  0.52097886731E-01 -0.97745634395E-01 -0.70868386125E-01  0.13292942533E+00  0.19480891220E-01 0.  0.
         14    1    1    2    0    0 -0.18085313240E-01  0.22533346033E-02  0.14678277895E-01  0.23401023776E-01  0.00000000000E+00 0. -1.
     999901    1    3    3    0    0 -0.34012573491E-01  0.95492299792E-01  0.56190108230E-01  0.88759955089E+00  0.88000000000E+00 0. -1.
        -11    1    4    4    0    0  0.23365063695E-01 -0.58961841809E-01 -0.32492910293E-01  0.71263422113E-01  0.51100000000E-03 0.  1.
         11    1    4    4    0    0  0.28732823037E-01 -0.38783792586E-01 -0.38375475832E-01  0.61666003221E-01  0.51100000000E-03 0. -1.
</event>
<event>
 8    1  0.1099478E+005  0.1043930E+01  0.7957747E-01            NaN
         13   -1    0    0    0    0  0.00000000000E+00  0.00000000000E+00  0.74505805969E-08  0.10566000000E+00  0.10566000000E+00 0.  1.
     999900   -1    0    0    0    0 -0.00000000000E+00 -0.00000000000E+00 -0.74505805969E-08  0.93827000000E+00  0.93827000000E+00 0.  1.
     999902    2    1    2    0    0 -0.91533032682E-02 -0.62660021437E-03 -0.21486581488E-01  0.10205665933E+01  0.10202991339E+01 0.  0.
     999903    2    3    3    0    0 -0.50345820825E-01 -0.84894480794E-01  0.81403078178E-01  0.12962092646E+00  0.20817033771E-01 0.  0.
         14    1    1    2    0    0  0.91533032682E-02  0.62660021437E-03  0.21486581488E-01  0.23363406699E-01  0.00000000000E+00 0.  1.
     999901    1    3    3    0    0  0.41192517557E-01  0.84267880580E-01 -0.10288965967E+00  0.89094566684E+00  0.88000000000E+00 0.  1.
        -11    1    4    4    0    0 -0.12443122026E-01 -0.18899119444E-01  0.30818602003E-01  0.38236832399E-01  0.51100000000E-03 0. -1.
         11    1    4    4    0    0 -0.37902698799E-01 -0.65995361350E-01  0.50584476175E-01  0.91384094058E-01  0.51100000000E-03 0.  1.
</event>
<event>
 8    1  0.1099478E+005  0.1043930E+01  0.7957747E-01            NaN
         13   -1    0    0    0    0  0.00000000000E+00  0.00000000000E+00  0.74505805969E-08  0.10566000000E+00  0.10566000000E+00 0.  1.
     999900   -1    0    0    0    0 -0.00000000000E+00 -0.00000000000E+00 -0.74505805969E-08  0.93827000000E+00  0.93827000000E+00 0.  1.
     999902    2    1    2    0    0  0.14133613718E-02 -0.17897588488E-01 -0.15348956956E-01  0.10203098445E+01  0.10200364048E+01 0.  0.
     999903    2    3    3    0    0  0.67144648638E-03  0.12088518095E+00 -0.40788058594E-01  0.12907005895E+00  0.19538080232E-01 0.  0.
         14    1    1    2    0    0 -0.14133613718E-02  0.17897588488E-01  0.15348956956E-01  0.23620155455E-01  0.00000000000E+00 0. -1.
     999901    1    3    3    0    0  0.74191488540E-03 -0.13878276944E+00  0.25439101637E-01  0.89123978559E+00  0.88000000000E+00 0. -1.
        -11    1    4    4    0    0  0.56508824351E-02  0.39782287638E-01 -0.21416853003E-01  0.45535761721E-01  0.51100000000E-03 0. -1.
         11    1    4    4    0    0 -0.49794359487E-02  0.81102893317E-01 -0.19371205590E-01  0.83534297231E-01  0.51100000000E-03 0.  1.
</event>
<event>
 8    1  0.1099478E+005  0.1043930E+01  0.7957747E-01            NaN
         13   -1    0    0    0    0  0.00000000000E+00  0.00000000000E+00  0.74505805969E-08  0.10566000000E+00  0.10566000000E+00 0.  1.
     999900   -1    0    0    0    0 -0.00000000000E+00 -0.00000000000E+00 -0.74505805969E-08  0.93827000000E+00  0.93827000000E+00 0.  1.
     999902    2    1    2    0    0  0.19561841627E-01  0.87775457045E-02  0.15472460308E-01  0.10174893498E+01  0.10171457462E+01 0.  0.
     999903    2    3    3    0    0 -0.11517293330E+00 -0.42081225144E-01  0.19830427293E-01  0.12577242943E+00  0.19743963262E-01 0.  0.
         14    1    1    2    0    0 -0.19561841627E-01 -0.87775457045E-02 -0.15472460308E-01  0.26440650227E-01  0.00000000000E+00 0.  1.
     999901    1    3    3    0    0  0.13473477492E+00  0.50858770848E-01 -0.43579669854E-02  0.89171692034E+00  0.88000000000E+00 0.  1.
        -11    1    4    4    0    0 -0.14526929332E-01 -0.12014559863E-01 -0.86048387327E-04  0.18858681021E-01  0.51100000000E-03 0.  1.
         11    1    4    4    0    0 -0.10064600396E+00 -0.30066665280E-01  0.19916475680E-01  0.10691374841E+00  0.51100000000E-03 0. -1.
</event>
<event>
 8    1  0.1099478E+005  0.1043930E+01  0.7957747E-01            NaN
         13   -1    0    0    0    0  0.00000000000E+00  0.00000000000E+00  0.74505805969E-08  0.10566000000E+00  0.10566000000E+00 0.  1.
     999900   -1    0    0    0    0 -0.00000000000E+00 -0.00000000000E+00 -0.74505805969E-08  0.93827000000E+00  0.93827000000E+00 0.  1.
     999902    2    1    2    0    0  0.10412701656E-01 -0.20883052491E-01 -0.26834450455E-02  0.10204411279E+01  0.10201707545E+01 0.  0.
     999903    2    3    3    0    0 -0.10034457160E+00  0.76315539264E-01 -0.12202345446E-01  0.12813773255E+00  0.19423868958E-01 0.  0.
         14    1    1    2    0    0 -0.10412701656E-01  0.20883052491E-01  0.26834450455E-02  0.23488872140E-01  0.00000000000E+00 0.  1.
     999901    1    3    3    0    0  0.11075727326E+00 -0.97198591755E-01  0.95189004002E-02  0.89230339531E+00  0.88000000000E+00 0. -1.
        -11    1    4    4    0    0 -0.73752903881E-01  0.45034109855E-01 -0.61613769589E-02  0.86635936933E-01  0.51100000000E-03 0. -1.
         11    1    4    4    0    0 -0.26591667721E-01  0.31281429409E-01 -0.60409684868E-02  0.41501795616E-01  0.51100000000E-03 0.  1.
</event>
<event>
 8    1  0.1099478E+005  0.1043930E+01  0.7957747E-01            NaN
         13   -1    0    0    0    0  0.00000000000E+00  0.00000000000E+00  0.74505805969E-08  0.10566000000E+00  0.10566000000E+00 0.  1.
     999900   -1    0    0    0    0 -0.00000000000E+00 -0.00000000000E+00 -0.74505805969E-08  0.93827000000E+00  0.93827000000E+00 0.  1.
     999902    2    1    2    0    0  0.19464527259E-01  0.62011522800E-02  0.10591411407E-01  0.10209191307E+01  0.10206597725E+01 0.  0.
     999903    2    3    3    0    0  0.36555554591E-01 -0.11595262594E+00 -0.43582209145E-01  0.13066723941E+00  0.19829232693E-01 0.  0.
         14    1    1    2    0    0 -0.19464527259E-01 -0.62011522800E-02 -0.10591411407E-01  0.23010869314E-01  0.00000000000E+00 0. -1.
     999901    1    3    3    0    0 -0.17091027332E-01  0.12215377822E+00  0.54173620551E-01  0.89025189127E+00  0.88000000000E+00 0. -1.
        -11    1    4    4    0    0  0.53673372118E-02 -0.34265860155E-01 -0.48189527588E-02  0.35020578344E-01  0.51100000000E-03 0. -1.
         11    1    4    4    0    0  0.31188217379E-01 -0.81686765783E-01 -0.38763256386E-01  0.95646661071E-01  0.51100000000E-03 0.  1.
</event>
<event>
 8    1  0.1099478E+005  0.1043930E+01  0.7957747E-01            NaN
         13   -1    0    0    0    0  0.00000000000E+00  0.00000000000E+00  0.74505805969E-08  0.10566000000E+00  0.10566000000E+00 0. -1.
     999900   -1    0    0    0    0 -0.00000000000E+00 -0.00000000000E+00 -0.74505805969E-08  0.93827000000E+00  0.93827000000E+00 0.  1.
     999902    2    1    2    0    0 -0.20422923891E-01 -0.11156792422E-01  0.35985914103E-02  0.10203817581E+01  0.10201100002E+01 0.  0.
     999903    2    3    3    0    0  0.70933302367E-01 -0.50958253897E-02  0.10663861581E+00  0.12965175296E+00  0.19500816448E-01 0.  0.
         14    1    1    2    0    0  0.20422923891E-01  0.11156792422E-01 -0.35985914103E-02  0.23548241921E-01  0.00000000000E+00 0.  1.
     999901    1    3    3    0    0 -0.91356226258E-01 -0.60609670326E-02 -0.10304002440E+00  0.89073000512E+00  0.88000000000E+00 0.  1.
        -11    1    4    4    0    0  0.63240839632E-01  0.46948314674E-03  0.98897159017E-01  0.11739051663E+00  0.51100000000E-03 0.  1.
         11    1    4    4    0    0  0.76924627348E-02 -0.55653085365E-02  0.77414567920E-02  0.12261236328E-01  0.51100000000E-03 0. -1.
</event>
<event>
 8    1  0.1099478E+005  0.1043930E+01  0.7957747E-01            NaN
         13   -1    0    0    0    0  0.00000000000E+00  0.00000000000E+00  0.74505805969E-08  0.10566000000E+00  0.10566000000E+00 0. -1.
     999900   -1    0    0    0    0 -0.00000000000E+00 -0.00000000000E+00 -0.74505805969E-08  0.93827000000E+00  0.93827000000E+00 0.  1.
     999902    2    1    2    0    0  0.89388525383E-02  0.25551264346E-01  0.86217151145E-02  0.10155204212E+01  0.10151229589E+01 0.  0.
     999903    2    3    3    0    0  0.10700989365E+00  0.38538686662E-01 -0.54416503180E-01  0.12773642768E+00  0.20471722678E-01 0.  0.
         14    1    1    2    0    0 -0.89388525383E-02 -0.25551264346E-01 -0.86217151145E-02  0.28409578770E-01  0.00000000000E+00 0.  1.
     999901    1    3    3    0    0 -0.98071041109E-01 -0.12987422317E-01  0.63038218295E-01  0.88778399355E+00  0.88000000000E+00 0.  1.
        -11    1    4    4    0    0  0.88628615686E-01  0.23213804386E-01 -0.43785046738E-01  0.10154458957E+00  0.51100000000E-03 0. -1.
         11    1    4    4    0    0  0.18381277961E-01  0.15324882276E-01 -0.10631456442E-01  0.26191838105E-01  0.51100000000E-03 0.  1.
</event>
<event>
 8    1  0.1099478E+005  0.1043930E+01  0.7957747E-01            NaN
         13   -1    0    0    0    0  0.00000000000E+00  0.00000000000E+00  0.74505805969E-08  0.10566000000E+00  0.10566000000E+00 0. -1.
     999900   -1    0    0    0    0 -0.00000000000E+00 -0.00000000000E+00 -0.74505805969E-08  0.93827000000E+00  0.93827000000E+00 0.  1.
     999902    2    1    2    0    0  0.34487353705E-02 -0.12537590442E-01  0.20302984033E-01  0.10198199168E+01  0.10195348776E+01 0.  0.
     999903    2    3    3    0    0  0.24979179157E-01  0.10936937069E+00  0.61946822242E-01  0.13018005911E+00  0.22887122345E-01 0.  0.
         14    1    1    2    0    0 -0.34487353705E-02  0.12537590442E-01 -0.20302984033E-01  0.24110083169E-01  0.00000000000E+00 0.  1.
     999901    1    3    3    0    0 -0.21530443786E-01 -0.12190696113E+00 -0.41643838209E-01  0.88963985772E+00  0.88000000000E+00 0.  1.
        -11    1    4    4    0    0 -0.36618874912E-02  0.16395650806E-01  0.54002884124E-02  0.17653640454E-01  0.51100000000E-03 0.  1.
         11    1    4    4    0    0  0.28641066648E-01  0.92973719880E-01  0.56546533830E-01  0.11252641866E+00  0.51100000000E-03 0. -1.
</event>
<event>
 8    1  0.1099478E+005  0.1043930E+01  0.7957747E-01            NaN
         13   -1    0    0    0    0  0.00000000000E+00  0.00000000000E+00  0.74505805969E-08  0.10566000000E+00  0.10566000000E+00 0.  1.
     999900   -1    0    0    0    0 -0.00000000000E+00 -0.00000000000E+00 -0.74505805969E-08  0.93827000000E+00  0.93827000000E+00 0. -1.
     999902    2    1    2    0    0 -0.36385865196E-02  0.21838738836E-01  0.10916235917E-01  0.10192453077E+01  0.10189463496E+01 0.  0.
     999903    2    3    3    0    0  0.10469812554E+00 -0.32116155942E-01 -0.63141256606E-01  0.12787979008E+00  0.19320389805E-01 0.  0.
         14    1    1    2    0    0  0.36385865196E-02 -0.21838738836E-01 -0.10916235917E-01  0.24684692269E-01  0.00000000000E+00 0. -1.
     999901    1    3    3    0    0 -0.10833671206E+00  0.53954894778E-01  0.74057492523E-01  0.89136551765E+00  0.88000000000E+00 0.  1.
        -11    1    4    4    0    0  0.64743659595E-01 -0.25353935693E-01 -0.48558181350E-01  0.84809914573E-01  0.51100000000E-03 0. -1.
         11    1    4    4    0    0  0.39954465946E-01 -0.67622202493E-02 -0.14583075256E-01  0.43069875512E-01  0.51100000000E-03 0.  1.
</event>
<event>
 8    1  0.1099478E+005  0.1043930E+01  0.7957747E-01            NaN
         13   -1    0    0    0    0  0.00000000000E+00  0.00000000000E+00  0.74505805969E-08  0.10566000000E+00  0.10566000000E+00 0.  1.
     999900   -1    0    0    0    0 -0.00000000000E+00 -0.00000000000E+00 -0.74505805969E-08  0.93827000000E+00  0.93827000000E+00 0. -1.
     999902    2    1    2    0    0  0.74465552355E-02  0.11381722523E-01 -0.18976277962E-01  0.10205827535E+01  0.10203156683E+01 0.  0.
     999903    2    3    3    0    0 -0.44417694038E-01  0.33373787412E-02  0.11902510650E+00  0.12828291943E+00  0.17477465448E-01 0.  0.
         14    1    1    2    0    0 -0.74465552355E-02 -0.11381722523E-01  0.18976277962E-01  0.23347246470E-01  0.00000000000E+00 0.  1.
     999901    1    3    3    0    0  0.51864249273E-01  0.80443437818E-02 -0.13800138447E+00  0.89229983410E+00  0.88000000000E+00 0. -1.
        -11    1    4    4    0    0 -0.22215883588E-01 -0.36118650103E-03  0.36427312624E-01  0.42671842769E-01  0.51100000000E-03 0. -1.
         11    1    4    4    0    0 -0.22201810450E-01  0.36985652422E-02  0.82597793881E-01  0.85611076661E-01  0.51100000000E-03 0.  1.
</event>
<event>
 8    1  0.1099478E+005  0.1043930E+01  0.7957747E-01            NaN
         13   -1    0    0    0    0  0.00000000000E+00  0.00000000000E+00  0.74505805969E-08  0.10566000000E+00  0.10566000000E+00 0. -1.
     999900   -1    0    0    0    0 -0.00000000000E+00 -0.00000000000E+00 -0.74505805969E-08  0.93827000000E+00  0.93827000000E+00 0. -1.
     999902    2    1    2    0    0 -0.21162705705E-01 -0.56536630857E-02 -0.76197476900E-02  0.10207376613E+01  0.10204741489E+01 0.  0.
     999903    2    3    3    0    0  0.49050002459E-01 -0.11747918464E+00 -0.22317264388E-01  0.13076530856E+00  0.19855580286E-01 0.  0.
         14    1    1    2    0    0  0.21162705705E-01  0.56536630857E-02  0.76197476900E-02  0.23192338690E-01  0.00000000000E+00 0.  1.
     999901    1    3    3    0    0 -0.70212708165E-01  0.11182552155E+00  0.14697516698E-01  0.88997235275E+00  0.88000000000E+00 0.  1.
        -11    1    4    4    0    0  0.83090417550E-02 -0.40122641233E-01 -0.12179276668E-01  0.42748829406E-01  0.51100000000E-03 0.  1.
         11    1    4    4    0    0  0.40740960704E-01 -0.77356543407E-01 -0.10137987720E-01  0.88016479156E-01  0.51100000000E-03 0. -1.
</event>
<event>
 8    1  0.1099478E+005  0.1043930E+01  0.7957747E-01            NaN
         13   -1    0    0    0    0  0.00000000000E+00  0.00000000000E+00  0.74505805969E-08  0.10566000000E+00  0.10566000000E+00 0. -1.
     999900   -1    0    0    0    0 -0.00000000000E+00 -0.00000000000E+00 -0.74505805969E-08  0.93827000000E+00  0.93827000000E+00 0. -1.
     999902    2    1    2    0    0  0.41279496572E-02 -0.20017845329E-01  0.11156824692E-01  0.10206441924E+01  0.10203785271E+01 0.  0.
     999903    2    3    3    0    0 -0.10824310323E+00 -0.71316290082E-01  0.14496653981E-01  0.13201044418E+00  0.20347524856E-01 0.  0.
         14    1    1    2    0    0 -0.41279496572E-02  0.20017845329E-01 -0.11156824692E-01  0.23285807635E-01  0.00000000000E+00 0.  1.
     999901    1    3    3    0    0  0.11237105288E+00  0.51298444753E-01 -0.33398292882E-02  0.88863374819E+00  0.88000000000E+00 0.  1.
        -11    1    4    4    0    0 -0.69863523752E-01 -0.51373549297E-01  0.18158515189E-01  0.88601051423E-01  0.51100000000E-03 0.  1.
         11    1    4    4    0    0 -0.38379579475E-01 -0.19942740786E-01 -0.36618612088E-02  0.43409392753E-01  0.51100000000E-03 0. -1.
</event>
<event>
 8    1  0.1099478E+005  0.1043930E+01  0.7957747E-01            NaN
         13   -1    0    0    0    0  0.00000000000E+00  0.00000000000E+00  0.74505805969E-08  0.10566000000E+00  0.10566000000E+00 0. -1.
     999900   -1    0    0    0    0 -0.00000000000E+00 -0.00000000000E+00 -0.74505805969E-08  0.93827000000E+00  0.93827000000E+00 0.  1.
     999902    2    1    2    0    0  0.20331938833E-01 -0.44187773335E-02 -0.11073748762E-01  0.10203600776E+01  0.10200878132E+01 0.  0.
     999903    2    3    3    0    0 -0.38673670232E-04 -0.11479575329E+00 -0.61822160578E-01  0.13178062704E+00  0.19133417246E-01 0.  0.
         14    1    1    2    0    0 -0.20331938833E-01  0.44187773335E-02  0.11073748762E-01  0.23569922390E-01  0.00000000000E+00 0. -1.
     999901    1    3    3    0    0  0.20370612504E-01  0.11037697595E+00  0.50748411817E-01  0.88857945057E+00  0.88000000000E+00 0. -1.
        -11    1    4    4    0    0 -0.88550107594E-02 -0.36203953431E-01 -0.20898062929E-01  0.42733214421E-01  0.51100000000E-03 0. -1.
         11    1    4    4    0    0  0.88163370892E-02 -0.78591799857E-01 -0.40924097649E-01  0.89047412617E-01  0.51100000000E-03 0.  1.
</event>
<event>
 8    1  0.1099478E+005  0.1043930E+01  0.7957747E-01            NaN
         13   -1    0    0    0    0  0.00000000000E+00  0.00000000000E+00  0.74505805969E-08  0.10566000000E+00  0.10566000000E+00 0.  1.
     999900   -1    0    0    0    0 -0.00000000000E+00 -0.00000000000E+00 -0.74505805969E-08  0.93827000000E+00  0.93827000000E+00 0. -1.
     999902    2    1    2    0    0  0.12437182461E-02  0.55944705781E-02 -0.23201989967E-01  0.10200306846E+01  0.10197506658E+01 0.  0.
     999903    2    3    3    0    0 -0.14019861626E-01 -0.10617977088E+00  0.67642823875E-01  0.12819031881E+00  0.19659754612E-01 0.  0.
         14    1    1    2    0    0 -0.12437182461E-02 -0.55944705781E-02  0.23201989967E-01  0.23899315358E-01  0.00000000000E+00 0.  1.
     999901    1    3    3    0    0  0.15263579872E-01  0.11177424146E+00 -0.90844813842E-01  0.89184036583E+00  0.88000000000E+00 0. -1.
        -11    1    4    4    0    0 -0.40341384648E-02 -0.61168884243E-01  0.28052711456E-01  0.67417523047E-01  0.51100000000E-03 0. -1.
         11    1    4    4    0    0 -0.99857231611E-02 -0.45010886635E-01  0.39590112418E-01  0.60772795764E-01  0.51100000000E-03 0.  1.
</event>
<event>
 8    1  0.1099478E+005  0.1043930E+01  0.7957747E-01            NaN
         13   -1    0    0    0    0  0.00000000000E+00  0.00000000000E+00  0.74505805969E-08  0.10566000000E+00  0.10566000000E+00 0. -1.
     999900   -1    0    0    0    0 -0.00000000000E+00 -0.00000000000E+00 -0.74505805969E-08  0.93827000000E+00  0.93827000000E+00 0.  1.
     999902    2    1    2    0    0 -0.47587551914E-02 -0.39653447391E-02 -0.21327481472E-01  0.10217211915E+01  0.10214797903E+01 0.  0.
     999903    2    3    3    0    0 -0.62813504686E-01  0.85057201669E-01 -0.78789138310E-01  0.13346604249E+00  0.20620190470E-01 0.  0.
         14    1    1    2    0    0  0.47587551914E-02  0.39653447391E-02  0.21327481472E-01  0.22208808518E-01  0.00000000000E+00 0. -1.
     999901    1    3    3    0    0  0.58054749494E-01 -0.89022546408E-01  0.57461656838E-01  0.88825514899E+00  0.88000000000E+00 0.  1.
        -11    1    4    4    0    0 -0.38083364572E-01  0.47705020513E-01 -0.32944737179E-01  0.69366623589E-01  0.51100000000E-03 0. -1.
         11    1    4    4    0    0 -0.24730140113E-01  0.37352181155E-01 -0.45844401131E-01  0.64099418899E-01  0.51100000000E-03 0.  1.
</event>
<event>
 8    1  0.1099478E+005  0.1043930E+01  0.7957747E-01            NaN
         13   -1    0    0    0    0  0.00000000000E+00  0.00000000000E+00  0.74505805969E-08  0.10566000000E+00  0.10566000000E+00 0.  1.
     999900   -1    0    0    0    0 -0.00000000000E+00 -0.00000000000E+00 -0.74505805969E-08  0.93827000000E+00  0.93827000000E+00 0. -1.
     999902    2    1    2    0    0 -0.23009254210E-01  0.22230178640E-03  0.55113471871E-02  0.10202688473E+01  0.10199944464E+01 0.  0.
     999903    2    3    3    0    0 -0.17566481607E-01 -0.24928529896E-01 -0.12473148272E+00  0.13031076807E+00  0.22202266001E-01 0.  0.
         14    1    1    2    0    0  0.23009254210E-01 -0.22230178640E-03 -0.55113471871E-02  0.23661152660E-01  0.00000000000E+00 0. -1.
     999901    1    3    3    0    0 -0.54427726027E-02  0.25150831682E-01  0.13024282991E+00  0.88995807927E+00  0.88000000000E+00 0.  1.
        -11    1    4    4    0    0 -0.14693472031E-01 -0.20103291427E-01 -0.55289089748E-01  0.60639797268E-01  0.51100000000E-03 0.  1.
         11    1    4    4    0    0 -0.28730095761E-02 -0.48252384684E-02 -0.69442392973E-01  0.69670970806E-01  0.51100000000E-03 0. -1.
</event>
<event>
 8    1  0.1099478E+005  0.1043930E+01  0.7957747E-01            NaN
         13   -1    0    0    0    0  0.00000000000E+00  0.00000000000E+00  0.74505805969E-08  0.10566000000E+00  0.10566000000E+00 0. -1.
     999900   -1    0    0    0    0 -0.00000000000E+00 -0.00000000000E+00 -0.74505805969E-08  0.93827000000E+00  0.93827000000E+00 0.  1.
     999902    2    1    2    0    0 -0.22888685329E-01 -0.16288709605E-02 -0.42988123348E-02  0.10205842311E+01  0.10203171800E+01 0.  0.
     999903    2    3    3    0    0  0.39822465354E-02  0.87547532798E-01  0.95287746257E-01  0.13008327065E+00  0.12707239235E-01 0.  0.
         14    1    1    2    0    0  0.22888685329E-01  0.16288709605E-02  0.42988123348E-02  0.23345768871E-01  0.00000000000E+00 0.  1.
     999901    1    3    3    0    0 -0.26870931864E-01 -0.89176403759E-01 -0.99586558592E-01  0.89050096048E+00  0.88000000000E+00 0.  1.
        -11    1    4    4    0    0  0.48485107882E-02  0.22036973071E-01  0.30488699993E-01  0.37933602350E-01  0.51100000000E-03 0.  1.
         11    1    4    4    0    0 -0.86626425284E-03  0.65510559727E-01  0.64799046264E-01  0.92149668297E-01  0.51100000000E-03 0. -1.
</event>
<event>
 8    1  0.1099478E+005  0.1043930E+01  0.7957747E-01            NaN
         13   -1    0    0    0    0  0.00000000000E+00  0.00000000000E+00  0.74505805969E-08  0.10566000000E+00  0.10566000000E+00 0. -1.
     999900   -1    0    0    0    0 -0.00000000000E+00 -0.00000000000E+00 -0.74505805969E-08  0.93827000000E+00  0.93827000000E+00 0. -1.
     999902    2    1    2    0    0 -0.89009981143E-02 -0.11680395742E-01 -0.18081419577E-01  0.10206362853E+01  0.10203704375E+01 0.  0.
     999903    2    3    3    0    0 -0.42770134256E-01  0.11547998572E+00 -0.38738801296E-01  0.13061178649E+00  0.19845215023E-01 0.  0.
         14    1    1    2    0    0  0.89009981143E-02  0.11680395742E-01  0.18081419577E-01  0.23293714733E-01  0.00000000000E+00 0. -1.
     999901    1    3    3    0    0  0.33869136141E-01 -0.12716038146E+00  0.20657381719E-01  0.89002449877E+00  0.88000000000E+00 0.  1.
        -11    1    4    4    0    0 -0.36437687365E-01  0.77730689280E-01 -0.20778120232E-01  0.88327552427E-01  0.51100000000E-03 0. -1.
         11    1    4    4    0    0 -0.63324468901E-02  0.37749296440E-01 -0.17960681064E-01  0.42284234067E-01  0.51100000000E-03 0.  1.
</event>
<event>
 8    1  0.1099478E+005  0.1043930E+01  0.7957747E-01            NaN
         13   -1    0    0    0    0  0.00000000000E+00  0.00000000000E+00  0.74505805969E-08  0.10566000000E+00  0.10566000000E+00 0. -1.
     999900   -1    0    0    0    0 -0.00000000000E+00 -0.00000000000E+00 -0.74505805969E-08  0.93827000000E+00  0.93827000000E+00 0.  1.
     999902    2    1    2    0    0 -0.11663232415E-01  0.63602864158E-02 -0.17052236296E-01  0.10223137331E+01  0.10220851754E+01 0.  0.
     999903    2    3    3    0    0 -0.31099668001E-02  0.13176397932E+00 -0.47273792732E-02  0.13329677785E+00  0.19345922851E-01 0.  0.
         14    1    1    2    0    0  0.11663232415E-01 -0.63602864158E-02  0.17052236296E-01  0.21616266939E-01  0.00000000000E+00 0. -1.
     999901    1    3    3    0    0 -0.85532656152E-02 -0.12540369291E+00 -0.12324857023E-01  0.88901695521E+00  0.88000000000E+00 0. -1.
        -11    1    4    4    0    0 -0.27300209260E-02  0.12266793869E+00 -0.93850322321E-02  0.12305777565E+00  0.51100000000E-03 0.  1.
         11    1    4    4    0    0 -0.37994587408E-03  0.90960406313E-02  0.46576529589E-02  0.10239002203E-01  0.51100000000E-03 0. -1.
</event>
<event>
 8    1  0.1099478E+005  0.1043930E+01  0.7957747E-01            NaN
         13   -1    0    0    0    0  0.00000000000E+00  0.00000000000E+00  0.74505805969E-08  0.10566000000E+00  0.10566000000E+00 0. -1.
     999900   -1    0    0    0    0 -0.00000000000E+00 -0.00000000000E+00 -0.74505805969E-08  0.93827000000E+00  0.93827000000E+00 0.  1.
     999902    2    1    2    0    0  0.19369489700E-01 -0.51116737278E-02 -0.11969220014E-01  0.10205940070E+01  0.10203271822E+01 0.  0.
     999903    2    3    3    0    0 -0.10187239566E+00 -0.43285732958E-01  0.61637568889E-01  0.12841980156E+00  0.20995615182E-01 0.  0.
         14    1    1    2    0    0 -0.19369489700E-01  0.51116737278E-02  0.11969220014E-01  0.23335992957E-01  0.00000000000E+00 0.  1.
     999901    1    3    3    0    0  0.12124188536E+00  0.38174059230E-01 -0.73606788903E-01  0.89217420549E+00  0.88000000000E+00 0.  1.
        -11    1    4    4    0    0 -0.56990321203E-01 -0.15173456397E-01  0.39696433479E-01  0.71092886014E-01  0.51100000000E-03 0. -1.
         11    1    4    4    0    0 -0.44882074462E-01 -0.28112276562E-01  0.21941135410E-01  0.57326915542E-01  0.51100000000E-03 0.  1.
</event>
<event>
 7    1  0.2750474E+005  0.1043930E+01  0.7957747E-01            NaN
         13   -1    0    0    0    0  0.00000000000E+00  0.00000000000E+00  0.74505805969E-08  0.10566000000E+00  0.10566000000E+00 0.  1.
     999900   -1    0    0    0    0 -0.00000000000E+00 -0.00000000000E+00 -0.74505805969E-08  0.93827000000E+00  0.93827000000E+00 0.  1.
     999903    2    1    2    0    0  0.55537648436E-01 -0.84574769351E-01 -0.43420318205E-01  0.11200841779E+00  0.20572788286E-01 0.  0.
         14    1    1    2    0    0 -0.37628951754E-02  0.48468672528E-01  0.40438731348E-02  0.48782420058E-01  0.00000000000E+00 0.  1.
     999901    1    1    2    0    0 -0.51774753261E-01  0.36106096823E-01  0.39376445071E-01  0.88313916215E+00  0.88000000000E+00 0.  1.
        -11    1    3    3    0    0  0.25359280591E-01 -0.56879702883E-01 -0.26856925617E-01  0.67822925967E-01  0.51100000000E-03 0. -1.
         11    1    3    3    0    0  0.30178367846E-01 -0.27695066469E-01 -0.16563392589E-01  0.44185491822E-01  0.51100000000E-03 0.  1.
</event>
<event>
 8    1  0.1099478E+005  0.1043930E+01  0.7957747E-01            NaN
         13   -1    0    0    0    0  0.00000000000E+00  0.00000000000E+00  0.74505805969E-08  0.10566000000E+00  0.10566000000E+00 0. -1.
     999900   -1    0    0    0    0 -0.00000000000E+00 -0.00000000000E+00 -0.74505805969E-08  0.93827000000E+00  0.93827000000E+00 0.  1.
     999902    2    1    2    0    0 -0.70104474762E-02  0.11289282021E-01  0.19454207271E-01  0.10203702792E+01  0.10200982533E+01 0.  0.
     999903    2    3    3    0    0 -0.12514934325E+00 -0.43279159697E-02  0.36939091630E-01  0.13216623918E+00  0.20550652472E-01 0.  0.
         14    1    1    2    0    0  0.70104474762E-02 -0.11289282021E-01 -0.19454207271E-01  0.23559720773E-01  0.00000000000E+00 0.  1.
     999901    1    3    3    0    0  0.11813889577E+00  0.15617197991E-01 -0.17484884359E-01  0.88820404004E+00  0.88000000000E+00 0.  1.
        -11    1    4    4    0    0 -0.61496285490E-01  0.36531041999E-02  0.26934310785E-01  0.67237314921E-01  0.51100000000E-03 0. -1.
         11    1    4    4    0    0 -0.63653057760E-01 -0.79810201697E-02  0.10004780845E-01  0.64928924263E-01  0.51100000000E-03 0.  1.
</event>
<event>
 8    1  0.1099478E+005  0.1043930E+01  0.7957747E-01            NaN
         13   -1    0    0    0    0  0.00000000000E+00  0.00000000000E+00  0.74505805969E-08  0.10566000000E+00  0.10566000000E+00 0. -1.
     999900   -1    0    0    0    0 -0.00000000000E+00 -0.00000000000E+00 -0.74505805969E-08  0.93827000000E+00  0.93827000000E+00 0.  1.
     999902    2    1    2    0    0  0.19630819718E-01  0.19111495833E-01 -0.65389513067E-02  0.10157630648E+01  0.10153724575E+01 0.  0.
     999903    2    3    3    0    0  0.10716561442E+00 -0.38129558904E-02 -0.68681153625E-01  0.12894317095E+00  0.20254207628E-01 0.  0.
         14    1    1    2    0    0 -0.19630819718E-01 -0.19111495833E-01  0.65389513067E-02  0.28166935225E-01  0.00000000000E+00 0. -1.
     999901    1    3    3    0    0 -0.87534794697E-01  0.22924451723E-01  0.62142202318E-01  0.88681989382E+00  0.88000000000E+00 0. -1.
        -11    1    4    4    0    0  0.38511073239E-01 -0.95997510493E-02 -0.31348635265E-01  0.50579205571E-01  0.51100000000E-03 0. -1.
         11    1    4    4    0    0  0.68654541176E-01  0.57867951589E-02 -0.37332518360E-01  0.78363965382E-01  0.51100000000E-03 0.  1.
</event>
<event>
 8    1  0.1099478E+005  0.1043930E+01  0.7957747E-01            NaN
         13   -1    0    0    0    0  0.00000000000E+00  0.00000000000E+00  0.74505805969E-08  0.10566000000E+00  0.10566000000E+00 0.  1.
     999900   -1    0    0    0    0 -0.00000000000E+00 -0.00000000000E+00 -0.74505805969E-08  0.93827000000E+00  0.93827000000E+00 0.  1.
     999902    2    1    2    0    0  0.26950578366E-02  0.21905817423E-01  0.63870040410E-02  0.10209534469E+01  0.10206948705E+01 0.  0.
     999903    2    3    3    0    0  0.85801883949E-01  0.23332584581E-01  0.95951647766E-01  0.13251064869E+00  0.21118250749E-01 0.  0.
         14    1    1    2    0    0 -0.26950578366E-02 -0.21905817423E-01 -0.63870040410E-02  0.22976553143E-01  0.00000000000E+00 0. -1.
     999901    1    3    3    0    0 -0.83106826112E-01 -0.14267671584E-02 -0.89564643725E-01  0.88844279817E+00  0.88000000000E+00 0.  1.
        -11    1    4    4    0    0  0.67178043605E-01  0.17627621231E-01  0.86268107494E-01  0.11075229146E+00  0.51100000000E-03 0.  1.
         11    1    4    4    0    0  0.18623840343E-01  0.57049633501E-02  0.96835402724E-02  0.21758357226E-01  0.51100000000E-03 0. -1.
</event>
<event>
 8    1  0.1099478E+005  0.1043930E+01  0.7957747E-01            NaN
         13   -1    0    0    0    0  0.00000000000E+00  0.00000000000E+00  0.74505805969E-08  0.10566000000E+00  0.10566000000E+00 0. -1.
     999900   -1    0    0    0    0 -0.00000000000E+00 -0.00000000000E+00 -0.74505805969E-08  0.93827000000E+00  0.93827000000E+00 0.  1.
     999902    2    1    2    0    0  0.15969608348E-01  0.14985987691E-01 -0.83266517951E-02  0.10205005026E+01  0.10202315102E+01 0.  0.
     999903    2    3    3    0    0  0.90174520474E-01  0.56333914964E-01 -0.79143389862E-01  0.13357827915E+00  0.16568837743E-01 0.  0.
         14    1    1    2    0    0 -0.15969608348E-01 -0.14985987691E-01  0.83266517951E-02  0.23429497391E-01  0.00000000000E+00 0. -1.
     999901    1    3    3    0    0 -0.74204912125E-01 -0.41347927272E-01  0.70816738067E-01  0.88692222346E+00  0.88000000000E+00 0. -1.
        -11    1    4    4    0    0  0.11458259194E-01  0.87687117329E-02 -0.44854002520E-02  0.15118265298E-01  0.51100000000E-03 0. -1.
         11    1    4    4    0    0  0.78716261280E-01  0.47565203231E-01 -0.74657989610E-01  0.11846001385E+00  0.51100000000E-03 0.  1.
</event>
<event>
 8    1  0.1099478E+005  0.1043930E+01  0.7957747E-01            NaN
         13   -1    0    0    0    0  0.00000000000E+00  0.00000000000E+00  0.74505805969E-08  0.10566000000E+00  0.10566000000E+00 0. -1.
     999900   -1    0    0    0    0 -0.00000000000E+00 -0.00000000000E+00 -0.74505805969E-08  0.93827000000E+00  0.93827000000E+00 0. -1.
     999902    2    1    2    0    0 -0.11782109096E-01  0.13353099599E-01  0.99988144842E-02  0.10235069822E+01  0.10233032019E+01 0.  0.
     999903    2    3    3    0    0 -0.96938959717E-01 -0.80236261929E-01 -0.38391000974E-01  0.13314063514E+00  0.20433798710E-01 0.  0.
         14    1    1    2    0    0  0.11782109096E-01 -0.13353099599E-01 -0.99988144842E-02  0.20423017768E-01  0.00000000000E+00 0.  1.
     999901    1    3    3    0    0  0.85156850621E-01  0.93589361528E-01  0.48389815459E-01  0.89036634709E+00  0.88000000000E+00 0.  1.
        -11    1    4    4    0    0 -0.47660412488E-01 -0.27442597910E-01 -0.12347966590E-01  0.56367938568E-01  0.51100000000E-03 0.  1.
         11    1    4    4    0    0 -0.49278547229E-01 -0.52793664019E-01 -0.26043034384E-01  0.76772696569E-01  0.51100000000E-03 0. -1.
</event>
<event>
 8    1  0.1099478E+005  0.1043930E+01  0.7957747E-01            NaN
         13   -1    0    0    0    0  0.00000000000E+00  0.00000000000E+00  0.74505805969E-08  0.10566000000E+00  0.10566000000E+00 0. -1.
     999900   -1    0    0    0    0 -0.00000000000E+00 -0.00000000000E+00 -0.74505805969E-08  0.93827000000E+00  0.93827000000E+00 0.  1.
     999902    2    1    2    0    0 -0.63884180081E-02  0.21670275889E-01  0.47199328380E-02  0.10208499110E+01  0.10205889723E+01 0.  0.
     999903    2    3    3    0    0  0.66525572774E-01 -0.61061106425E-01  0.90840036443E-01  0.12979570171E+00  0.20997652496E-01 0.  0.
         14    1    1    2    0    0  0.63884180081E-02 -0.21670275889E-01 -0.47199328380E-02  0.23080088989E-01  0.00000000000E+00 0. -1.
     999901    1    3    3    0    0 -0.72913990782E-01  0.82731382313E-01 -0.86120103605E-01  0.89105420930E+00  0.88000000000E+00 0.  1.
        -11    1    4    4    0    0  0.41873159066E-01 -0.37495450327E-01  0.70192674212E-01  0.89925207142E-01  0.51100000000E-03 0. -1.
         11    1    4    4    0    0  0.24652413707E-01 -0.23565656098E-01  0.20647362231E-01  0.39870494567E-01  0.51100000000E-03 0.  1.
</event>
<event>
 8    1  0.1099478E+005  0.1043930E+01  0.7957747E-01            NaN
         13   -1    0    0    0    0  0.00000000000E+00  0.00000000000E+00  0.74505805969E-08  0.10566000000E+00  0.10566000000E+00 0. -1.
     999900   -1    0    0    0    0 -0.00000000000E+00 -0.00000000000E+00 -0.74505805969E-08  0.93827000000E+00  0.93827000000E+00 0.  1.
     999902    2    1    2    0    0 -0.20965122609E-01 -0.10379704658E-01  0.19507983219E-02  0.10204549015E+01  0.10201848488E+01 0.  0.
     999903    2    3    3    0    0 -0.91719509827E-01  0.37606190290E-01  0.85522169396E-01  0.13237100712E+00  0.19528134480E-01 0.  0.
         14    1    1    2    0    0  0.20965122609E-01  0.10379704658E-01 -0.19507983219E-02  0.23475098485E-01  0.00000000000E+00 0. -1.
     999901    1    3    3    0    0  0.70754387218E-01 -0.47985894948E-01 -0.83571371074E-01  0.88808389440E+00  0.88000000000E+00 0.  1.
        -11    1    4    4    0    0 -0.82083391053E-01  0.27025968757E-01  0.69643519299E-01  0.11098903989E+00  0.51100000000E-03 0. -1.
         11    1    4    4    0    0 -0.96361187740E-02  0.10580221533E-01  0.15878650096E-01  0.21381967229E-01  0.51100000000E-03 0.  1.
</event>
<event>
 8    1  0.1099478E+005  0.1043930E+01  0.7957747E-01            NaN
         13   -1    0    0    0    0  0.00000000000E+00  0.00000000000E+00  0.74505805969E-08  0.10566000000E+00  0.10566000000E+00 0. -1.
     999900   -1    0    0    0    0 -0.00000000000E+00 -0.00000000000E+00 -0.74505805969E-08  0.93827000000E+00  0.93827000000E+00 0. -1.
     999902    2    1    2    0    0  0.11319416142E-01  0.20452560730E-01 -0.31782637041E-02  0.10203389470E+01  0.10200661885E+01 0.  0.
     999903    2    3    3    0    0 -0.56129638913E-01 -0.18941512839E-01  0.11314241441E+00  0.12925434482E+00  0.19903829838E-01 0.  0.
         14    1    1    2    0    0 -0.11319416142E-01 -0.20452560730E-01  0.31782637041E-02  0.23591053016E-01  0.00000000000E+00 0.  1.
     999901    1    3    3    0    0  0.67449055056E-01  0.39394073569E-01 -0.11632067812E+00  0.89108460217E+00  0.88000000000E+00 0. -1.
        -11    1    4    4    0    0 -0.29070177570E-01 -0.14224105947E-01  0.42238161552E-01  0.53213943908E-01  0.51100000000E-03 0. -1.
         11    1    4    4    0    0 -0.27059461344E-01 -0.47174068921E-02  0.70904252860E-01  0.76040400910E-01  0.51100000000E-03 0.  1.
</event>
<event>
 8    1  0.1099478E+005  0.1043930E+01  0.7957747E-01            NaN
         13   -1    0    0    0    0  0.00000000000E+00  0.00000000000E+00  0.74505805969E-08  0.10566000000E+00  0.10566000000E+00 0.  1.
     999900   -1    0    0    0    0 -0.00000000000E+00 -0.00000000000E+00 -0.74505805969E-08  0.93827000000E+00  0.93827000000E+00 0. -1.
     999902    2    1    2    0    0  0.12744060694E-01 -0.16411878834E-01  0.58474596589E-02  0.10223440408E+01  0.10221161305E+01 0.  0.
     999903    2    3    3    0    0 -0.82371668628E-01  0.28406161793E-01 -0.94757520022E-01  0.13039279737E+00  0.20767575329E-01 0.  0.
         14    1    1    2    0    0 -0.12744060694E-01  0.16411878834E-01 -0.58474596589E-02  0.21585959193E-01  0.00000000000E+00 0.  1.
     999901    1    3    3    0    0  0.95115729322E-01 -0.44818040627E-01  0.10060497968E+00  0.89195124344E+00  0.88000000000E+00 0.  1.
        -11    1    4    4    0    0 -0.45068628734E-01  0.26309468910E-01 -0.56542397324E-01  0.76945911304E-01  0.51100000000E-03 0. -1.
         11    1    4    4    0    0 -0.37303039895E-01  0.20966928835E-02 -0.38215122698E-01  0.53446886067E-01  0.51100000000E-03 0.  1.
</event>
<event>
 8    1  0.1099478E+005  0.1043930E+01  0.7957747E-01            NaN
         13   -1    0    0    0    0  0.00000000000E+00  0.00000000000E+00  0.74505805969E-08  0.10566000000E+00  0.10566000000E+00 0. -1.
     999900   -1    0    0    0    0 -0.00000000000E+00 -0.00000000000E+00 -0.74505805969E-08  0.93827000000E+00  0.93827000000E+00 0.  1.
     999902    2    1    2    0    0 -0.46776804283E-02  0.21409415137E-01  0.99242177699E-02  0.10198731122E+01  0.10195893444E+01 0.  0.
     999903    2    3    3    0    0  0.15289953536E-01  0.69693556210E-01 -0.10758555998E+00  0.13052581643E+00  0.19270744212E-01 0.  0.
         14    1    1    2    0    0  0.46776804283E-02 -0.21409415137E-01 -0.99242177699E-02  0.24056887767E-01  0.00000000000E+00 0.  1.
     999901    1    3    3    0    0 -0.19967633964E-01 -0.48284141073E-01  0.11750977775E+00  0.88934729580E+00  0.88000000000E+00 0. -1.
        -11    1    4    4    0    0  0.14334097410E-01  0.46313656113E-01 -0.57296983167E-01  0.75057487916E-01  0.51100000000E-03 0. -1.
         11    1    4    4    0    0  0.95585612593E-03  0.23379900096E-01 -0.50288576811E-01  0.55468328514E-01  0.51100000000E-03 0.  1.
</event>
<event>
 8    1  0.1099478E+005  0.1043930E+01  0.7957747E-01            NaN
         13   -1    0    0    0    0  0.00000000000E+00  0.00000000000E+00  0.74505805969E-08  0.10566000000E+00  0.10566000000E+00 0.  1.
     999900   -1    0    0    0    0 -0.00000000000E+00 -0.00000000000E+00 -0.74505805969E-08  0.93827000000E+00  0.93827000000E+00 0. -1.
     999902    2    1    2    0    0 -0.35900540112E-02 -0.48481541793E-02 -0.22952234224E-01  0.10201982040E+01  0.10199221427E+01 0.  0.
     999903    2    3    3    0    0 -0.11858440793E+00 -0.43357378419E-01  0.26365956902E-01  0.13051345882E+00  0.19911684535E-01 0.  0.
         14    1    1    2    0    0  0.35900540112E-02  0.48481541793E-02  0.22952234224E-01  0.23731796026E-01  0.00000000000E+00 0.  1.
     999901    1    3    3    0    0  0.11499435392E+00  0.38509224239E-01 -0.49318191125E-01  0.88968474516E+00  0.88000000000E+00 0. -1.
        -11    1    4    4    0    0 -0.10734674509E+00 -0.33005323284E-01  0.25705493138E-01  0.11521158164E+00  0.51100000000E-03 0. -1.
         11    1    4    4    0    0 -0.11237662850E-01 -0.10352055135E-01  0.66046376382E-03  0.15301877179E-01  0.51100000000E-03 0.  1.
</event>
<event>
 8    1  0.1099478E+005  0.1043930E+01  0.7957747E-01            NaN
         13   -1    0    0    0    0  0.00000000000E+00  0.00000000000E+00  0.74505805969E-08  0.10566000000E+00  0.10566000000E+00 0.  1.
     999900   -1    0    0    0    0 -0.00000000000E+00 -0.00000000000E+00 -0.74505805969E-08  0.93827000000E+00  0.93827000000E+00 0.  1.
     999902    2    1    2    0    0  0.20019938875E-01  0.54870388520E-02 -0.14230571306E-01  0.10187622685E+01  0.10184513464E+01 0.  0.
     999903    2    3    3    0    0  0.82464577337E-01  0.58523673488E-01 -0.83315545853E-01  0.13226074501E+00  0.18055404061E-01 0.  0.
         14    1    1    2    0    0 -0.20019938875E-01 -0.54870388520E-02  0.14230571306E-01  0.25167731475E-01  0.00000000000E+00 0.  1.
     999901    1    3    3    0    0 -0.62444638462E-01 -0.53036634636E-01  0.69084974548E-01  0.88650152352E+00  0.88000000000E+00 0.  1.
        -11    1    4    4    0    0  0.47408100639E-01  0.32801226219E-01 -0.35854951629E-01  0.67891730903E-01  0.51100000000E-03 0. -1.
         11    1    4    4    0    0  0.35056476698E-01  0.25722447270E-01 -0.47460594224E-01  0.64369014107E-01  0.51100000000E-03 0.  1.
</event>
<event>
 8    1  0.1099478E+005  0.1043930E+01  0.7957747E-01            NaN
         13   -1    0    0    0    0  0.00000000000E+00  0.00000000000E+00  0.74505805969E-08  0.10566000000E+00  0.10566000000E+00 0.  1.
     999900   -1    0    0    0    0 -0.00000000000E+00 -0.00000000000E+00 -0.74505805969E-08  0.93827000000E+00  0.93827000000E+00 0. -1.
     999902    2    1    2    0    0 -0.10962326998E-01  0.12892707792E-01 -0.19071160922E-01  0.10184328687E+01  0.10181136500E+01 0.  0.
     999903    2    3    3    0    0 -0.32390751714E-01  0.71332546670E-01 -0.10442767548E+00  0.13211456990E+00  0.20288596827E-01 0.  0.
         14    1    1    2    0    0  0.10962326998E-01 -0.12892707792E-01  0.19071160922E-01  0.25497131336E-01  0.00000000000E+00 0. -1.
     999901    1    3    3    0    0  0.21428424716E-01 -0.58439838878E-01  0.85356514560E-01  0.88631829877E+00  0.88000000000E+00 0.  1.
        -11    1    4    4    0    0 -0.23003268132E-01  0.30161889899E-01 -0.40449733836E-01  0.55455676314E-01  0.51100000000E-03 0.  1.
         11    1    4    4    0    0 -0.93874835816E-02  0.41170656771E-01 -0.63977941646E-01  0.76658893582E-01  0.51100000000E-03 0. -1.
</event>
<event>
 8    1  0.1099478E+005  0.1043930E+01  0.7957747E-01            NaN
         13   -1    0    0    0    0  0.00000000000E+00  0.00000000000E+00  0.74505805969E-08  0.10566000000E+00  0.10566000000E+00 0. -1.
     999900   -1    0    0    0    0 -0.00000000000E+00 -0.00000000000E+00 -0.74505805969E-08  0.93827000000E+00  0.93827000000E+00 0. -1.
     999902    2    1    2    0    0 -0.16084956239E-03  0.13655238240E-01 -0.19631760947E-01  0.10200156227E+01  0.10197352466E+01 0.  0.
     999903    2    3    3    0    0  0.37955849704E-01 -0.20615558071E-01 -0.12451510680E+00  0.13230627472E+00  0.11631455074E-01 0.  0.
         14    1    1    2    0    0  0.16084956239E-03 -0.13655238240E-01  0.19631760947E-01  0.23914377304E-01  0.00000000000E+00 0. -1.
     999901    1    3    3    0    0 -0.38116699266E-01  0.34270796311E-01  0.10488334586E+00  0.88770934797E+00  0.88000000000E+00 0. -1.
        -11    1    4    4    0    0  0.32603908536E-01 -0.16163240928E-01 -0.89768538142E-01  0.96865457054E-01  0.51100000000E-03 0.  1.
         11    1    4    4    0    0  0.53519411673E-02 -0.44523171428E-02 -0.34746568661E-01  0.35440817667E-01  0.51100000000E-03 0. -1.
</event>
<event>
 8    1  0.1099478E+005  0.1043930E+01  0.7957747E-01            NaN
         13   -1    0    0    0    0  0.00000000000E+00  0.00000000000E+00  0.74505805969E-08  0.10566000000E+00  0.10566000000E+00 0. -1.
     999900   -1    0    0    0    0 -0.00000000000E+00 -0.00000000000E+00 -0.74505805969E-08  0.93827000000E+00  0.93827000000E+00 0.  1.
     999902    2    1    2    0    0 -0.20507222379E-01 -0.10970684237E-01 -0.28586689253E-02  0.10204976704E+01  0.10202286122E+01 0.  0.
     999903    2    3    3    0    0 -0.54995792081E-01 -0.11037850519E+00 -0.45244913476E-01  0.13321644664E+00  0.22171330749E-01 0.  0.
         14    1    1    2    0    0  0.20507222379E-01  0.10970684237E-01  0.28586689253E-02  0.23432329598E-01  0.00000000000E+00 0. -1.
     999901    1    3    3    0    0  0.34488569702E-01  0.99407820950E-01  0.42386244551E-01  0.88728122376E+00  0.88000000000E+00 0. -1.
        -11    1    4    4    0    0 -0.22864956560E-01 -0.47397031702E-01 -0.31037769168E-01  0.61097373827E-01  0.51100000000E-03 0. -1.
         11    1    4    4    0    0 -0.32130835521E-01 -0.62981473485E-01 -0.14207144308E-01  0.72119072817E-01  0.51100000000E-03 0.  1.
</event>
<event>
 8    1  0.1099478E+005  0.1043930E+01  0.7957747E-01            NaN
         13   -1    0    0    0    0  0.00000000000E+00  0.00000000000E+00  0.74505805969E-08  0.10566000000E+00  0.10566000000E+00 0.  1.
     999900   -1    0    0    0    0 -0.00000000000E+00 -0.00000000000E+00 -0.74505805969E-08  0.93827000000E+00  0.93827000000E+00 0.  1.
     999902    2    1    2    0    0  0.51804113147E-02  0.17313972943E-01 -0.15444587218E-01  0.10201572089E+01  0.10198801819E+01 0.  0.
     999903    2    3    3    0    0 -0.25108417621E-01 -0.10020424579E+00  0.72117791235E-01  0.12752340104E+00  0.19746353825E-01 0.  0.
         14    1    1    2    0    0 -0.51804113147E-02 -0.17313972943E-01  0.15444587218E-01  0.23772791060E-01  0.00000000000E+00 0. -1.
     999901    1    3    3    0    0  0.30288828936E-01  0.11751821873E+00 -0.87562378453E-01  0.89263380790E+00  0.88000000000E+00 0.  1.
        -11    1    4    4    0    0 -0.12654739426E-01 -0.69801178619E-01  0.39373607862E-01  0.81135005291E-01  0.51100000000E-03 0. -1.
         11    1    4    4    0    0 -0.12453678195E-01 -0.30403067171E-01  0.32744183373E-01  0.46388395745E-01  0.51100000000E-03 0.  1.
</event>
<event>
 8    1  0.1099478E+005  0.1043930E+01  0.7957747E-01            NaN
         13   -1    0    0    0    0  0.00000000000E+00  0.00000000000E+00  0.74505805969E-08  0.10566000000E+00  0.10566000000E+00 0. -1.
     999900   -1    0    0    0    0 -0.00000000000E+00 -0.00000000000E+00 -0.74505805969E-08  0.93827000000E+00  0.93827000000E+00 0. -1.
     999902    2    1    2    0    0 -0.13637015782E-01 -0.27839291227E-02  0.24380574673E-01  0.10158563312E+01  0.10154683425E+01 0.  0.
     999903    2    3    3    0    0  0.87131604224E-01  0.87118690060E-01  0.11349431481E-01  0.12545944976E+00  0.20728756026E-01 0.  0.
         14    1    1    2    0    0  0.13637015782E-01  0.27839291227E-02 -0.24380574673E-01  0.28073668841E-01  0.00000000000E+00 0.  1.
     999901    1    3    3    0    0 -0.10076862001E+00 -0.89902619183E-01  0.13031143192E-01  0.89039688140E+00  0.88000000000E+00 0.  1.
        -11    1    4    4    0    0  0.65145736123E-01  0.74502609864E-01  0.14054417745E-01  0.99961960718E-01  0.51100000000E-03 0.  1.
         11    1    4    4    0    0  0.21985868101E-01  0.12616080196E-01 -0.27049862638E-02  0.25497489040E-01  0.51100000000E-03 0. -1.
</event>
<event>
 8    1  0.1099478E+005  0.1043930E+01  0.7957747E-01            NaN
         13   -1    0    0    0    0  0.00000000000E+00  0.00000000000E+00  0.74505805969E-08  0.10566000000E+00  0.10566000000E+00 0. -1.
     999900   -1    0    0    0    0 -0.00000000000E+00 -0.00000000000E+00 -0.74505805969E-08  0.93827000000E+00  0.93827000000E+00 0. -1.
     999902    2    1    2    0    0  0.20005790189E-01  0.11047433615E-01  0.49513251220E-02  0.10205463935E+01  0.10202784661E+01 0.  0.
     999903    2    3    3    0    0  0.58056525912E-01 -0.10145488785E+00  0.55935346020E-01  0.13110611943E+00  0.19909724958E-01 0.  0.
         14    1    1    2    0    0 -0.20005790189E-01 -0.11047433615E-01 -0.49513251220E-02  0.23383606459E-01  0.00000000000E+00 0.  1.
     999901    1    3    3    0    0 -0.38050735723E-01  0.11250232147E+00 -0.50984020898E-01  0.88944027411E+00  0.88000000000E+00 0. -1.
        -11    1    4    4    0    0  0.36662733364E-01 -0.67426095240E-01  0.46762118022E-01  0.89874307452E-01  0.51100000000E-03 0.  1.
         11    1    4    4    0    0  0.21393792547E-01 -0.34028792610E-01  0.91732279979E-02  0.41231811978E-01  0.51100000000E-03 0. -1.
</event>
<event>
 8    1  0.1099478E+005  0.1043930E+01  0.7957747E-01            NaN
         13   -1    0    0    0    0  0.00000000000E+00  0.00000000000E+00  0.74505805969E-08  0.10566000000E+00  0.10566000000E+00 0.  1.
     999900   -1    0    0    0    0 -0.00000000000E+00 -0.00000000000E+00 -0.74505805969E-08  0.93827000000E+00  0.93827000000E+00 0. -1.
     999902    2    1    2    0    0  0.22781154402E-01 -0.66720118381E-02 -0.60123312763E-03  0.10201843010E+01  0.10199079124E+01 0.  0.
     999903    2    3    3    0    0 -0.22864614326E-01  0.80694423133E-03 -0.12645416109E+00  0.13002789317E+00  0.19828171838E-01 0.  0.
         14    1    1    2    0    0 -0.22781154402E-01  0.66720118381E-02  0.60123312763E-03  0.23745698961E-01  0.00000000000E+00 0. -1.
     999901    1    3    3    0    0  0.45645768728E-01 -0.74789560695E-02  0.12585292796E+00  0.89015640787E+00  0.88000000000E+00 0.  1.
        -11    1    4    4    0    0 -0.24188638736E-01  0.46388258915E-02 -0.88835076998E-01  0.92187531564E-01  0.51100000000E-03 0.  1.
         11    1    4    4    0    0  0.13240244105E-02 -0.38318816602E-02 -0.37619084094E-01  0.37840361610E-01  0.51100000000E-03 0. -1.
</event>
<event>
 8    1  0.1099478E+005  0.1043930E+01  0.7957747E-01            NaN
         13   -1    0    0    0    0  0.00000000000E+00  0.00000000000E+00  0.74505805969E-08  0.10566000000E+00  0.10566000000E+00 0.  1.
     999900   -1    0    0    0    0 -0.00000000000E+00 -0.00000000000E+00 -0.74505805969E-08  0.93827000000E+00  0.93827000000E+00 0. -1.
     999902    2    1    2    0    0 -0.45338325199E-02  0.25882221267E-03  0.23763190911E-01  0.10197367805E+01  0.10194497485E+01 0.  0.
     999903    2    3    3    0    0  0.72578843289E-01 -0.10239833900E+00  0.29197742695E-01  0.13040310194E+00  0.19983805752E-01 0.  0.
         14    1    1    2    0    0  0.45338325199E-02 -0.25882221267E-03 -0.23763190911E-01  0.24193219474E-01  0.00000000000E+00 0. -1.
     999901    1    3    3    0    0 -0.77112675809E-01  0.10265716122E+00 -0.54345517835E-02  0.88933367859E+00  0.88000000000E+00 0. -1.
        -11    1    4    4    0    0  0.45744433358E-01 -0.55802080421E-01  0.25394604963E-01  0.76495571406E-01  0.51100000000E-03 0.  1.
         11    1    4    4    0    0  0.26834409931E-01 -0.46596258583E-01  0.38031377318E-02  0.53907530531E-01  0.51100000000E-03 0. -1.
</event>
<event>
 8    1  0.1099478E+005  0.1043930E+01  0.7957747E-01            NaN
         13   -1    0    0    0    0  0.00000000000E+00  0.00000000000E+00  0.74505805969E-08  0.10566000000E+00  0.10566000000E+00 0.  1.
     999900   -1    0    0    0    0 -0.00000000000E+00 -0.00000000000E+00 -0.74505805969E-08  0.93827000000E+00  0.93827000000E+00 0.  1.
     999902    2    1    2    0    0  0.17949239893E-02 -0.22209669854E-01  0.61996972559E-02  0.10208015017E+01  0.10205394546E+01 0.  0.
     999903    2    3    3    0    0  0.57430998696E-01 -0.72242087180E-01 -0.92361150557E-01  0.13214360560E+00  0.20349732129E-01 0.  0.
         14    1    1    2    0    0 -0.17949239893E-02  0.22209669854E-01 -0.61996972559E-02  0.23128498292E-01  0.00000000000E+00 0. -1.
     999901    1    3    3    0    0 -0.55636074706E-01  0.50032417326E-01  0.98560847813E-01  0.88865789611E+00  0.88000000000E+00 0. -1.
        -11    1    4    4    0    0  0.23725623000E-01 -0.27910426356E-01 -0.50897293500E-01  0.62711184750E-01  0.51100000000E-03 0. -1.
         11    1    4    4    0    0  0.33705375696E-01 -0.44331660824E-01 -0.41463857057E-01  0.69432420851E-01  0.51100000000E-03 0.  1.
</event>
<event>
 8    1  0.1099478E+005  0.1043930E+01  0.7957747E-01            NaN
         13   -1    0    0    0    0  0.00000000000E+00  0.00000000000E+00  0.74505805969E-08  0.10566000000E+00  0.10566000000E+00 0. -1.
     999900   -1    0    0    0    0 -0.00000000000E+00 -0.00000000000E+00 -0.74505805969E-08  0.93827000000E+00  0.93827000000E+00 0. -1.
     999902    2    1    2    0    0  0.17748609290E-01  0.12084992809E-01 -0.10220686578E-01  0.10201492806E+01  0.10198720665E+01 0.  0.
     999903    2    3    3    0    0  0.92154571143E-01  0.87422359198E-01  0.33486902651E-01  0.13272473769E+00  0.18956515382E-01 0.  0.
         14    1    1    2    0    0 -0.17748609290E-01 -0.12084992809E-01  0.10220686578E-01  0.23780719439E-01  0.00000000000E+00 0.  1.
     999901    1    3    3    0    0 -0.74405961854E-01 -0.75337366388E-01 -0.43707589228E-01  0.88742454287E+00  0.88000000000E+00 0. -1.
        -11    1    4    4    0    0  0.62521626714E-01  0.49966981420E-01  0.27290629547E-01  0.84561768083E-01  0.51100000000E-03 0.  1.
         11    1    4    4    0    0  0.29632944429E-01  0.37455377777E-01  0.61962731035E-02  0.48162969607E-01  0.51100000000E-03 0. -1.
</event>
<event>
 8    1  0.1099478E+005  0.1043930E+01  0.7957747E-01            NaN
         13   -1    0    0    0    0  0.00000000000E+00  0.00000000000E+00  0.74505805969E-08  0.10566000000E+00  0.10566000000E+00 0.  1.
     999900   -1    0    0    0    0 -0.00000000000E+00 -0.00000000000E+00 -0.74505805969E-08  0.93827000000E+00  0.93827000000E+00 0. -1.
     999902    2    1    2    0    0  0.17130395430E-01  0.15597244133E-01  0.47695592550E-02  0.10202768149E+01  0.10200026009E+01 0.  0.
     999903    2    3    3    0    0 -0.30373125321E-01 -0.97167567133E-02 -0.12380248098E+00  0.12930647155E+00  0.19395029905E-01 0.  0.
         14    1    1    2    0    0 -0.17130395430E-01 -0.15597244133E-01 -0.47695592550E-02  0.23653185148E-01  0.00000000000E+00 0. -1.
     999901    1    3    3    0    0  0.47503520751E-01  0.25314000846E-01  0.12857204023E+00  0.89097034331E+00  0.88000000000E+00 0.  1.
        -11    1    4    4    0    0 -0.90806761849E-03 -0.74357862547E-02 -0.31713136864E-01  0.32589870739E-01  0.51100000000E-03 0.  1.
         11    1    4    4    0    0 -0.29465057703E-01 -0.22809704586E-02 -0.92089344112E-01  0.96716600807E-01  0.51100000000E-03 0. -1.
</event>
<event>
 8    1  0.1099478E+005  0.1043930E+01  0.7957747E-01            NaN
         13   -1    0    0    0    0  0.00000000000E+00  0.00000000000E+00  0.74505805969E-08  0.10566000000E+00  0.10566000000E+00 0.  1.
     999900   -1    0    0    0    0 -0.00000000000E+00 -0.00000000000E+00 -0.74505805969E-08  0.93827000000E+00  0.93827000000E+00 0.  1.
     999902    2    1    2    0    0  0.44813728575E-02  0.20140678282E-01  0.11738648073E-01  0.10201913083E+01  0.10199150847E+01 0.  0.
     999903    2    3    3    0    0  0.11087382514E+00  0.53978577602E-01 -0.41116197273E-01  0.13156428194E+00  0.20295976494E-01 0.  0.
         14    1    1    2    0    0 -0.44813728575E-02 -0.20140678282E-01 -0.11738648073E-01  0.23738691685E-01  0.00000000000E+00 0. -1.
     999901    1    3    3    0    0 -0.10639245228E+00 -0.33837899321E-01  0.52854845346E-01  0.88862702638E+00  0.88000000000E+00 0. -1.
        -11    1    4    4    0    0  0.46892958842E-01  0.33226803146E-01 -0.22985036962E-01  0.61899459459E-01  0.51100000000E-03 0. -1.
         11    1    4    4    0    0  0.63980866300E-01  0.20751774457E-01 -0.18131160310E-01  0.69664822477E-01  0.51100000000E-03 0.  1.
</event>
<event>
 8    1  0.1099478E+005  0.1043930E+01  0.7957747E-01            NaN
         13   -1    0    0    0    0  0.00000000000E+00  0.00000000000E+00  0.74505805969E-08  0.10566000000E+00  0.10566000000E+00 0. -1.
     999900   -1    0    0    0    0 -0.00000000000E+00 -0.00000000000E+00 -0.74505805969E-08  0.93827000000E+00  0.93827000000E+00 0.  1.
     999902    2    1    2    0    0  0.54945174312E-03  0.19434790329E-01  0.12471020306E-01  0.10208315299E+01  0.10205701706E+01 0.  0.
     999903    2    3    3    0    0 -0.24362451601E-01  0.58162178298E-01  0.11586116222E+00  0.13358301065E+00  0.21077091618E-01 0.  0.
         14    1    1    2    0    0 -0.54945174312E-03 -0.19434790329E-01 -0.12471020306E-01  0.23098470075E-01  0.00000000000E+00 0. -1.
     999901    1    3    3    0    0  0.24911903344E-01 -0.38727387969E-01 -0.10339014192E+00  0.88724851927E+00  0.88000000000E+00 0.  1.
        -11    1    4    4    0    0 -0.14744807004E-03  0.24761290493E-01  0.51279378336E-01  0.56947159818E-01  0.51100000000E-03 0. -1.
         11    1    4    4    0    0 -0.24215003531E-01  0.33400887804E-01  0.64581783886E-01  0.76635850833E-01  0.51100000000E-03 0.  1.
</event>
<event>
 8    1  0.1099478E+005  0.1043930E+01  0.7957747E-01            NaN
         13   -1    0    0    0    0  0.00000000000E+00  0.00000000000E+00  0.74505805969E-08  0.10566000000E+00  0.10566000000E+00 0.  1.
     999900   -1    0    0    0    0 -0.00000000000E+00 -0.00000000000E+00 -0.74505805969E-08  0.93827000000E+00  0.93827000000E+00 0. -1.
     999902    2    1    2    0    0 -0.42981829607E-03 -0.23828002408E-01  0.42927974872E-02  0.10197145803E+01  0.10194270149E+01 0.  0.
     999903    2    3    3    0    0  0.30106044393E-01 -0.10336472146E+00 -0.74227058567E-01  0.13212013663E+00  0.18852976625E-01 0.  0.
         14    1    1    2    0    0  0.42981829607E-03  0.23828002408E-01 -0.42927974872E-02  0.24215419732E-01  0.00000000000E+00 0. -1.
     999901    1    3    3    0    0 -0.30535862689E-01  0.79536719050E-01  0.78519856055E-01  0.88759444364E+00  0.88000000000E+00 0. -1.
        -11    1    4    4    0    0  0.22291614024E-01 -0.68500825365E-01 -0.38890193083E-01  0.81865666616E-01  0.51100000000E-03 0.  1.
         11    1    4    4    0    0  0.78144303695E-02 -0.34863896093E-01 -0.35336865485E-01  0.50254470010E-01  0.51100000000E-03 0. -1.
</event>
<event>
 8    1  0.1099478E+005  0.1043930E+01  0.7957747E-01            NaN
         13   -1    0    0    0    0  0.00000000000E+00  0.00000000000E+00  0.74505805969E-08  0.10566000000E+00  0.10566000000E+00 0.  1.
     999900   -1    0    0    0    0 -0.00000000000E+00 -0.00000000000E+00 -0.74505805969E-08  0.93827000000E+00  0.93827000000E+00 0.  1.
     999902    2    1    2    0    0  0.38410498885E-02  0.21302806037E-01  0.76293687855E-02  0.10209785191E+01  0.10207205131E+01 0.  0.
     999903    2    3    3    0    0 -0.49679692034E-02  0.12603352220E+00 -0.38864160436E-01  0.13350583216E+00  0.20106089144E-01 0.  0.
         14    1    1    2    0    0 -0.38410498885E-02 -0.21302806037E-01 -0.76293687855E-02  0.22951480941E-01  0.00000000000E+00 0. -1.
     999901    1    3    3    0    0  0.88090190919E-02 -0.10473071616E+00  0.46493529221E-01  0.88747268689E+00  0.88000000000E+00 0. -1.
        -11    1    4    4    0    0 -0.11130158646E-01  0.47428858957E-01 -0.18063003442E-01  0.51960661157E-01  0.51100000000E-03 0. -1.
         11    1    4    4    0    0  0.61621894424E-02  0.78604663238E-01 -0.20801156993E-01  0.81545171008E-01  0.51100000000E-03 0.  1.
</event>
<event>
 8    1  0.1099478E+005  0.1043930E+01  0.7957747E-01            NaN
         13   -1    0    0    0    0  0.00000000000E+00  0.00000000000E+00  0.74505805969E-08  0.10566000000E+00  0.10566000000E+00 0.  1.
     999900   -1    0    0    0    0 -0.00000000000E+00 -0.00000000000E+00 -0.74505805969E-08  0.93827000000E+00  0.93827000000E+00 0. -1.
     999902    2    1    2    0    0 -0.51477808544E-02 -0.45901288021E-02 -0.23351798494E-01  0.10195809667E+01  0.10192901806E+01 0.  0.
     999903    2    3    3    0    0  0.16003728480E-01 -0.40249222654E-01  0.11801995127E+00  0.12733384344E+00  0.20225714751E-01 0.  0.
         14    1    1    2    0    0  0.51477808544E-02  0.45901288021E-02  0.23351798494E-01  0.24349033308E-01  0.00000000000E+00 0.  1.
     999901    1    3    3    0    0 -0.21151509334E-01  0.35659093852E-01 -0.14137174977E+00  0.89224712325E+00  0.88000000000E+00 0. -1.
        -11    1    4    4    0    0  0.14357285327E-01 -0.10162991964E-01  0.40221026511E-01  0.43902279465E-01  0.51100000000E-03 0.  1.
         11    1    4    4    0    0  0.16464431530E-02 -0.30086230690E-01  0.77798924761E-01  0.83431563974E-01  0.51100000000E-03 0. -1.
</event>
<event>
 8    1  0.1099478E+005  0.1043930E+01  0.7957747E-01            NaN
         13   -1    0    0    0    0  0.00000000000E+00  0.00000000000E+00  0.74505805969E-08  0.10566000000E+00  0.10566000000E+00 0.  1.
     999900   -1    0    0    0    0 -0.00000000000E+00 -0.00000000000E+00 -0.74505805969E-08  0.93827000000E+00  0.93827000000E+00 0. -1.
     999902    2    1    2    0    0 -0.33320832820E-02 -0.16594234219E-01 -0.16327446296E-01  0.10204128384E+01  0.10201418057E+01 0.  0.
     999903    2    3    3    0    0  0.81240388549E-01 -0.80403059796E-01 -0.64237907533E-01  0.13276455132E+00  0.20862995172E-01 0.  0.
         14    1    1    2    0    0  0.33320832820E-02  0.16594234219E-01  0.16327446296E-01  0.23517161624E-01  0.00000000000E+00 0.  1.
     999901    1    3    3    0    0 -0.84572471831E-01  0.63808825576E-01  0.47910461237E-01  0.88764828705E+00  0.88000000000E+00 0.  1.
        -11    1    4    4    0    0  0.27966078459E-01 -0.40038082563E-01 -0.33286228423E-01  0.59104853636E-01  0.51100000000E-03 0.  1.
         11    1    4    4    0    0  0.53274310090E-01 -0.40364977233E-01 -0.30951679110E-01  0.73659697686E-01  0.51100000000E-03 0. -1.
</event>
<event>
 8    1  0.1099478E+005  0.1043930E+01  0.7957747E-01            NaN
         13   -1    0    0    0    0  0.00000000000E+00  0.00000000000E+00  0.74505805969E-08  0.10566000000E+00  0.10566000000E+00 0.  1.
     999900   -1    0    0    0    0 -0.00000000000E+00 -0.00000000000E+00 -0.74505805969E-08  0.93827000000E+00  0.93827000000E+00 0. -1.
     999902    2    1    2    0    0 -0.16532173220E-01 -0.92779621811E-02 -0.13662362319E-01  0.10205622128E+01  0.10202946519E+01 0.  0.
     999903    2    3    3    0    0  0.87714752196E-01  0.11552208850E-01 -0.93943560401E-01  0.13053615239E+00  0.19671381668E-01 0.  0.
         14    1    1    2    0    0  0.16532173220E-01  0.92779621811E-02  0.13662362319E-01  0.23367787181E-01  0.00000000000E+00 0.  1.
     999901    1    3    3    0    0 -0.10424692542E+00 -0.20830171032E-01  0.80281198082E-01  0.89002606043E+00  0.88000000000E+00 0.  1.
        -11    1    4    4    0    0  0.50014544922E-01  0.12537383778E-01 -0.42943465792E-01  0.67104717203E-01  0.51100000000E-03 0. -1.
         11    1    4    4    0    0  0.37700207274E-01 -0.98517492717E-03 -0.51000094610E-01  0.63431435183E-01  0.51100000000E-03 0.  1.
</event>
<event>
 8    1  0.1099478E+005  0.1043930E+01  0.7957747E-01            NaN
         13   -1    0    0    0    0  0.00000000000E+00  0.00000000000E+00  0.74505805969E-08  0.10566000000E+00  0.10566000000E+00 0. -1.
     999900   -1    0    0    0    0 -0.00000000000E+00 -0.00000000000E+00 -0.74505805969E-08  0.93827000000E+00  0.93827000000E+00 0.  1.
     999902    2    1    2    0    0 -0.84768552881E-02 -0.47087653114E-02 -0.22625203662E-01  0.10193143670E+01  0.10190170997E+01 0.  0.
     999903    2    3    3    0    0 -0.30053460265E-01 -0.45029278491E-01  0.11390115309E+00  0.12761332981E+00  0.19515196020E-01 0.  0.
         14    1    1    2    0    0  0.84768552881E-02  0.47087653114E-02  0.22625203662E-01  0.24615632981E-01  0.00000000000E+00 0. -1.
     999901    1    3    3    0    0  0.21576604977E-01  0.40320513180E-01 -0.13652635675E+00  0.89170103721E+00  0.88000000000E+00 0.  1.
        -11    1    4    4    0    0 -0.18051544458E-02 -0.19120044690E-01  0.37647763719E-01  0.42266416048E-01  0.51100000000E-03 0. -1.
         11    1    4    4    0    0 -0.28248305819E-01 -0.25909233801E-01  0.76253389371E-01  0.85346913766E-01  0.51100000000E-03 0.  1.
</event>
<event>
 8    1  0.1099478E+005  0.1043930E+01  0.7957747E-01            NaN
         13   -1    0    0    0    0  0.00000000000E+00  0.00000000000E+00  0.74505805969E-08  0.10566000000E+00  0.10566000000E+00 0.  1.
     999900   -1    0    0    0    0 -0.00000000000E+00 -0.00000000000E+00 -0.74505805969E-08  0.93827000000E+00  0.93827000000E+00 0. -1.
     999902    2    1    2    0    0  0.15533851624E-01  0.18027435097E-01 -0.79072410897E-02  0.10188538475E+01  0.10185452121E+01 0.  0.
     999903    2    3    3    0    0  0.43052750243E-02 -0.39481399381E-01 -0.12142539287E+00  0.12962962507E+00  0.21963546471E-01 0.  0.
         14    1    1    2    0    0 -0.15533851624E-01 -0.18027435097E-01  0.79072410897E-02  0.25076152497E-01  0.00000000000E+00 0. -1.
     999901    1    3    3    0    0  0.11228576599E-01  0.57508834478E-01  0.11351815178E+00  0.88922422243E+00  0.88000000000E+00 0.  1.
        -11    1    4    4    0    0  0.29741363448E-02 -0.19271133078E-01 -0.91058810390E-01  0.93124594645E-01  0.51100000000E-03 0. -1.
         11    1    4    4    0    0  0.13311386795E-02 -0.20210266303E-01 -0.30366582475E-01  0.36505030427E-01  0.51100000000E-03 0.  1.
</event>
<event>
 8    1  0.1099478E+005  0.1043930E+01  0.7957747E-01            NaN
         13   -1    0    0    0    0  0.00000000000E+00  0.00000000000E+00  0.74505805969E-08  0.10566000000E+00  0.10566000000E+00 0.  1.
     999900   -1    0    0    0    0 -0.00000000000E+00 -0.00000000000E+00 -0.74505805969E-08  0.93827000000E+00  0.93827000000E+00 0.  1.
     999902    2    1    2    0    0 -0.22995703689E-03  0.17940686945E-01  0.14708931760E-01  0.10207292715E+01  0.10204655663E+01 0.  0.
     999903    2    3    3    0    0  0.75234701112E-01 -0.95885938080E-01  0.39746226038E-01  0.12984303788E+00  0.20617435060E-01 0.  0.
         14    1    1    2    0    0  0.22995703689E-03 -0.17940686945E-01 -0.14708931760E-01  0.23200728476E-01  0.00000000000E+00 0. -1.
     999901    1    3    3    0    0 -0.75464658149E-01  0.11382662502E+00 -0.25037294279E-01  0.89088623365E+00  0.88000000000E+00 0.  1.
        -11    1    4    4    0    0  0.66519488055E-01 -0.71273220774E-01  0.31091856830E-01  0.10233122189E+00  0.51100000000E-03 0. -1.
         11    1    4    4    0    0  0.87152130568E-02 -0.24612717306E-01  0.86543692080E-02  0.27511815992E-01  0.51100000000E-03 0.  1.
</event>
<event>
 8    1  0.1099478E+005  0.1043930E+01  0.7957747E-01            NaN
         13   -1    0    0    0    0  0.00000000000E+00  0.00000000000E+00  0.74505805969E-08  0.10566000000E+00  0.10566000000E+00 0. -1.
     999900   -1    0    0    0    0 -0.00000000000E+00 -0.00000000000E+00 -0.74505805969E-08  0.93827000000E+00  0.93827000000E+00 0. -1.
     999902    2    1    2    0    0  0.17553942749E-01  0.76335924227E-02 -0.11538774216E-01  0.10215792517E+01  0.10213347206E+01 0.  0.
     999903    2    3    3    0    0 -0.12643917714E+00  0.16315949292E-01  0.11024452866E-01  0.12954870227E+00  0.20205246409E-01 0.  0.
         14    1    1    2    0    0 -0.17553942749E-01 -0.76335924227E-02  0.11538774216E-01  0.22350748303E-01  0.00000000000E+00 0. -1.
     999901    1    3    3    0    0  0.14399311989E+00 -0.86823568693E-02 -0.22563227081E-01  0.89203054943E+00  0.88000000000E+00 0. -1.
        -11    1    4    4    0    0 -0.61049998472E-01  0.18809964615E-02  0.13429699512E-01  0.62540054454E-01  0.51100000000E-03 0. -1.
         11    1    4    4    0    0 -0.65389178665E-01  0.14434952831E-01 -0.24052466458E-02  0.67008647816E-01  0.51100000000E-03 0.  1.
</event>
<event>
 8    1  0.1099478E+005  0.1043930E+01  0.7957747E-01            NaN
         13   -1    0    0    0    0  0.00000000000E+00  0.00000000000E+00  0.74505805969E-08  0.10566000000E+00  0.10566000000E+00 0. -1.
     999900   -1    0    0    0    0 -0.00000000000E+00 -0.00000000000E+00 -0.74505805969E-08  0.93827000000E+00  0.93827000000E+00 0. -1.
     999902    2    1    2    0    0  0.14443379329E-01  0.17531114406E-01  0.63329985914E-02  0.10203491169E+01  0.10200765962E+01 0.  0.
     999903    2    3    3    0    0  0.65044324671E-01  0.29060899662E-01  0.11027273451E+00  0.13271357209E+00  0.19429775624E-01 0.  0.
         14    1    1    2    0    0 -0.14443379329E-01 -0.17531114406E-01 -0.63329985914E-02  0.23580883146E-01  0.00000000000E+00 0.  1.
     999901    1    3    3    0    0 -0.50600945342E-01 -0.11529785256E-01 -0.10393973592E+00  0.88763554476E+00  0.88000000000E+00 0. -1.
        -11    1    4    4    0    0  0.41501471615E-01  0.26303116850E-01  0.63666795319E-01  0.80423554071E-01  0.51100000000E-03 0. -1.
         11    1    4    4    0    0  0.23542853056E-01  0.27577828120E-02  0.46605939191E-01  0.52290018024E-01  0.51100000000E-03 0.  1.
</event>
<event>
 8    1  0.1099478E+005  0.1043930E+01  0.7957747E-01            NaN
         13   -1    0    0    0    0  0.00000000000E+00  0.00000000000E+00  0.74505805969E-08  0.10566000000E+00  0.10566000000E+00 0. -1.
     999900   -1    0    0    0    0 -0.00000000000E+00 -0.00000000000E+00 -0.74505805969E-08  0.93827000000E+00  0.93827000000E+00 0.  1.
     999902    2    1    2    0    0 -0.18375549585E-02 -0.21445971093E-01 -0.26098004349E-01  0.10101008393E+01  0.10095341962E+01 0.  0.
     999903    2    3    3    0    0 -0.66510725303E-01 -0.57774089672E-01  0.79949179905E-01  0.12063563116E+00  0.19989049996E-01 0.  0.
         14    1    1    2    0    0  0.18375549585E-02  0.21445971093E-01  0.26098004349E-01  0.33829160725E-01  0.00000000000E+00 0. -1.
     999901    1    3    3    0    0  0.64673170344E-01  0.36328118579E-01 -0.10604718425E+00  0.88946520812E+00  0.88000000000E+00 0.  1.
        -11    1    4    4    0    0 -0.44343828587E-01 -0.37924044857E-01  0.39686681958E-01  0.70568421818E-01  0.51100000000E-03 0.  1.
         11    1    4    4    0    0 -0.22166896716E-01 -0.19850044815E-01  0.40262497947E-01  0.50067209340E-01  0.51100000000E-03 0. -1.
</event>
<event>
 8    1  0.1099478E+005  0.1043930E+01  0.7957747E-01            NaN
         13   -1    0    0    0    0  0.00000000000E+00  0.00000000000E+00  0.74505805969E-08  0.10566000000E+00  0.10566000000E+00 0. -1.
     999900   -1    0    0    0    0 -0.00000000000E+00 -0.00000000000E+00 -0.74505805969E-08  0.93827000000E+00  0.93827000000E+00 0.  1.
     999902    2    1    2    0    0 -0.10200961549E-01 -0.20481153112E-01 -0.22535905117E-02  0.10209383511E+01  0.10206794310E+01 0.  0.
     999903    2    3    3    0    0  0.20333071709E-02  0.26002067009E-01 -0.12667552078E+00  0.13088712570E+00  0.20112441011E-01 0.  0.
         14    1    1    2    0    0  0.10200961549E-01  0.20481153112E-01  0.22535905117E-02  0.22991648908E-01  0.00000000000E+00 0. -1.
     999901    1    3    3    0    0 -0.12234268720E-01 -0.46483220121E-01  0.12442193027E+00  0.89005122539E+00  0.88000000000E+00 0. -1.
        -11    1    4    4    0    0  0.77383803774E-02  0.19242404348E-01 -0.11062456998E+00  0.11255313972E+00  0.51100000000E-03 0.  1.
         11    1    4    4    0    0 -0.57050732065E-02  0.67596626605E-02 -0.16050950799E-01  0.18333985986E-01  0.51100000000E-03 0. -1.
</event>
<event>
 8    1  0.1099478E+005  0.1043930E+01  0.7957747E-01            NaN
         13   -1    0    0    0    0  0.00000000000E+00  0.00000000000E+00  0.74505805969E-08  0.10566000000E+00  0.10566000000E+00 0. -1.
     999900   -1    0    0    0    0 -0.00000000000E+00 -0.00000000000E+00 -0.74505805969E-08  0.93827000000E+00  0.93827000000E+00 0.  1.
     999902    2    1    2    0    0 -0.13161451981E-01  0.61727853707E-02  0.18124931238E-01  0.10206955379E+01  0.10204310564E+01 0.  0.
     999903    2    3    3    0    0  0.30142783129E-02  0.11760571064E+00  0.57946456148E-01  0.13262757600E+00  0.19801340523E-01 0.  0.
         14    1    1    2    0    0  0.13161451981E-01 -0.61727853707E-02 -0.18124931238E-01  0.23234462117E-01  0.00000000000E+00 0.  1.
     999901    1    3    3    0    0 -0.16175730293E-01 -0.11143292527E+00 -0.39821524910E-01  0.88806796189E+00  0.88000000000E+00 0.  1.
        -11    1    4    4    0    0  0.18763445355E-02  0.73061511094E-01  0.25132838026E-01  0.77287940459E-01  0.51100000000E-03 0.  1.
         11    1    4    4    0    0  0.11379337774E-02  0.44544199542E-01  0.32813618122E-01  0.55339635537E-01  0.51100000000E-03 0. -1.
</event>
<event>
 8    1  0.1099478E+005  0.1043930E+01  0.7957747E-01            NaN
         13   -1    0    0    0    0  0.00000000000E+00  0.00000000000E+00  0.74505805969E-08  0.10566000000E+00  0.10566000000E+00 0. -1.
     999900   -1    0    0    0    0 -0.00000000000E+00 -0.00000000000E+00 -0.74505805969E-08  0.93827000000E+00  0.93827000000E+00 0. -1.
     999902    2    1    2    0    0 -0.13963351272E-01  0.18622964240E-01  0.29759761878E-02  0.10204641437E+01  0.10201943061E+01 0.  0.
     999903    2    3    3    0    0 -0.25381392890E-01 -0.11053398064E+00  0.59052653683E-01  0.12919735885E+00  0.18513931117E-01 0.  0.
         14    1    1    2    0    0  0.13963351272E-01 -0.18622964240E-01 -0.29759761878E-02  0.23465856261E-01  0.00000000000E+00 0.  1.
     999901    1    3    3    0    0  0.11418041618E-01  0.12915694488E+00 -0.56076677495E-01  0.89126678489E+00  0.88000000000E+00 0. -1.
        -11    1    4    4    0    0 -0.25318100962E-01 -0.83506407636E-01  0.39221778462E-01  0.95670974592E-01  0.51100000000E-03 0. -1.
         11    1    4    4    0    0 -0.63291927979E-04 -0.27027573006E-01  0.19830875220E-01  0.33526384259E-01  0.51100000000E-03 0.  1.
</event>
<event>
 8    1  0.1099478E+005  0.1043930E+01  0.7957747E-01            NaN
         13   -1    0    0    0    0  0.00000000000E+00  0.00000000000E+00  0.74505805969E-08  0.10566000000E+00  0.10566000000E+00 0.  1.
     999900   -1    0    0    0    0 -0.00000000000E+00 -0.00000000000E+00 -0.74505805969E-08  0.93827000000E+00  0.93827000000E+00 0. -1.
     999902    2    1    2    0    0 -0.32072437424E-02 -0.62628632358E-02  0.22909435628E-01  0.10199643556E+01  0.10196827618E+01 0.  0.
     999903    2    3    3    0    0 -0.64452262215E-01 -0.25884039191E-01  0.11176613297E+00  0.13315464918E+00  0.20357173907E-01 0.  0.
         14    1    1    2    0    0  0.32072437424E-02  0.62628632358E-02 -0.22909435628E-01  0.23965644351E-01  0.00000000000E+00 0.  1.
     999901    1    3    3    0    0  0.61245018472E-01  0.19621175955E-01 -0.88856697338E-01  0.88680970647E+00  0.88000000000E+00 0. -1.
        -11    1    4    4    0    0 -0.25477970016E-01 -0.11333315444E-01  0.63980660730E-01  0.69795107733E-01  0.51100000000E-03 0.  1.
         11    1    4    4    0    0 -0.38974292199E-01 -0.14550723747E-01  0.47785472237E-01  0.63359541443E-01  0.51100000000E-03 0. -1.
</event>
<event>
 8    1  0.1099478E+005  0.1043930E+01  0.7957747E-01            NaN
         13   -1    0    0    0    0  0.00000000000E+00  0.00000000000E+00  0.74505805969E-08  0.10566000000E+00  0.10566000000E+00 0. -1.
     999900   -1    0    0    0    0 -0.00000000000E+00 -0.00000000000E+00 -0.74505805969E-08  0.93827000000E+00  0.93827000000E+00 0. -1.
     999902    2    1    2    0    0 -0.19608746730E-01 -0.10921389252E-01  0.66421656527E-02  0.10205227777E+01  0.10202543025E+01 0.  0.
     999903    2    3    3    0    0  0.85221483147E-01  0.71061310743E-01  0.61945239284E-01  0.12880030397E+00  0.20973663441E-01 0.  0.
         14    1    1    2    0    0  0.19608746730E-01  0.10921389252E-01 -0.66421656527E-02  0.23407222306E-01  0.00000000000E+00 0.  1.
     999901    1    3    3    0    0 -0.10483022988E+00 -0.81982699995E-01 -0.55303073631E-01  0.89172247373E+00  0.88000000000E+00 0.  1.
        -11    1    4    4    0    0  0.30324563681E-01  0.12937277744E-01  0.18346202819E-01  0.37733229344E-01  0.51100000000E-03 0.  1.
         11    1    4    4    0    0  0.54896919466E-01  0.58124032999E-01  0.43599036464E-01  0.91067074624E-01  0.51100000000E-03 0. -1.
</event>
<event>
 8    1  0.1099478E+005  0.1043930E+01  0.7957747E-01            NaN
         13   -1    0    0    0    0  0.00000000000E+00  0.00000000000E+00  0.74505805969E-08  0.10566000000E+00  0.10566000000E+00 0.  1.
     999900   -1    0    0    0    0 -0.00000000000E+00 -0.00000000000E+00 -0.74505805969E-08  0.93827000000E+00  0.93827000000E+00 0.  1.
     999902    2    1    2    0    0  0.17041502805E-01  0.10688286108E-01 -0.17130301024E-01  0.10175084275E+01  0.10171653261E+01 0.  0.
     999903    2    3    3    0    0 -0.22984631816E-01  0.92609043998E-01 -0.86208944401E-01  0.13010493364E+00  0.19763181242E-01 0.  0.
         14    1    1    2    0    0 -0.17041502805E-01 -0.10688286108E-01  0.17130301024E-01  0.26421572454E-01  0.00000000000E+00 0.  1.
     999901    1    3    3    0    0  0.40026134620E-01 -0.81920757889E-01  0.69078643377E-01  0.88740349391E+00  0.88000000000E+00 0. -1.
        -11    1    4    4    0    0 -0.92813588803E-02  0.71553239555E-01 -0.60588736329E-01  0.94219243281E-01  0.51100000000E-03 0. -1.
         11    1    4    4    0    0 -0.13703272936E-01  0.21055804442E-01 -0.25620208072E-01  0.35885690359E-01  0.51100000000E-03 0.  1.
</event>
<event>
 8    1  0.1099478E+005  0.1043930E+01  0.7957747E-01            NaN
         13   -1    0    0    0    0  0.00000000000E+00  0.00000000000E+00  0.74505805969E-08  0.10566000000E+00  0.10566000000E+00 0. -1.
     999900   -1    0    0    0    0 -0.00000000000E+00 -0.00000000000E+00 -0.74505805969E-08  0.93827000000E+00  0.93827000000E+00 0.  1.
     999902    2    1    2    0    0 -0.12193189137E-01  0.16024632748E-01  0.12808441685E-01  0.10200654050E+01  0.10197862088E+01 0.  0.
     999903    2    3    3    0    0  0.81954301905E-01  0.96841292860E-01  0.26909877619E-01  0.13124937617E+00  0.20186966757E-01 0.  0.
         14    1    1    2    0    0  0.12193189137E-01 -0.16024632748E-01 -0.12808441685E-01  0.23864594998E-01  0.00000000000E+00 0.  1.
     999901    1    3    3    0    0 -0.94147491042E-01 -0.80816660112E-01 -0.14101435934E-01  0.88881602884E+00  0.88000000000E+00 0. -1.
        -11    1    4    4    0    0  0.75992959039E-01  0.78951415663E-01  0.23637837531E-01  0.11210381056E+00  0.51100000000E-03 0.  1.
         11    1    4    4    0    0  0.59613428660E-02  0.17889877197E-01  0.32720400881E-02  0.19145565602E-01  0.51100000000E-03 0. -1.
</event>
<event>
 8    1  0.1099478E+005  0.1043930E+01  0.7957747E-01            NaN
         13   -1    0    0    0    0  0.00000000000E+00  0.00000000000E+00  0.74505805969E-08  0.10566000000E+00  0.10566000000E+00 0. -1.
     999900   -1    0    0    0    0 -0.00000000000E+00 -0.00000000000E+00 -0.74505805969E-08  0.93827000000E+00  0.93827000000E+00 0.  1.
     999902    2    1    2    0    0  0.22252525715E-01  0.62478883181E-02 -0.63950318574E-02  0.10199486022E+01  0.10196666336E+01 0.  0.
     999903    2    3    3    0    0 -0.23914499573E-02  0.10050219493E+00  0.80266675289E-01  0.13034113181E+00  0.20968101033E-01 0.  0.
         14    1    1    2    0    0 -0.22252525715E-01 -0.62478883181E-02  0.63950318574E-02  0.23981397824E-01  0.00000000000E+00 0.  1.
     999901    1    3    3    0    0  0.24643975673E-01 -0.94254306607E-01 -0.86661707146E-01  0.88960747037E+00  0.88000000000E+00 0.  1.
        -11    1    4    4    0    0  0.44960832596E-02  0.11491697594E-01  0.41785298521E-02  0.13038217325E-01  0.51100000000E-03 0. -1.
         11    1    4    4    0    0 -0.68875332169E-02  0.89010497331E-01  0.76088145437E-01  0.11730291448E+00  0.51100000000E-03 0.  1.
</event>
<event>
 8    1  0.1099478E+005  0.1043930E+01  0.7957747E-01            NaN
         13   -1    0    0    0    0  0.00000000000E+00  0.00000000000E+00  0.74505805969E-08  0.10566000000E+00  0.10566000000E+00 0.  1.
     999900   -1    0    0    0    0 -0.00000000000E+00 -0.00000000000E+00 -0.74505805969E-08  0.93827000000E+00  0.93827000000E+00 0. -1.
     999902    2    1    2    0    0  0.13767409492E-01 -0.18860841690E-01  0.20733759387E-02  0.10204870522E+01  0.10202177473E+01 0.  0.
     999903    2    3    3    0    0 -0.12559794629E+00  0.13834028319E-01  0.15784419749E-01  0.12881466302E+00  0.19438236799E-01 0.  0.
         14    1    1    2    0    0 -0.13767409492E-01  0.18860841690E-01 -0.20733759387E-02  0.23442947792E-01  0.00000000000E+00 0. -1.
     999901    1    3    3    0    0  0.13936535578E+00 -0.32694870009E-01 -0.13711043810E-01  0.89167238919E+00  0.88000000000E+00 0.  1.
        -11    1    4    4    0    0 -0.96892319345E-01  0.18094448662E-01  0.87944419258E-02  0.98960264502E-01  0.51100000000E-03 0. -1.
         11    1    4    4    0    0 -0.28705626948E-01 -0.42604203438E-02  0.69899778230E-02  0.29854398519E-01  0.51100000000E-03 0.  1.
</event>
<event>
 8    1  0.1099478E+005  0.1043930E+01  0.7957747E-01            NaN
         13   -1    0    0    0    0  0.00000000000E+00  0.00000000000E+00  0.74505805969E-08  0.10566000000E+00  0.10566000000E+00 0. -1.
     999900   -1    0    0    0    0 -0.00000000000E+00 -0.00000000000E+00 -0.74505805969E-08  0.93827000000E+00  0.93827000000E+00 0. -1.
     999902    2    1    2    0    0 -0.23087886043E-01 -0.31981430198E-03 -0.30777962973E-02  0.10206356747E+01  0.10203698128E+01 0.  0.
     999903    2    3    3    0    0 -0.74085622509E-01  0.61621638300E-01 -0.89243205020E-01  0.13279447808E+00  0.19598928480E-01 0.  0.
         14    1    1    2    0    0  0.23087886043E-01  0.31981430198E-03  0.30777962973E-02  0.23294325343E-01  0.00000000000E+00 0. -1.
     999901    1    3    3    0    0  0.50997736466E-01 -0.61941452602E-01  0.86165408723E-01  0.88784119657E+00  0.88000000000E+00 0.  1.
        -11    1    4    4    0    0 -0.47376350861E-01  0.26975443321E-01 -0.47075061544E-01  0.72031352227E-01  0.51100000000E-03 0. -1.
         11    1    4    4    0    0 -0.26709271648E-01  0.34646194979E-01 -0.42168143476E-01  0.60763125855E-01  0.51100000000E-03 0.  1.
</event>
<event>
 8    1  0.1099478E+005  0.1043930E+01  0.7957747E-01            NaN
         13   -1    0    0    0    0  0.00000000000E+00  0.00000000000E+00  0.74505805969E-08  0.10566000000E+00  0.10566000000E+00 0. -1.
     999900   -1    0    0    0    0 -0.00000000000E+00 -0.00000000000E+00 -0.74505805969E-08  0.93827000000E+00  0.93827000000E+00 0.  1.
     999902    2    1    2    0    0 -0.24137452897E-01 -0.71541765715E-02 -0.14460919989E-01  0.10148969657E+01  0.10144816084E+01 0.  0.
     999903    2    3    3    0    0  0.78153707682E-01  0.60715089346E-01 -0.73530666567E-01  0.12441453815E+00  0.16670161297E-01 0.  0.
         14    1    1    2    0    0  0.24137452897E-01  0.71541765715E-02  0.14460919989E-01  0.29033034318E-01  0.00000000000E+00 0. -1.
     999901    1    3    3    0    0 -0.10229116058E+00 -0.67869265917E-01  0.59069746578E-01  0.89048242754E+00  0.88000000000E+00 0. -1.
        -11    1    4    4    0    0  0.14554861350E-01  0.18584892089E-01 -0.12493395912E-01  0.26713072929E-01  0.51100000000E-03 0.  1.
         11    1    4    4    0    0  0.63598846333E-01  0.42130197257E-01 -0.61037270655E-01  0.97701465218E-01  0.51100000000E-03 0. -1.
</event>
<event>
 7    1  0.1099478E+005  0.1043930E+01  0.7957747E-01            NaN
         13   -1    0    0    0    0  0.00000000000E+00  0.00000000000E+00  0.74505805969E-08  0.10566000000E+00  0.10566000000E+00 0.  1.
     999900   -1    0    0    0    0 -0.00000000000E+00 -0.00000000000E+00 -0.74505805969E-08  0.93827000000E+00  0.93827000000E+00 0.  1.
     999903    2    1    2    0    0 -0.24206986807E-01  0.86397917790E-01 -0.30649699965E-01  0.96857935408E-01  0.19785781125E-01 0.  0.
         14    1    1    2    0    0  0.98207814772E-02 -0.14499131614E-01 -0.57051019130E-01  0.59678231794E-01  0.00000000000E+00 0.  1.
     999901    1    1    2    0    0  0.14386205330E-01 -0.71898786177E-01  0.87700719095E-01  0.88739383280E+00  0.88000000000E+00 0. -1.
        -11    1    3    3    0    0 -0.18817284169E-01  0.80367831117E-01 -0.22937045005E-01  0.85670576142E-01  0.51100000000E-03 0. -1.
         11    1    3    3    0    0 -0.53897026382E-02  0.60300866739E-02 -0.77126549600E-02  0.11187359266E-01  0.51100000000E-03 0.  1.
</event>
<event>
 8    1  0.1099478E+005  0.1043930E+01  0.7957747E-01            NaN
         13   -1    0    0    0    0  0.00000000000E+00  0.00000000000E+00  0.74505805969E-08  0.10566000000E+00  0.10566000000E+00 0.  1.
     999900   -1    0    0    0    0 -0.00000000000E+00 -0.00000000000E+00 -0.74505805969E-08  0.93827000000E+00  0.93827000000E+00 0. -1.
     999902    2    1    2    0    0 -0.20986215370E-02  0.13124557140E-01 -0.19519155062E-01  0.10203152667E+01  0.10200419540E+01 0.  0.
     999903    2    3    3    0    0  0.45021891101E-02  0.31038576181E-02  0.12662949909E+00  0.12818107603E+00  0.19116866246E-01 0.  0.
         14    1    1    2    0    0  0.20986215370E-02 -0.13124557140E-01  0.19519155062E-01  0.23614733257E-01  0.00000000000E+00 0.  1.
     999901    1    3    3    0    0 -0.66008106471E-02  0.10020699522E-01 -0.14614865415E+00  0.89213419071E+00  0.88000000000E+00 0. -1.
        -11    1    4    4    0    0 -0.19801423502E-02  0.26143986687E-02  0.11323492469E+00  0.11328356163E+00  0.51100000000E-03 0. -1.
         11    1    4    4    0    0  0.64823314603E-02  0.48945894945E-03  0.13394574396E-01  0.14897514406E-01  0.51100000000E-03 0.  1.
</event>
<event>
 8    1  0.1099478E+005  0.1043930E+01  0.7957747E-01            NaN
         13   -1    0    0    0    0  0.00000000000E+00  0.00000000000E+00  0.74505805969E-08  0.10566000000E+00  0.10566000000E+00 0. -1.
     999900   -1    0    0    0    0 -0.00000000000E+00 -0.00000000000E+00 -0.74505805969E-08  0.93827000000E+00  0.93827000000E+00 0. -1.
     999902    2    1    2    0    0  0.20043800102E-01  0.51395650027E-02 -0.11962122407E-01  0.10200289242E+01  0.10197488636E+01 0.  0.
     999903    2    3    3    0    0  0.69490137861E-01  0.46505001358E-01 -0.10173922255E+00  0.13311519259E+00  0.19421397556E-01 0.  0.
         14    1    1    2    0    0 -0.20043800102E-01 -0.51395650027E-02  0.11962122407E-01  0.23901075780E-01  0.00000000000E+00 0. -1.
     999901    1    3    3    0    0 -0.49446337760E-01 -0.41365436355E-01  0.89777100139E-01  0.88691373163E+00  0.88000000000E+00 0.  1.
        -11    1    4    4    0    0  0.22256814560E-01  0.15768835206E-01 -0.48183681222E-01  0.55371023245E-01  0.51100000000E-03 0. -1.
         11    1    4    4    0    0  0.47233323301E-01  0.30736166152E-01 -0.53555541324E-01  0.77744169346E-01  0.51100000000E-03 0.  1.
</event>
<event>
 8    1  0.1099478E+005  0.1043930E+01  0.7957747E-01            NaN
         13   -1    0    0    0    0  0.00000000000E+00  0.00000000000E+00  0.74505805969E-08  0.10566000000E+00  0.10566000000E+00 0. -1.
     999900   -1    0    0    0    0 -0.00000000000E+00 -0.00000000000E+00 -0.74505805969E-08  0.93827000000E+00  0.93827000000E+00 0. -1.
     999902    2    1    2    0    0  0.28303546315E-02 -0.25623370934E-02  0.23105861887E-01  0.10205108341E+01  0.10202420816E+01 0.  0.
     999903    2    3    3    0    0  0.10561232611E+00 -0.40570364175E-01 -0.60589461551E-01  0.12977313366E+00  0.19237086425E-01 0.  0.
         14    1    1    2    0    0 -0.28303546315E-02  0.25623370934E-02 -0.23105861887E-01  0.23419165918E-01  0.00000000000E+00 0.  1.
     999901    1    3    3    0    0 -0.10278197148E+00  0.38008027082E-01  0.83695323438E-01  0.89073770042E+00  0.88000000000E+00 0.  1.
        -11    1    4    4    0    0  0.86046021184E-01 -0.26372329697E-01 -0.42234612923E-01  0.99415497710E-01  0.51100000000E-03 0.  1.
         11    1    4    4    0    0  0.19566304925E-01 -0.14198034478E-01 -0.18354848628E-01  0.30357635953E-01  0.51100000000E-03 0. -1.
</event>
<event>
 8    1  0.1099478E+005  0.1043930E+01  0.7957747E-01            NaN
         13   -1    0    0    0    0  0.00000000000E+00  0.00000000000E+00  0.74505805969E-08  0.10566000000E+00  0.10566000000E+00 0.  1.
     999900   -1    0    0    0    0 -0.00000000000E+00 -0.00000000000E+00 -0.74505805969E-08  0.93827000000E+00  0.93827000000E+00 0. -1.
     999902    2    1    2    0    0 -0.12859596538E-01 -0.19411081121E-01 -0.23723185242E-02  0.10205251460E+01  0.10202567258E+01 0.  0.
     999903    2    3    3    0    0 -0.11280674253E+00  0.51289304129E-01 -0.37783459450E-01  0.13134466641E+00  0.21630481006E-01 0.  0.
         14    1    1    2    0    0  0.12859596538E-01  0.19411081121E-01  0.23723185242E-02  0.23404853954E-01  0.00000000000E+00 0.  1.
     999901    1    3    3    0    0  0.99947145989E-01 -0.70700385250E-01  0.35411140926E-01  0.88918047964E+00  0.88000000000E+00 0.  1.
        -11    1    4    4    0    0 -0.69597341378E-01  0.41437170474E-01 -0.29810349270E-01  0.86311917302E-01  0.51100000000E-03 0. -1.
         11    1    4    4    0    0 -0.43209401149E-01  0.98521336557E-02 -0.79731101803E-02  0.45032749107E-01  0.51100000000E-03 0.  1.
</event>
<event>
 8    1  0.1099478E+005  0.1043930E+01  0.7957747E-01            NaN
         13   -1    0    0    0    0  0.00000000000E+00  0.00000000000E+00  0.74505805969E-08  0.10566000000E+00  0.10566000000E+00 0.  1.
     999900   -1    0    0    0    0 -0.00000000000E+00 -0.00000000000E+00 -0.74505805969E-08  0.93827000000E+00  0.93827000000E+00 0. -1.
     999902    2    1    2    0    0  0.15136754947E-01 -0.13793583513E-01 -0.10366780255E-01  0.10209766902E+01  0.10207186427E+01 0.  0.
     999903    2    3    3    0    0  0.50530770258E-01 -0.37123843588E-01  0.11357129676E+00  0.13128141415E+00  0.20120431077E-01 0.  0.
         14    1    1    2    0    0 -0.15136754947E-01  0.13793583513E-01  0.10366780255E-01  0.22953309767E-01  0.00000000000E+00 0.  1.
     999901    1    3    3    0    0 -0.35394015311E-01  0.23330260076E-01 -0.12393807702E+00  0.88969527609E+00  0.88000000000E+00 0. -1.
        -11    1    4    4    0    0  0.44714541117E-01 -0.37704371019E-01  0.92784746427E-01  0.10968263341E+00  0.51100000000E-03 0.  1.
         11    1    4    4    0    0  0.58162291407E-02  0.58052743045E-03  0.20786550334E-01  0.21598780737E-01  0.51100000000E-03 0. -1.
</event>
<event>
 8    1  0.1099478E+005  0.1043930E+01  0.7957747E-01            NaN
         13   -1    0    0    0    0  0.00000000000E+00  0.00000000000E+00  0.74505805969E-08  0.10566000000E+00  0.10566000000E+00 0. -1.
     999900   -1    0    0    0    0 -0.00000000000E+00 -0.00000000000E+00 -0.74505805969E-08  0.93827000000E+00  0.93827000000E+00 0.  1.
     999902    2    1    2    0    0 -0.20811632375E-01  0.98942549754E-02 -0.38870381992E-02  0.10205605886E+01  0.10202929901E+01 0.  0.
     999903    2    3    3    0    0 -0.11825570511E+00  0.57740484180E-01  0.16260389273E-01  0.13366119870E+00  0.16808940313E-01 0.  0.
         14    1    1    2    0    0  0.20811632375E-01 -0.98942549754E-02  0.38870381992E-02  0.23369411409E-01  0.00000000000E+00 0. -1.
     999901    1    3    3    0    0  0.97444072731E-01 -0.47846229205E-01 -0.20147427472E-01  0.88689938989E+00  0.88000000000E+00 0.  1.
        -11    1    4    4    0    0 -0.97745535172E-01  0.51463478625E-01  0.18803093118E-01  0.11205577500E+00  0.51100000000E-03 0. -1.
         11    1    4    4    0    0 -0.20510169934E-01  0.62770055556E-02 -0.25427038450E-02  0.21605423701E-01  0.51100000000E-03 0.  1.
</event>
<event>
 8    1  0.1099478E+005  0.1043930E+01  0.7957747E-01            NaN
         13   -1    0    0    0    0  0.00000000000E+00  0.00000000000E+00  0.74505805969E-08  0.10566000000E+00  0.10566000000E+00 0. -1.
     999900   -1    0    0    0    0 -0.00000000000E+00 -0.00000000000E+00 -0.74505805969E-08  0.93827000000E+00  0.93827000000E+00 0. -1.
     999902    2    1    2    0    0  0.14420223875E-01 -0.59763895380E-02  0.16682425008E-01  0.10210834818E+01  0.10208278569E+01 0.  0.
     999903    2    3    3    0    0  0.67591234446E-01  0.60659616462E-01  0.95727130985E-01  0.13343739289E+00  0.19841627237E-01 0.  0.
         14    1    1    2    0    0 -0.14420223875E-01  0.59763895380E-02 -0.16682425008E-01  0.22846518174E-01  0.00000000000E+00 0.  1.
     999901    1    3    3    0    0 -0.53171010570E-01 -0.66636006000E-01 -0.79044705977E-01  0.88764608894E+00  0.88000000000E+00 0. -1.
        -11    1    4    4    0    0  0.10071989851E-01  0.13441455182E-01  0.28830131561E-01  0.33369976083E-01  0.51100000000E-03 0. -1.
         11    1    4    4    0    0  0.57519244594E-01  0.47218161280E-01  0.66896999424E-01  0.10006741681E+00  0.51100000000E-03 0.  1.
</event>
<event>
 8    1  0.1099478E+005  0.1043930E+01  0.7957747E-01            NaN
         13   -1    0    0    0    0  0.00000000000E+00  0.00000000000E+00  0.74505805969E-08  0.10566000000E+00  0.10566000000E+00 0.  1.
     999900   -1    0    0    0    0 -0.00000000000E+00 -0.00000000000E+00 -0.74505805969E-08  0.93827000000E+00  0.93827000000E+00 0.  1.
     999902    2    1    2    0    0 -0.20995991596E-01 -0.10084384301E-01 -0.81697676785E-02  0.10192465729E+01  0.10189476458E+01 0.  0.
     999903    2    3    3    0    0  0.62894573997E-01 -0.14125775852E-02  0.10908046655E+00  0.12747280974E+00  0.19825393454E-01 0.  0.
         14    1    1    2    0    0  0.20995991596E-01  0.10084384301E-01  0.81697676785E-02  0.24683427107E-01  0.00000000000E+00 0.  1.
     999901    1    3    3    0    0 -0.83890565593E-01 -0.86718067161E-02 -0.11725023423E+00  0.89177376316E+00  0.88000000000E+00 0.  1.
        -11    1    4    4    0    0  0.25941648412E-01  0.20255059292E-02  0.27591282128E-01  0.37929035936E-01  0.51100000000E-03 0.  1.
         11    1    4    4    0    0  0.36952925585E-01 -0.34380835145E-02  0.81489184423E-01  0.89543773801E-01  0.51100000000E-03 0. -1.
</event>
<event>
 7    1  0.1498258E+005  0.1043930E+01  0.7957747E-01            NaN
         13   -1    0    0    0    0  0.00000000000E+00  0.00000000000E+00  0.74505805969E-08  0.10566000000E+00  0.10566000000E+00 0.  1.
     999900   -1    0    0    0    0 -0.00000000000E+00 -0.00000000000E+00 -0.74505805969E-08  0.93827000000E+00  0.93827000000E+00 0.  1.
     999903    2    1    2    0    0 -0.32949533525E-01 -0.50440437147E-01  0.89671965371E-01  0.10989421087E+00  0.20143652844E-01 0.  0.
         14    1    1    2    0    0  0.16520670900E-01  0.10692873038E-01  0.38956956123E-01  0.43645326568E-01  0.00000000000E+00 0.  1.
     999901    1    1    2    0    0  0.16428862625E-01  0.39747564109E-01 -0.12862892149E+00  0.89039046256E+00  0.88000000000E+00 0.  1.
        -11    1    3    3    0    0 -0.15335773039E-01 -0.75531503005E-02  0.26288719054E-01  0.31362300373E-01  0.51100000000E-03 0.  1.
         11    1    3    3    0    0 -0.17613760487E-01 -0.42887286847E-01  0.63383246317E-01  0.78531910496E-01  0.51100000000E-03 0. -1.
</event>
<event>
 8    1  0.1099478E+005  0.1043930E+01  0.7957747E-01            NaN
         13   -1    0    0    0    0  0.00000000000E+00  0.00000000000E+00  0.74505805969E-08  0.10566000000E+00  0.10566000000E+00 0. -1.
     999900   -1    0    0    0    0 -0.00000000000E+00 -0.00000000000E+00 -0.74505805969E-08  0.93827000000E+00  0.93827000000E+00 0.  1.
     999902    2    1    2    0    0 -0.15573287842E-01 -0.15967015338E-01  0.78949945118E-02  0.10202698265E+01  0.10199954485E+01 0.  0.
     999903    2    3    3    0    0  0.41279960284E-01  0.22756554774E-01 -0.11816276695E+00  0.12862955936E+00  0.19006002771E-01 0.  0.
         14    1    1    2    0    0  0.15573287842E-01  0.15967015338E-01 -0.78949945118E-02  0.23660173527E-01  0.00000000000E+00 0.  1.
     999901    1    3    3    0    0 -0.56853248126E-01 -0.38723570112E-01  0.12605776147E+00  0.89164026711E+00  0.88000000000E+00 0. -1.
        -11    1    4    4    0    0  0.39236725234E-01  0.23434510283E-01 -0.95655861263E-01  0.10601415846E+00  0.51100000000E-03 0.  1.
         11    1    4    4    0    0  0.20432350503E-02 -0.67795550892E-03 -0.22506905692E-01  0.22615400902E-01  0.51100000000E-03 0. -1.
</event>
<event>
 8    1  0.1099478E+005  0.1043930E+01  0.7957747E-01            NaN
         13   -1    0    0    0    0  0.00000000000E+00  0.00000000000E+00  0.74505805969E-08  0.10566000000E+00  0.10566000000E+00 0.  1.
     999900   -1    0    0    0    0 -0.00000000000E+00 -0.00000000000E+00 -0.74505805969E-08  0.93827000000E+00  0.93827000000E+00 0.  1.
     999902    2    1    2    0    0 -0.11853886338E-01 -0.71348160140E-02 -0.18368501737E-01  0.10209338682E+01  0.10206748460E+01 0.  0.
     999903    2    3    3    0    0 -0.10622408978E-01 -0.77516093563E-01 -0.10659675311E+00  0.13372517512E+00  0.19949294571E-01 0.  0.
         14    1    1    2    0    0  0.11853886338E-01  0.71348160140E-02  0.18368501737E-01  0.22996131781E-01  0.00000000000E+00 0. -1.
     999901    1    3    3    0    0 -0.12314773602E-02  0.70381277549E-01  0.88228251374E-01  0.88720869310E+00  0.88000000000E+00 0. -1.
        -11    1    4    4    0    0 -0.21808099109E-02 -0.10667045418E-01 -0.28861312595E-01  0.30850903966E-01  0.51100000000E-03 0.  1.
         11    1    4    4    0    0 -0.84415990667E-02 -0.66849048145E-01 -0.77735440515E-01  0.10287427116E+00  0.51100000000E-03 0. -1.
</event>
<event>
 8    1  0.1099478E+005  0.1043930E+01  0.7957747E-01            NaN
         13   -1    0    0    0    0  0.00000000000E+00  0.00000000000E+00  0.74505805969E-08  0.10566000000E+00  0.10566000000E+00 0. -1.
     999900   -1    0    0    0    0 -0.00000000000E+00 -0.00000000000E+00 -0.74505805969E-08  0.93827000000E+00  0.93827000000E+00 0. -1.
     999902    2    1    2    0    0  0.49080636211E-02 -0.16740849099E-02  0.22984320167E-01  0.10203679410E+01  0.10200958604E+01 0.  0.
     999903    2    3    3    0    0 -0.16260324527E-02 -0.12359077659E+00  0.40600608892E-01  0.13176414421E+00  0.20881959139E-01 0.  0.
         14    1    1    2    0    0 -0.49080636211E-02  0.16740849099E-02 -0.22984320167E-01  0.23562058958E-01  0.00000000000E+00 0.  1.
     999901    1    3    3    0    0  0.65340960738E-02  0.12191669168E+00 -0.17616288724E-01  0.88860379683E+00  0.88000000000E+00 0.  1.
        -11    1    4    4    0    0  0.70466584163E-02 -0.85571166688E-01  0.22456147365E-01  0.88750321907E-01  0.51100000000E-03 0. -1.
         11    1    4    4    0    0 -0.86726908690E-02 -0.38019609898E-01  0.18144461527E-01  0.43013822300E-01  0.51100000000E-03 0.  1.
</event>
<event>
 8    1  0.1099478E+005  0.1043930E+01  0.7957747E-01            NaN
         13   -1    0    0    0    0  0.00000000000E+00  0.00000000000E+00  0.74505805969E-08  0.10566000000E+00  0.10566000000E+00 0. -1.
     999900   -1    0    0    0    0 -0.00000000000E+00 -0.00000000000E+00 -0.74505805969E-08  0.93827000000E+00  0.93827000000E+00 0. -1.
     999902    2    1    2    0    0  0.16140019881E-01  0.55996326594E-02 -0.13924517042E-01  0.10218903017E+01  0.10216526026E+01 0.  0.
     999903    2    3    3    0    0 -0.11481820006E+00  0.56830728256E-01 -0.17119813915E-01  0.13071978463E+00  0.19535181733E-01 0.  0.
         14    1    1    2    0    0 -0.16140019881E-01 -0.55996326594E-02  0.13924517042E-01  0.22039698331E-01  0.00000000000E+00 0. -1.
     999901    1    3    3    0    0  0.13095821994E+00 -0.51231095597E-01  0.31952968724E-02  0.89117051704E+00  0.88000000000E+00 0. -1.
        -11    1    4    4    0    0 -0.14126754807E-01  0.14788709651E-01 -0.35131080462E-02  0.20757509091E-01  0.51100000000E-03 0.  1.
         11    1    4    4    0    0 -0.10069144525E+00  0.42042018605E-01 -0.13606705869E-01  0.10996227553E+00  0.51100000000E-03 0. -1.
</event>
<event>
 8    1  0.1099478E+005  0.1043930E+01  0.7957747E-01            NaN
         13   -1    0    0    0    0  0.00000000000E+00  0.00000000000E+00  0.74505805969E-08  0.10566000000E+00  0.10566000000E+00 0.  1.
     999900   -1    0    0    0    0 -0.00000000000E+00 -0.00000000000E+00 -0.74505805969E-08  0.93827000000E+00  0.93827000000E+00 0.  1.
     999902    2    1    2    0    0 -0.37863764956E-02 -0.20342994489E-01 -0.13974086624E-01  0.10189610359E+01  0.10186550660E+01 0.  0.
     999903    2    3    3    0    0 -0.12987135261E-02  0.92658244658E-01 -0.86824641040E-01  0.12874607769E+00  0.21208424508E-01 0.  0.
         14    1    1    2    0    0  0.37863764956E-02  0.20342994489E-01  0.13974086624E-01  0.24968964110E-01  0.00000000000E+00 0.  1.
     999901    1    3    3    0    0 -0.24876629695E-02 -0.11300123915E+00  0.72850554416E-01  0.89021495820E+00  0.88000000000E+00 0. -1.
        -11    1    4    4    0    0 -0.54067105340E-02  0.56204420301E-01 -0.39707955265E-01  0.69030081939E-01  0.51100000000E-03 0.  1.
         11    1    4    4    0    0  0.41079970079E-02  0.36453824357E-01 -0.47116685775E-01  0.59715995756E-01  0.51100000000E-03 0. -1.
</event>
<event>
 8    1  0.1099478E+005  0.1043930E+01  0.7957747E-01            NaN
         13   -1    0    0    0    0  0.00000000000E+00  0.00000000000E+00  0.74505805969E-08  0.10566000000E+00  0.10566000000E+00 0.  1.
     999900   -1    0    0    0    0 -0.00000000000E+00 -0.00000000000E+00 -0.74505805969E-08  0.93827000000E+00  0.93827000000E+00 0. -1.
     999902    2    1    2    0    0 -0.14553974886E-01 -0.18134876859E-01  0.21518093027E-02  0.10205778646E+01  0.10203106662E+01 0.  0.
     999903    2    3    3    0    0  0.10778199289E-01  0.11475070080E-01 -0.12773660085E+00  0.13019060780E+00  0.19624177665E-01 0.  0.
         14    1    1    2    0    0  0.14553974886E-01  0.18134876859E-01 -0.21518093027E-02  0.23352135383E-01  0.00000000000E+00 0.  1.
     999901    1    3    3    0    0 -0.25332174174E-01 -0.29609946939E-01  0.12988841016E+00  0.89038725682E+00  0.88000000000E+00 0.  1.
        -11    1    4    4    0    0 -0.55005161405E-03  0.12873313670E-01 -0.50844626751E-01  0.52454379723E-01  0.51100000000E-03 0. -1.
         11    1    4    4    0    0  0.11328250903E-01 -0.13982435902E-02 -0.76891974102E-01  0.77736228079E-01  0.51100000000E-03 0.  1.
</event>
<event>
 8    1  0.1099478E+005  0.1043930E+01  0.7957747E-01            NaN
         13   -1    0    0    0    0  0.00000000000E+00  0.00000000000E+00  0.74505805969E-08  0.10566000000E+00  0.10566000000E+00 0.  1.
     999900   -1    0    0    0    0 -0.00000000000E+00 -0.00000000000E+00 -0.74505805969E-08  0.93827000000E+00  0.93827000000E+00 0.  1.
     999902    2    1    2    0    0 -0.15071866897E-01  0.11585230325E-01  0.13400849003E-01  0.10206714212E+01  0.10204063840E+01 0.  0.
     999903    2    3    3    0    0 -0.24250265186E-01  0.10221445281E+00  0.80105121053E-01  0.13345816676E+00  0.18930983328E-01 0.  0.
         14    1    1    2    0    0  0.15071866897E-01 -0.11585230325E-01 -0.13400849003E-01  0.23258578792E-01  0.00000000000E+00 0. -1.
     999901    1    3    3    0    0  0.91783982887E-02 -0.90629222488E-01 -0.66704272050E-01  0.88721325445E+00  0.88000000000E+00 0.  1.
        -11    1    4    4    0    0 -0.80949604634E-02  0.71752376241E-01  0.56107862515E-01  0.91445531537E-01  0.51100000000E-03 0. -1.
         11    1    4    4    0    0 -0.16155304723E-01  0.30462076572E-01  0.23997258538E-01  0.42012635219E-01  0.51100000000E-03 0.  1.
</event>
<event>
 8    1  0.1099478E+005  0.1043930E+01  0.7957747E-01            NaN
         13   -1    0    0    0    0  0.00000000000E+00  0.00000000000E+00  0.74505805969E-08  0.10566000000E+00  0.10566000000E+00 0. -1.
     999900   -1    0    0    0    0 -0.00000000000E+00 -0.00000000000E+00 -0.74505805969E-08  0.93827000000E+00  0.93827000000E+00 0. -1.
     999902    2    1    2    0    0  0.20640360761E-01  0.83560020855E-02 -0.72535994349E-02  0.10205107351E+01  0.10202419804E+01 0.  0.
     999903    2    3    3    0    0 -0.10366416900E+00 -0.56825018393E-01  0.44277191754E-01  0.12789905919E+00  0.20551325560E-01 0.  0.
         14    1    1    2    0    0 -0.20640360761E-01 -0.83560020855E-02  0.72535994349E-02  0.23419264889E-01  0.00000000000E+00 0. -1.
     999901    1    3    3    0    0  0.12430452976E+00  0.65181020478E-01 -0.51530791189E-01  0.89261167592E+00  0.88000000000E+00 0. -1.
        -11    1    4    4    0    0 -0.68928117758E-01 -0.48193518681E-01  0.28810246979E-01  0.88904398725E-01  0.51100000000E-03 0. -1.
         11    1    4    4    0    0 -0.34736051242E-01 -0.86314997113E-02  0.15466944775E-01  0.38994660465E-01  0.51100000000E-03 0.  1.
</event>
<event>
 8    1  0.1099478E+005  0.1043930E+01  0.7957747E-01            NaN
         13   -1    0    0    0    0  0.00000000000E+00  0.00000000000E+00  0.74505805969E-08  0.10566000000E+00  0.10566000000E+00 0. -1.
     999900   -1    0    0    0    0 -0.00000000000E+00 -0.00000000000E+00 -0.74505805969E-08  0.93827000000E+00  0.93827000000E+00 0. -1.
     999902    2    1    2    0    0  0.23216421354E-01  0.24536592905E-02  0.53999340739E-02  0.10199679059E+01  0.10196863965E+01 0.  0.
     999903    2    3    3    0    0  0.63820048373E-02  0.74760024630E-02 -0.12784254022E+00  0.12976445813E+00  0.19961936414E-01 0.  0.
         14    1    1    2    0    0 -0.23216421354E-01 -0.24536592905E-02 -0.53999340739E-02  0.23962094074E-01  0.00000000000E+00 0. -1.
     999901    1    3    3    0    0  0.16834416516E-01 -0.50223431724E-02  0.13324247429E+00  0.89020344780E+00  0.88000000000E+00 0.  1.
        -11    1    4    4    0    0  0.13090479054E-01  0.81528415638E-02 -0.84416864463E-01  0.85815485748E-01  0.51100000000E-03 0.  1.
         11    1    4    4    0    0 -0.67084742172E-02 -0.67683910087E-03 -0.43425675758E-01  0.43948972383E-01  0.51100000000E-03 0. -1.
</event>
<event>
 8    1  0.1099478E+005  0.1043930E+01  0.7957747E-01            NaN
         13   -1    0    0    0    0  0.00000000000E+00  0.00000000000E+00  0.74505805969E-08  0.10566000000E+00  0.10566000000E+00 0. -1.
     999900   -1    0    0    0    0 -0.00000000000E+00 -0.00000000000E+00 -0.74505805969E-08  0.93827000000E+00  0.93827000000E+00 0. -1.
     999902    2    1    2    0    0 -0.12877023018E-01  0.20319386286E-01 -0.20985696765E-02  0.10197825534E+01  0.10194966195E+01 0.  0.
     999903    2    3    3    0    0 -0.10782785045E+00 -0.31483579075E-01 -0.64437227326E-01  0.13097137265E+00  0.19577617468E-01 0.  0.
         14    1    1    2    0    0  0.12877023018E-01 -0.20319386286E-01  0.20985696765E-02  0.24147446563E-01  0.00000000000E+00 0. -1.
     999901    1    3    3    0    0  0.94950827428E-01  0.51802965361E-01  0.62338657650E-01  0.88881118078E+00  0.88000000000E+00 0. -1.
        -11    1    4    4    0    0 -0.41524925741E-01 -0.13683612267E-01 -0.36096696104E-01  0.56699147199E-01  0.51100000000E-03 0.  1.
         11    1    4    4    0    0 -0.66302924705E-01 -0.17799966808E-01 -0.28340531222E-01  0.74272225453E-01  0.51100000000E-03 0. -1.
</event>
<event>
 8    1  0.1099478E+005  0.1043930E+01  0.7957747E-01            NaN
         13   -1    0    0    0    0  0.00000000000E+00  0.00000000000E+00  0.74505805969E-08  0.10566000000E+00  0.10566000000E+00 0.  1.
     999900   -1    0    0    0    0 -0.00000000000E+00 -0.00000000000E+00 -0.74505805969E-08  0.93827000000E+00  0.93827000000E+00 0.  1.
     999902    2    1    2    0    0 -0.33202489549E-02  0.18507425545E-01 -0.40523151626E-02  0.10246953929E+01  0.10245148501E+01 0.  0.
     999903    2    3    3    0    0 -0.75923367692E-01 -0.48773384858E-01 -0.97604403000E-01  0.13421804142E+00  0.18565083507E-01 0.  0.
         14    1    1    2    0    0  0.33202489549E-02 -0.18507425545E-01  0.40523151626E-02  0.19234607134E-01  0.00000000000E+00 0.  1.
     999901    1    3    3    0    0  0.72603118737E-01  0.67280810402E-01  0.93552087837E-01  0.89047735145E+00  0.88000000000E+00 0. -1.
        -11    1    4    4    0    0 -0.35327063494E-01 -0.18712975696E-01 -0.30825711547E-01  0.50484279611E-01  0.51100000000E-03 0.  1.
         11    1    4    4    0    0 -0.40596304198E-01 -0.30060409161E-01 -0.66778691453E-01  0.83733761809E-01  0.51100000000E-03 0. -1.
</event>
<event>
 8    1  0.1099478E+005  0.1043930E+01  0.7957747E-01            NaN
         13   -1    0    0    0    0  0.00000000000E+00  0.00000000000E+00  0.74505805969E-08  0.10566000000E+00  0.10566000000E+00 0. -1.
     999900   -1    0    0    0    0 -0.00000000000E+00 -0.00000000000E+00 -0.74505805969E-08  0.93827000000E+00  0.93827000000E+00 0. -1.
     999902    2    1    2    0    0  0.43579470503E-02  0.21360404151E-01  0.68690032937E-02  0.10210730148E+01  0.10208171529E+01 0.  0.
     999903    2    3    3    0    0 -0.83559536342E-01  0.54593827097E-01  0.85008983921E-01  0.13262504169E+00  0.20004806030E-01 0.  0.
         14    1    1    2    0    0 -0.43579470503E-02 -0.21360404151E-01 -0.68690032937E-02  0.22856985239E-01  0.00000000000E+00 0.  1.
     999901    1    3    3    0    0  0.87917483392E-01 -0.33233422946E-01 -0.78139980628E-01  0.88844797307E+00  0.88000000000E+00 0. -1.
        -11    1    4    4    0    0 -0.35564727768E-01  0.31302752217E-01  0.49597453627E-01  0.68592132820E-01  0.51100000000E-03 0. -1.
         11    1    4    4    0    0 -0.47994808574E-01  0.23291074880E-01  0.35411530294E-01  0.64032908866E-01  0.51100000000E-03 0.  1.
</event>
<event>
 8    1  0.1099478E+005  0.1043930E+01  0.7957747E-01            NaN
         13   -1    0    0    0    0  0.00000000000E+00  0.00000000000E+00  0.74505805969E-08  0.10566000000E+00  0.10566000000E+00 0.  1.
     999900   -1    0    0    0    0 -0.00000000000E+00 -0.00000000000E+00 -0.74505805969E-08  0.93827000000E+00  0.93827000000E+00 0.  1.
     999902    2    1    2    0    0 -0.15455534995E-01 -0.20126830769E-02  0.18341343886E-01  0.10198607385E+01  0.10195766752E+01 0.  0.
     999903    2    3    3    0    0 -0.11828166837E+00 -0.27841429168E-01  0.48777454693E-01  0.13297478488E+00  0.23180920548E-01 0.  0.
         14    1    1    2    0    0  0.15455534995E-01  0.20126830769E-02 -0.18341343886E-01  0.24069261532E-01  0.00000000000E+00 0. -1.
     999901    1    3    3    0    0  0.10282613337E+00  0.25828746091E-01 -0.30436110806E-01  0.88688595359E+00  0.88000000000E+00 0.  1.
        -11    1    4    4    0    0 -0.45961510542E-01  0.59983103600E-03  0.19393174970E-01  0.49891648649E-01  0.51100000000E-03 0. -1.
         11    1    4    4    0    0 -0.72320157828E-01 -0.28441260204E-01  0.29384279723E-01  0.83083136231E-01  0.51100000000E-03 0.  1.
</event>
<event>
 8    1  0.1099478E+005  0.1043930E+01  0.7957747E-01            NaN
         13   -1    0    0    0    0  0.00000000000E+00  0.00000000000E+00  0.74505805969E-08  0.10566000000E+00  0.10566000000E+00 0. -1.
     999900   -1    0    0    0    0 -0.00000000000E+00 -0.00000000000E+00 -0.74505805969E-08  0.93827000000E+00  0.93827000000E+00 0.  1.
     999902    2    1    2    0    0 -0.14476933660E-01 -0.10496112714E-01 -0.15095418986E-01  0.10205286824E+01  0.10202603442E+01 0.  0.
     999903    2    3    3    0    0 -0.11155035457E+00 -0.68246729634E-01 -0.62053743957E-02  0.13326467678E+00  0.24897182511E-01 0.  0.
         14    1    1    2    0    0  0.14476933660E-01  0.10496112714E-01  0.15095418986E-01  0.23401317584E-01  0.00000000000E+00 0. -1.
     999901    1    3    3    0    0  0.97073420906E-01  0.57750616920E-01 -0.88900445904E-02  0.88726400563E+00  0.88000000000E+00 0. -1.
        -11    1    4    4    0    0 -0.18183830285E-01 -0.61682861558E-02  0.68325487837E-02  0.20387355930E-01  0.51100000000E-03 0.  1.
         11    1    4    4    0    0 -0.93366524281E-01 -0.62078443478E-01 -0.13037923179E-01  0.11287732085E+00  0.51100000000E-03 0. -1.
</event>
<event>
 8    1  0.1099478E+005  0.1043930E+01  0.7957747E-01            NaN
         13   -1    0    0    0    0  0.00000000000E+00  0.00000000000E+00  0.74505805969E-08  0.10566000000E+00  0.10566000000E+00 0. -1.
     999900   -1    0    0    0    0 -0.00000000000E+00 -0.00000000000E+00 -0.74505805969E-08  0.93827000000E+00  0.93827000000E+00 0.  1.
     999902    2    1    2    0    0 -0.10024412658E-01 -0.10423064620E-01  0.19864676003E-01  0.10193589911E+01  0.10190628137E+01 0.  0.
     999903    2    3    3    0    0  0.22224674593E-01  0.45329814459E-01  0.11958821291E+00  0.13138761152E+00  0.20313432832E-01 0.  0.
         14    1    1    2    0    0  0.10024412658E-01  0.10423064620E-01 -0.19864676003E-01  0.24571008891E-01  0.00000000000E+00 0. -1.
     999901    1    3    3    0    0 -0.32249087251E-01 -0.55752879079E-01 -0.99723536911E-01  0.88797137959E+00  0.88000000000E+00 0.  1.
        -11    1    4    4    0    0  0.22172447342E-01  0.24345862631E-01  0.64173268856E-01  0.72130492893E-01  0.51100000000E-03 0. -1.
         11    1    4    4    0    0  0.52227250676E-04  0.20983951829E-01  0.55414944058E-01  0.59257118627E-01  0.51100000000E-03 0.  1.
</event>
<event>
 8    1  0.1099478E+005  0.1043930E+01  0.7957747E-01            NaN
         13   -1    0    0    0    0  0.00000000000E+00  0.00000000000E+00  0.74505805969E-08  0.10566000000E+00  0.10566000000E+00 0.  1.
     999900   -1    0    0    0    0 -0.00000000000E+00 -0.00000000000E+00 -0.74505805969E-08  0.93827000000E+00  0.93827000000E+00 0. -1.
     999902    2    1    2    0    0 -0.16049729673E-01  0.54139311571E-02 -0.13957265730E-01  0.10219821131E+01  0.10217464117E+01 0.  0.
     999903    2    3    3    0    0  0.10026262624E+00  0.39461788371E-01  0.70070126963E-01  0.12971061660E+00  0.17469814109E-01 0.  0.
         14    1    1    2    0    0  0.16049729673E-01 -0.54139311571E-02  0.13957265730E-01  0.21947886910E-01  0.00000000000E+00 0.  1.
     999901    1    3    3    0    0 -0.11631235591E+00 -0.34047857214E-01 -0.84027392692E-01  0.89227149649E+00  0.88000000000E+00 0. -1.
        -11    1    4    4    0    0  0.67895496400E-01  0.30989316792E-01  0.56469685692E-01  0.93590719143E-01  0.51100000000E-03 0. -1.
         11    1    4    4    0    0  0.32367129841E-01  0.84724715793E-02  0.13600441271E-01  0.36119897461E-01  0.51100000000E-03 0.  1.
</event>
<event>
 8    1  0.1099478E+005  0.1043930E+01  0.7957747E-01            NaN
         13   -1    0    0    0    0  0.00000000000E+00  0.00000000000E+00  0.74505805969E-08  0.10566000000E+00  0.10566000000E+00 0. -1.
     999900   -1    0    0    0    0 -0.00000000000E+00 -0.00000000000E+00 -0.74505805969E-08  0.93827000000E+00  0.93827000000E+00 0.  1.
     999902    2    1    2    0    0 -0.11125001652E-01 -0.87809105010E-02  0.18283795421E-01  0.10207963184E+01  0.10205341525E+01 0.  0.
     999903    2    3    3    0    0 -0.11327010265E-02  0.25195517542E-01  0.12909880376E+00  0.13313973510E+00  0.20581322005E-01 0.  0.
         14    1    1    2    0    0  0.11125001652E-01  0.87809105010E-02 -0.18283795421E-01  0.23133681635E-01  0.00000000000E+00 0.  1.
     999901    1    3    3    0    0 -0.99923006254E-02 -0.33976428042E-01 -0.11081500834E+00  0.88765658326E+00  0.88000000000E+00 0.  1.
        -11    1    4    4    0    0  0.93556087569E-02  0.14302703881E-01  0.77770409450E-01  0.79627837222E-01  0.51100000000E-03 0.  1.
         11    1    4    4    0    0 -0.10488309783E-01  0.10892813661E-01  0.51328394309E-01  0.53511897882E-01  0.51100000000E-03 0. -1.
</event>
<event>
 8    1  0.1099478E+005  0.1043930E+01  0.7957747E-01            NaN
         13   -1    0    0    0    0  0.00000000000E+00  0.00000000000E+00  0.74505805969E-08  0.10566000000E+00  0.10566000000E+00 0.  1.
     999900   -1    0    0    0    0 -0.00000000000E+00 -0.00000000000E+00 -0.74505805969E-08  0.93827000000E+00  0.93827000000E+00 0. -1.
     999902    2    1    2    0    0 -0.18404113809E-01 -0.54598737908E-02  0.13313221507E-01  0.10205684184E+01  0.10203010013E+01 0.  0.
     999903    2    3    3    0    0 -0.12089841193E+00 -0.43384678481E-01 -0.26614640885E-01  0.13290992207E+00  0.21402148059E-01 0.  0.
         14    1    1    2    0    0  0.18404113809E-01  0.54598737908E-02 -0.13313221507E-01  0.23361581577E-01  0.00000000000E+00 0. -1.
     999901    1    3    3    0    0  0.10249429812E+00  0.37924804690E-01  0.39927862392E-01  0.88765849636E+00  0.88000000000E+00 0. -1.
        -11    1    4    4    0    0 -0.17905544115E-01 -0.13770171557E-01 -0.89234818778E-02  0.24292298874E-01  0.51100000000E-03 0. -1.
         11    1    4    4    0    0 -0.10299286781E+00 -0.29614506924E-01 -0.17691159007E-01  0.10861762319E+00  0.51100000000E-03 0.  1.
</event>
<event>
 8    1  0.1099478E+005  0.1043930E+01  0.7957747E-01            NaN
         13   -1    0    0    0    0  0.00000000000E+00  0.00000000000E+00  0.74505805969E-08  0.10566000000E+00  0.10566000000E+00 0. -1.
     999900   -1    0    0    0    0 -0.00000000000E+00 -0.00000000000E+00 -0.74505805969E-08  0.93827000000E+00  0.93827000000E+00 0.  1.
     999902    2    1    2    0    0  0.15940248246E-01 -0.17538801433E-01  0.31351105299E-02  0.10200233066E+01  0.10197431128E+01 0.  0.
     999903    2    3    3    0    0  0.13727208551E-01 -0.26562814951E-01  0.12640657971E+00  0.13138266752E+00  0.19717062133E-01 0.  0.
         14    1    1    2    0    0 -0.15940248246E-01  0.17538801433E-01 -0.31351105299E-02  0.23906693370E-01  0.00000000000E+00 0.  1.
     999901    1    3    3    0    0  0.22130396949E-02  0.90240135188E-02 -0.12327146918E+00  0.88864063911E+00  0.88000000000E+00 0.  1.
        -11    1    4    4    0    0  0.36717459935E-02 -0.18520043437E-01  0.10248567339E+00  0.10421155453E+00  0.51100000000E-03 0.  1.
         11    1    4    4    0    0  0.10055462558E-01 -0.80427715142E-02  0.23920906318E-01  0.27171112987E-01  0.51100000000E-03 0. -1.
</event>
<event>
 7    1  0.1099478E+005  0.1043930E+01  0.7957747E-01            NaN
         13   -1    0    0    0    0  0.00000000000E+00  0.00000000000E+00  0.74505805969E-08  0.10566000000E+00  0.10566000000E+00 0. -1.
     999900   -1    0    0    0    0 -0.00000000000E+00 -0.00000000000E+00 -0.74505805969E-08  0.93827000000E+00  0.93827000000E+00 0.  1.
     999903    2    1    2    0    0 -0.59336525134E-01  0.85651219164E-01 -0.38659205781E-01  0.11298122225E+00  0.20328989885E-01 0.  0.
         14    1    1    2    0    0 -0.94944515871E-03 -0.46736697487E-01  0.85028662582E-02  0.47513356782E-01  0.00000000000E+00 0. -1.
     999901    1    1    2    0    0  0.60285970293E-01 -0.38914521677E-01  0.30156339523E-01  0.88343542097E+00  0.88000000000E+00 0. -1.
        -11    1    3    3    0    0 -0.38014284698E-01  0.42146229183E-01 -0.28345413676E-01  0.63443786717E-01  0.51100000000E-03 0.  1.
         11    1    3    3    0    0 -0.21322240436E-01  0.43504989981E-01 -0.10313792105E-01  0.49537435531E-01  0.51100000000E-03 0. -1.
</event>
<event>
 8    1  0.1099478E+005  0.1043930E+01  0.7957747E-01            NaN
         13   -1    0    0    0    0  0.00000000000E+00  0.00000000000E+00  0.74505805969E-08  0.10566000000E+00  0.10566000000E+00 0.  1.
     999900   -1    0    0    0    0 -0.00000000000E+00 -0.00000000000E+00 -0.74505805969E-08  0.93827000000E+00  0.93827000000E+00 0.  1.
     999902    2    1    2    0    0  0.73780623689E-02  0.20508713692E-01  0.63523451579E-02  0.10212276779E+01  0.10209753056E+01 0.  0.
     999903    2    3    3    0    0  0.14369990054E-01  0.12864606045E+00 -0.19266566141E-01  0.13421082264E+00  0.29749602686E-01 0.  0.
         14    1    1    2    0    0 -0.73780623689E-02 -0.20508713692E-01 -0.63523451579E-02  0.22702322142E-01  0.00000000000E+00 0. -1.
     999901    1    3    3    0    0 -0.69919276855E-02 -0.10813734676E+00  0.25618911298E-01  0.88701685521E+00  0.88000000000E+00 0. -1.
        -11    1    4    4    0    0 -0.72505818214E-02  0.57604095729E-01 -0.26945548238E-02  0.58123356133E-01  0.51100000000E-03 0.  1.
         11    1    4    4    0    0  0.21620571876E-01  0.71041964724E-01 -0.16572011317E-01  0.76087466511E-01  0.51100000000E-03 0. -1.
</event>
<event>
 8    1  0.1099478E+005  0.1043930E+01  0.7957747E-01            NaN
         13   -1    0    0    0    0  0.00000000000E+00  0.00000000000E+00  0.74505805969E-08  0.10566000000E+00  0.10566000000E+00 0.  1.
     999900   -1    0    0    0    0 -0.00000000000E+00 -0.00000000000E+00 -0.74505805969E-08  0.93827000000E+00  0.93827000000E+00 0.  1.
     999902    2    1    2    0    0 -0.15412186408E-01  0.14936949619E-01  0.10587260771E-01  0.10199980539E+01  0.10197172608E+01 0.  0.
     999903    2    3    3    0    0  0.10447698497E+00  0.25891486605E-01  0.69801740326E-01  0.12982965978E+00  0.19941116787E-01 0.  0.
         14    1    1    2    0    0  0.15412186408E-01 -0.14936949619E-01 -0.10587260771E-01  0.23931946107E-01  0.00000000000E+00 0. -1.
     999901    1    3    3    0    0 -0.11988917138E+00 -0.10954536985E-01 -0.59214479555E-01  0.89016839412E+00  0.88000000000E+00 0. -1.
        -11    1    4    4    0    0  0.16527842563E-01  0.11777272073E-01  0.15061871939E-01  0.25278346951E-01  0.51100000000E-03 0. -1.
         11    1    4    4    0    0  0.87949142406E-01  0.14114214532E-01  0.54739868386E-01  0.10455131283E+00  0.51100000000E-03 0.  1.
</event>
<event>
 8    1  0.1099478E+005  0.1043930E+01  0.7957747E-01            NaN
         13   -1    0    0    0    0  0.00000000000E+00  0.00000000000E+00  0.74505805969E-08  0.10566000000E+00  0.10566000000E+00 0.  1.
     999900   -1    0    0    0    0 -0.00000000000E+00 -0.00000000000E+00 -0.74505805969E-08  0.93827000000E+00  0.93827000000E+00 0. -1.
     999902    2    1    2    0    0 -0.17015472900E-01 -0.10899578299E-01  0.11965528352E-01  0.10204459417E+01  0.10201756804E+01 0.  0.
     999903    2    3    3    0    0 -0.11147290522E+00  0.18996780845E-01 -0.64164646699E-01  0.13161986065E+00  0.20484129277E-01 0.  0.
         14    1    1    2    0    0  0.17015472900E-01  0.10899578299E-01 -0.11965528352E-01  0.23484058292E-01  0.00000000000E+00 0. -1.
     999901    1    3    3    0    0  0.94457432317E-01 -0.29896359145E-01  0.76130175052E-01  0.88882608105E+00  0.88000000000E+00 0.  1.
        -11    1    4    4    0    0 -0.97201481888E-01  0.21550341085E-01 -0.50278581906E-01  0.11153807512E+00  0.51100000000E-03 0. -1.
         11    1    4    4    0    0 -0.14271423329E-01 -0.25535602392E-02 -0.13886064793E-01  0.20081785532E-01  0.51100000000E-03 0.  1.
</event>
<event>
 8    1  0.1099478E+005  0.1043930E+01  0.7957747E-01            NaN
         13   -1    0    0    0    0  0.00000000000E+00  0.00000000000E+00  0.74505805969E-08  0.10566000000E+00  0.10566000000E+00 0.  1.
     999900   -1    0    0    0    0 -0.00000000000E+00 -0.00000000000E+00 -0.74505805969E-08  0.93827000000E+00  0.93827000000E+00 0. -1.
     999902    2    1    2    0    0  0.23496442126E-01 -0.33490552202E-02  0.41021751549E-02  0.10198441784E+01  0.10195597193E+01 0.  0.
     999903    2    3    3    0    0 -0.88755337242E-01 -0.10488613594E-01 -0.88935315198E-01  0.12781984579E+00  0.20997661421E-01 0.  0.
         14    1    1    2    0    0 -0.23496442126E-01  0.33490552202E-02 -0.41021751549E-02  0.24085821648E-01  0.00000000000E+00 0.  1.
     999901    1    3    3    0    0  0.11225177937E+00  0.71395583736E-02  0.93037490353E-01  0.89202433256E+00  0.88000000000E+00 0. -1.
        -11    1    4    4    0    0 -0.40629471000E-01  0.46242531586E-02 -0.46260486353E-01  0.61744889259E-01  0.51100000000E-03 0. -1.
         11    1    4    4    0    0 -0.48125866242E-01 -0.15112866752E-01 -0.42674828845E-01  0.66074956535E-01  0.51100000000E-03 0.  1.
</event>
<event>
 8    1  0.1099478E+005  0.1043930E+01  0.7957747E-01            NaN
         13   -1    0    0    0    0  0.00000000000E+00  0.00000000000E+00  0.74505805969E-08  0.10566000000E+00  0.10566000000E+00 0.  1.
     999900   -1    0    0    0    0 -0.00000000000E+00 -0.00000000000E+00 -0.74505805969E-08  0.93827000000E+00  0.93827000000E+00 0.  1.
     999902    2    1    2    0    0  0.58716073361E-02  0.95759930212E-02 -0.20614573209E-01  0.10204537132E+01  0.10201836328E+01 0.  0.
     999903    2    3    3    0    0 -0.73963014718E-02 -0.10912818551E+00  0.63831992388E-01  0.12837863681E+00  0.21044832835E-01 0.  0.
         14    1    1    2    0    0 -0.58716073361E-02 -0.95759930212E-02  0.20614573209E-01  0.23476286837E-01  0.00000000000E+00 0.  1.
     999901    1    3    3    0    0  0.13267908808E-01  0.11870417853E+00 -0.84446565597E-01  0.89207507635E+00  0.88000000000E+00 0.  1.
        -11    1    4    4    0    0 -0.63116551102E-03 -0.55408997298E-01  0.20706015043E-01  0.59157041267E-01  0.51100000000E-03 0. -1.
         11    1    4    4    0    0 -0.67651359608E-02 -0.53719188213E-01  0.43125977345E-01  0.69221595546E-01  0.51100000000E-03 0.  1.
</event>
<event>
 8    1  0.1099478E+005  0.1043930E+01  0.7957747E-01            NaN
         13   -1    0    0    0    0  0.00000000000E+00  0.00000000000E+00  0.74505805969E-08  0.10566000000E+00  0.10566000000E+00 0.  1.
     999900   -1    0    0    0    0 -0.00000000000E+00 -0.00000000000E+00 -0.74505805969E-08  0.93827000000E+00  0.93827000000E+00 0.  1.
     999902    2    1    2    0    0  0.13885241739E-01 -0.15630003276E-01 -0.10858884693E-01  0.10203713006E+01  0.10200992985E+01 0.  0.
     999903    2    3    3    0    0 -0.48373825387E-01  0.11103460129E+00  0.35913059269E-01  0.12789848408E+00  0.19989115467E-01 0.  0.
         14    1    1    2    0    0 -0.13885241739E-01  0.15630003276E-01  0.10858884693E-01  0.23558699399E-01  0.00000000000E+00 0.  1.
     999901    1    3    3    0    0  0.62259067126E-01 -0.12666460457E+00 -0.46771943962E-01  0.89247281652E+00  0.88000000000E+00 0. -1.
        -11    1    4    4    0    0 -0.15840849037E-01  0.61152546276E-01  0.17214905878E-01  0.65476564660E-01  0.51100000000E-03 0. -1.
         11    1    4    4    0    0 -0.32532976350E-01  0.49882055015E-01  0.18698153390E-01  0.62421919419E-01  0.51100000000E-03 0.  1.
</event>
<event>
 8    1  0.1099478E+005  0.1043930E+01  0.7957747E-01            NaN
         13   -1    0    0    0    0  0.00000000000E+00  0.00000000000E+00  0.74505805969E-08  0.10566000000E+00  0.10566000000E+00 0. -1.
     999900   -1    0    0    0    0 -0.00000000000E+00 -0.00000000000E+00 -0.74505805969E-08  0.93827000000E+00  0.93827000000E+00 0.  1.
     999902    2    1    2    0    0 -0.21973326003E-01  0.60646013620E-02  0.63723140763E-02  0.10202611844E+01  0.10199866036E+01 0.  0.
     999903    2    3    3    0    0 -0.83795439421E-01 -0.99676355375E-01  0.77231787121E-02  0.13177654836E+00  0.18664397123E-01 0.  0.
         14    1    1    2    0    0  0.21973326003E-01 -0.60646013620E-02 -0.63723140763E-02  0.23668815602E-01  0.00000000000E+00 0.  1.
     999901    1    3    3    0    0  0.61822113417E-01  0.10574095674E+00 -0.13508646359E-02  0.88848463604E+00  0.88000000000E+00 0.  1.
        -11    1    4    4    0    0 -0.50377372198E-01 -0.46483274869E-01  0.58187938470E-03  0.68550522805E-01  0.51100000000E-03 0.  1.
         11    1    4    4    0    0 -0.33418067222E-01 -0.53193080505E-01  0.71412993274E-02  0.63226025556E-01  0.51100000000E-03 0. -1.
</event>
<event>
 8    1  0.1099478E+005  0.1043930E+01  0.7957747E-01            NaN
         13   -1    0    0    0    0  0.00000000000E+00  0.00000000000E+00  0.74505805969E-08  0.10566000000E+00  0.10566000000E+00 0. -1.
     999900   -1    0    0    0    0 -0.00000000000E+00 -0.00000000000E+00 -0.74505805969E-08  0.93827000000E+00  0.93827000000E+00 0. -1.
     999902    2    1    2    0    0 -0.25082167180E-02  0.13124559736E-01 -0.17968974569E-01  0.10215373837E+01  0.10212919254E+01 0.  0.
     999903    2    3    3    0    0  0.62422242476E-01  0.11571860880E+00  0.30983475259E-03  0.13301297865E+00  0.20125200926E-01 0.  0.
         14    1    1    2    0    0  0.25082167180E-02 -0.13124559736E-01  0.17968974569E-01  0.22392616337E-01  0.00000000000E+00 0. -1.
     999901    1    3    3    0    0 -0.64930459194E-01 -0.10259404907E+00 -0.18278809321E-01  0.88852440501E+00  0.88000000000E+00 0. -1.
        -11    1    4    4    0    0  0.32177941675E-01  0.39123087155E-01  0.47046801651E-03  0.50660816615E-01  0.51100000000E-03 0. -1.
         11    1    4    4    0    0  0.30244300801E-01  0.76595521649E-01 -0.16063326392E-03  0.82352162034E-01  0.51100000000E-03 0.  1.
</event>
<event>
 8    1  0.1099478E+005  0.1043930E+01  0.7957747E-01            NaN
         13   -1    0    0    0    0  0.00000000000E+00  0.00000000000E+00  0.74505805969E-08  0.10566000000E+00  0.10566000000E+00 0.  1.
     999900   -1    0    0    0    0 -0.00000000000E+00 -0.00000000000E+00 -0.74505805969E-08  0.93827000000E+00  0.93827000000E+00 0. -1.
     999902    2    1    2    0    0  0.61110044561E-02  0.20856463170E-01  0.93038581689E-02  0.10202889719E+01  0.10200150430E+01 0.  0.
     999903    2    3    3    0    0  0.59570256986E-02  0.38489826474E-01 -0.12273227764E+00  0.13026397207E+00  0.19711355799E-01 0.  0.
         14    1    1    2    0    0 -0.61110044561E-02 -0.20856463170E-01 -0.93038581689E-02  0.23641028071E-01  0.00000000000E+00 0. -1.
     999901    1    3    3    0    0  0.15397875747E-03 -0.17633363303E-01  0.13203613581E+00  0.89002499986E+00  0.88000000000E+00 0.  1.
        -11    1    4    4    0    0  0.89291655811E-02  0.71748882598E-02 -0.44242340527E-01  0.45703991465E-01  0.51100000000E-03 0.  1.
         11    1    4    4    0    0 -0.29721398825E-02  0.31314938214E-01 -0.78489937115E-01  0.84559980607E-01  0.51100000000E-03 0. -1.
</event>
<event>
 8    1  0.1099478E+005  0.1043930E+01  0.7957747E-01            NaN
         13   -1    0    0    0    0  0.00000000000E+00  0.00000000000E+00  0.74505805969E-08  0.10566000000E+00  0.10566000000E+00 0. -1.
     999900   -1    0    0    0    0 -0.00000000000E+00 -0.00000000000E+00 -0.74505805969E-08  0.93827000000E+00  0.93827000000E+00 0. -1.
     999902    2    1    2    0    0  0.39212639946E-02 -0.18039800955E-01 -0.12816123373E-01  0.10214563766E+01  0.10212091194E+01 0.  0.
     999903    2    3    3    0    0  0.12778877266E+00 -0.15431571813E-01  0.21850297568E-01  0.13210170985E+00  0.20132620652E-01 0.  0.
         14    1    1    2    0    0 -0.39212639946E-02  0.18039800955E-01  0.12816123373E-01  0.22473623386E-01  0.00000000000E+00 0. -1.
     999901    1    3    3    0    0 -0.12386750866E+00 -0.26082291422E-02 -0.34666420941E-01  0.88935466677E+00  0.88000000000E+00 0. -1.
        -11    1    4    4    0    0  0.40035156763E-01 -0.69017527340E-04 -0.12780037768E-02  0.40058868620E-01  0.51100000000E-03 0.  1.
         11    1    4    4    0    0  0.87753615894E-01 -0.15362554285E-01  0.23128301345E-01  0.92042841225E-01  0.51100000000E-03 0. -1.
</event>
<event>
 8    1  0.1099478E+005  0.1043930E+01  0.7957747E-01            NaN
         13   -1    0    0    0    0  0.00000000000E+00  0.00000000000E+00  0.74505805969E-08  0.10566000000E+00  0.10566000000E+00 0. -1.
     999900   -1    0    0    0    0 -0.00000000000E+00 -0.00000000000E+00 -0.74505805969E-08  0.93827000000E+00  0.93827000000E+00 0.  1.
     999902    2    1    2    0    0 -0.18935662844E-01  0.13603614409E-01  0.89878262589E-02  0.10189420294E+01  0.10186355878E+01 0.  0.
     999903    2    3    3    0    0 -0.75581913429E-01  0.19200724166E-01 -0.10213491303E+00  0.13012911969E+00  0.20512286186E-01 0.  0.
         14    1    1    2    0    0  0.18935662844E-01 -0.13603614409E-01 -0.89878262589E-02  0.24987970569E-01  0.00000000000E+00 0. -1.
     999901    1    3    3    0    0  0.56646250585E-01 -0.55971097568E-02  0.11112273929E+00  0.88881290975E+00  0.88000000000E+00 0. -1.
        -11    1    4    4    0    0 -0.20458212838E-01  0.11855012871E-01 -0.42139770516E-01  0.48322884670E-01  0.51100000000E-03 0. -1.
         11    1    4    4    0    0 -0.55123700591E-01  0.73457112954E-02 -0.59995142513E-01  0.81806235016E-01  0.51100000000E-03 0.  1.
</event>
<event>
 8    1  0.1099478E+005  0.1043930E+01  0.7957747E-01            NaN
         13   -1    0    0    0    0  0.00000000000E+00  0.00000000000E+00  0.74505805969E-08  0.10566000000E+00  0.10566000000E+00 0. -1.
     999900   -1    0    0    0    0 -0.00000000000E+00 -0.00000000000E+00 -0.74505805969E-08  0.93827000000E+00  0.93827000000E+00 0.  1.
     999902    2    1    2    0    0  0.43826050627E-02 -0.16910031916E-01 -0.11210197827E-01  0.10231736771E+01  0.10229631218E+01 0.  0.
     999903    2    3    3    0    0  0.12893166706E+00  0.22651681591E-01 -0.17199656916E-01  0.13350324840E+00  0.19769058760E-01 0.  0.
         14    1    1    2    0    0 -0.43826050627E-02  0.16910031916E-01  0.11210197827E-01  0.20756322937E-01  0.00000000000E+00 0.  1.
     999901    1    3    3    0    0 -0.12454906200E+00 -0.39561713508E-01  0.59894590890E-02  0.88967042867E+00  0.88000000000E+00 0.  1.
        -11    1    4    4    0    0  0.60442946778E-01  0.20166538689E-01 -0.11293357197E-01  0.64713523592E-01  0.51100000000E-03 0. -1.
         11    1    4    4    0    0  0.68488720285E-01  0.24851429022E-02 -0.59062997184E-02  0.68789724806E-01  0.51100000000E-03 0.  1.
</event>
<event>
 8    1  0.1099478E+005  0.1043930E+01  0.7957747E-01            NaN
         13   -1    0    0    0    0  0.00000000000E+00  0.00000000000E+00  0.74505805969E-08  0.10566000000E+00  0.10566000000E+00 0. -1.
     999900   -1    0    0    0    0 -0.00000000000E+00 -0.00000000000E+00 -0.74505805969E-08  0.93827000000E+00  0.93827000000E+00 0.  1.
     999902    2    1    2    0    0 -0.35589380242E-02  0.41504336806E-02  0.18660014812E-01  0.10244855074E+01  0.10243009648E+01 0.  0.
     999903    2    3    3    0    0  0.13177090644E+00  0.82801688739E-02 -0.77454588825E-02  0.13373948829E+00  0.19852597204E-01 0.  0.
         14    1    1    2    0    0  0.35589380242E-02 -0.41504336806E-02 -0.18660014812E-01  0.19444492598E-01  0.00000000000E+00 0.  1.
     999901    1    3    3    0    0 -0.13532984446E+00 -0.41297351932E-02  0.26405473695E-01  0.89074601911E+00  0.88000000000E+00 0.  1.
        -11    1    4    4    0    0  0.17728076516E-01 -0.18470109844E-02 -0.72413577451E-02  0.19245636636E-01  0.51100000000E-03 0.  1.
         11    1    4    4    0    0  0.11404282992E+00  0.10127179858E-01 -0.50410113736E-03  0.11449385166E+00  0.51100000000E-03 0. -1.
</event>
<event>
 8    1  0.1099478E+005  0.1043930E+01  0.7957747E-01            NaN
         13   -1    0    0    0    0  0.00000000000E+00  0.00000000000E+00  0.74505805969E-08  0.10566000000E+00  0.10566000000E+00 0. -1.
     999900   -1    0    0    0    0 -0.00000000000E+00 -0.00000000000E+00 -0.74505805969E-08  0.93827000000E+00  0.93827000000E+00 0.  1.
     999902    2    1    2    0    0 -0.17690699015E-01  0.12840979470E-01 -0.90901964528E-02  0.10202554724E+01  0.10199807575E+01 0.  0.
     999903    2    3    3    0    0  0.13212982230E-01  0.11884579470E+00 -0.53144225234E-01  0.13226176982E+00  0.19234377128E-01 0.  0.
         14    1    1    2    0    0  0.17690699015E-01 -0.12840979470E-01  0.90901964528E-02  0.23674527597E-01  0.00000000000E+00 0. -1.
     999901    1    3    3    0    0 -0.30903681246E-01 -0.10600481523E+00  0.44054028781E-01  0.88799370258E+00  0.88000000000E+00 0. -1.
        -11    1    4    4    0    0  0.17589614011E-01  0.74507510313E-01 -0.33324865852E-01  0.83495936543E-01  0.51100000000E-03 0. -1.
         11    1    4    4    0    0 -0.43766317806E-02  0.44338284390E-01 -0.19819359381E-01  0.48765833282E-01  0.51100000000E-03 0.  1.
</event>
<event>
 8    1  0.1099478E+005  0.1043930E+01  0.7957747E-01            NaN
         13   -1    0    0    0    0  0.00000000000E+00  0.00000000000E+00  0.74505805969E-08  0.10566000000E+00  0.10566000000E+00 0.  1.
     999900   -1    0    0    0    0 -0.00000000000E+00 -0.00000000000E+00 -0.74505805969E-08  0.93827000000E+00  0.93827000000E+00 0. -1.
     999902    2    1    2    0    0  0.15509682201E-01  0.10309798712E-01 -0.15118369450E-01  0.10199423514E+01  0.10196602340E+01 0.  0.
     999903    2    3    3    0    0  0.12363839926E+00  0.10714341524E-01 -0.43108385394E-01  0.13288236237E+00  0.19953407018E-01 0.  0.
         14    1    1    2    0    0 -0.15509682201E-01 -0.10309798712E-01  0.15118369450E-01  0.23987648619E-01  0.00000000000E+00 0.  1.
     999901    1    3    3    0    0 -0.10812871706E+00 -0.40454281223E-03  0.27990015944E-01  0.88705998901E+00  0.88000000000E+00 0.  1.
        -11    1    4    4    0    0  0.79512663082E-01 -0.31422631156E-03 -0.20641712237E-01  0.82150494421E-01  0.51100000000E-03 0. -1.
         11    1    4    4    0    0  0.44125736181E-01  0.11028567836E-01 -0.22466673157E-01  0.50731867951E-01  0.51100000000E-03 0.  1.
</event>
<event>
 8    1  0.1099478E+005  0.1043930E+01  0.7957747E-01            NaN
         13   -1    0    0    0    0  0.00000000000E+00  0.00000000000E+00  0.74505805969E-08  0.10566000000E+00  0.10566000000E+00 0. -1.
     999900   -1    0    0    0    0 -0.00000000000E+00 -0.00000000000E+00 -0.74505805969E-08  0.93827000000E+00  0.93827000000E+00 0. -1.
     999902    2    1    2    0    0  0.26688965162E-01  0.30351782514E-02 -0.63062877526E-02  0.10163386529E+01  0.10159640619E+01 0.  0.
     999903    2    3    3    0    0  0.52282037625E-01  0.11248228082E+00  0.27775343448E-01  0.12853505347E+00  0.19081805715E-01 0.  0.
         14    1    1    2    0    0 -0.26688965162E-01 -0.30351782514E-02  0.63062877526E-02  0.27591347079E-01  0.00000000000E+00 0.  1.
     999901    1    3    3    0    0 -0.25593072463E-01 -0.10944710257E+00 -0.34081631201E-01  0.88780359945E+00  0.88000000000E+00 0.  1.
        -11    1    4    4    0    0  0.42365372318E-01  0.80848912940E-01  0.27670207571E-01  0.95379625724E-01  0.51100000000E-03 0. -1.
         11    1    4    4    0    0  0.99166653068E-02  0.31633367880E-01  0.10513587651E-03  0.33155427742E-01  0.51100000000E-03 0.  1.
</event>
<event>
 8    1  0.1099478E+005  0.1043930E+01  0.7957747E-01            NaN
         13   -1    0    0    0    0  0.00000000000E+00  0.00000000000E+00  0.74505805969E-08  0.10566000000E+00  0.10566000000E+00 0.  1.
     999900   -1    0    0    0    0 -0.00000000000E+00 -0.00000000000E+00 -0.74505805969E-08  0.93827000000E+00  0.93827000000E+00 0.  1.
     999902    2    1    2    0    0  0.11740293562E-01 -0.19759269258E-01  0.33502921074E-02  0.10207031261E+01  0.10204388193E+01 0.  0.
     999903    2    3    3    0    0  0.86018594867E-02 -0.26488863479E-01 -0.12619214835E+00  0.13118843757E+00  0.22589731544E-01 0.  0.
         14    1    1    2    0    0 -0.11740293562E-01  0.19759269258E-01 -0.33502921074E-02  0.23226873913E-01  0.00000000000E+00 0.  1.
     999901    1    3    3    0    0  0.31384340757E-02  0.67295942212E-02  0.12954244046E+00  0.88951468852E+00  0.88000000000E+00 0. -1.
        -11    1    4    4    0    0  0.82197103758E-02 -0.11305470381E-01 -0.99459565141E-01  0.10043825724E+00  0.51100000000E-03 0. -1.
         11    1    4    4    0    0  0.38214911086E-03 -0.15183393099E-01 -0.26732583212E-01  0.30750180327E-01  0.51100000000E-03 0.  1.
</event>
<event>
 7    1  0.1099478E+005  0.1043930E+01  0.7957747E-01            NaN
         13   -1    0    0    0    0  0.00000000000E+00  0.00000000000E+00  0.74505805969E-08  0.10566000000E+00  0.10566000000E+00 0.  1.
     999900   -1    0    0    0    0 -0.00000000000E+00 -0.00000000000E+00 -0.74505805969E-08  0.93827000000E+00  0.93827000000E+00 0. -1.
     999902    2    1    2    0    0 -0.11395551349E-01  0.19311103467E-01 -0.63220872725E-02  0.10206330883E+01  0.10203671667E+01 0.  0.
         14    1    1    2    0    0  0.11395551349E-01 -0.19311103467E-01  0.63220872725E-02  0.23296911708E-01  0.00000000000E+00 0.  1.
     999901    1    3    3    0    0 -0.56953529218E-01  0.12506511229E+00  0.64800458313E-02  0.89068904664E+00  0.88000000000E+00 0.  1.
        -11    1    3    3    0    0  0.13661335615E-01 -0.53412890278E-01 -0.34362648070E-01  0.64966311593E-01  0.51100000000E-03 0. -1.
         11    1    3    3    0    0  0.31896642254E-01 -0.52341118545E-01  0.21560514966E-01  0.64977730063E-01  0.51100000000E-03 0.  1.
</event>
<event>
 8    1  0.1099478E+005  0.1043930E+01  0.7957747E-01            NaN
         13   -1    0    0    0    0  0.00000000000E+00  0.00000000000E+00  0.74505805969E-08  0.10566000000E+00  0.10566000000E+00 0.  1.
     999900   -1    0    0    0    0 -0.00000000000E+00 -0.00000000000E+00 -0.74505805969E-08  0.93827000000E+00  0.93827000000E+00 0.  1.
     999902    2    1    2    0    0 -0.13848816027E-01 -0.18865008430E-01  0.70647215087E-02  0.10194843759E+01  0.10191912500E+01 0.  0.
     999903    2    3    3    0    0  0.80856253743E-01  0.71393643079E-01  0.65432204650E-01  0.12790014683E+00  0.21030646975E-01 0.  0.
         14    1    1    2    0    0  0.13848816027E-01  0.18865008430E-01 -0.70647215087E-02  0.24445624115E-01  0.00000000000E+00 0.  1.
     999901    1    3    3    0    0 -0.94705069769E-01 -0.90258651508E-01 -0.58367483141E-01  0.89158422906E+00  0.88000000000E+00 0. -1.
        -11    1    4    4    0    0  0.43474212422E-01  0.27383155378E-01  0.23301289579E-01  0.56418574612E-01  0.51100000000E-03 0. -1.
         11    1    4    4    0    0  0.37382041321E-01  0.44010487701E-01  0.42130915072E-01  0.71481572218E-01  0.51100000000E-03 0.  1.
</event>
<event>
 8    1  0.1099478E+005  0.1043930E+01  0.7957747E-01            NaN
         13   -1    0    0    0    0  0.00000000000E+00  0.00000000000E+00  0.74505805969E-08  0.10566000000E+00  0.10566000000E+00 0. -1.
     999900   -1    0    0    0    0 -0.00000000000E+00 -0.00000000000E+00 -0.74505805969E-08  0.93827000000E+00  0.93827000000E+00 0.  1.
     999902    2    1    2    0    0  0.30402722277E-02  0.23299509747E-01  0.69968891664E-03  0.10204225549E+01  0.10201517488E+01 0.  0.
     999903    2    3    3    0    0 -0.11395955749E+00  0.87818298144E-02  0.60114955520E-01  0.13057431106E+00  0.19285786326E-01 0.  0.
         14    1    1    2    0    0 -0.30402722277E-02 -0.23299509747E-01 -0.69968891664E-03  0.23507445081E-01  0.00000000000E+00 0. -1.
     999901    1    3    3    0    0  0.11699982972E+00  0.14517679933E-01 -0.59415266603E-01  0.88984824385E+00  0.88000000000E+00 0. -1.
        -11    1    4    4    0    0 -0.74002254287E-01  0.52359222397E-02  0.28416712803E-01  0.79445070386E-01  0.51100000000E-03 0. -1.
         11    1    4    4    0    0 -0.39957303205E-01  0.35459075747E-02  0.31698242717E-01  0.51129240678E-01  0.51100000000E-03 0.  1.
</event>
<event>
 8    1  0.1099478E+005  0.1043930E+01  0.7957747E-01            NaN
         13   -1    0    0    0    0  0.00000000000E+00  0.00000000000E+00  0.74505805969E-08  0.10566000000E+00  0.10566000000E+00 0.  1.
     999900   -1    0    0    0    0 -0.00000000000E+00 -0.00000000000E+00 -0.74505805969E-08  0.93827000000E+00  0.93827000000E+00 0.  1.
     999902    2    1    2    0    0  0.89739514339E-02  0.29303864559E-02 -0.21756786989E-01  0.10202134077E+01  0.10199377042E+01 0.  0.
     999903    2    3    3    0    0  0.30094009772E-01  0.46745563444E-01  0.11396569207E+00  0.12848115087E+00  0.20698551502E-01 0.  0.
         14    1    1    2    0    0 -0.89739514339E-02 -0.29303864559E-02  0.21756786989E-01  0.23716592276E-01  0.00000000000E+00 0.  1.
     999901    1    3    3    0    0 -0.21120058338E-01 -0.43815176988E-01 -0.13572247905E+00  0.89173225686E+00  0.88000000000E+00 0.  1.
        -11    1    4    4    0    0  0.62785406578E-02 -0.48030723837E-03  0.14772534293E-01  0.16066725188E-01  0.51100000000E-03 0.  1.
         11    1    4    4    0    0  0.23815469114E-01  0.47225870682E-01  0.99193157772E-01  0.11241442568E+00  0.51100000000E-03 0. -1.
</event>
<event>
 8    1  0.1099478E+005  0.1043930E+01  0.7957747E-01            NaN
         13   -1    0    0    0    0  0.00000000000E+00  0.00000000000E+00  0.74505805969E-08  0.10566000000E+00  0.10566000000E+00 0. -1.
     999900   -1    0    0    0    0 -0.00000000000E+00 -0.00000000000E+00 -0.74505805969E-08  0.93827000000E+00  0.93827000000E+00 0. -1.
     999902    2    1    2    0    0  0.10579417737E-01  0.80423121338E-02 -0.19595149594E-01  0.10202535824E+01  0.10199788231E+01 0.  0.
     999903    2    3    3    0    0  0.66273145056E-01 -0.27625972790E-01 -0.11039551826E+00  0.13311282423E+00  0.19404365322E-01 0.  0.
         14    1    1    2    0    0 -0.10579417737E-01 -0.80423121338E-02  0.19595149594E-01  0.23676417628E-01  0.00000000000E+00 0. -1.
     999901    1    3    3    0    0 -0.55693727319E-01  0.35668284924E-01  0.90800368666E-01  0.88714075814E+00  0.88000000000E+00 0.  1.
        -11    1    4    4    0    0  0.19378877818E-01 -0.14283383317E-01 -0.24555768718E-01  0.34391900831E-01  0.51100000000E-03 0. -1.
         11    1    4    4    0    0  0.46894267238E-01 -0.13342589474E-01 -0.85839749542E-01  0.98720923396E-01  0.51100000000E-03 0.  1.
</event>
<event>
 8    1  0.1099478E+005  0.1043930E+01  0.7957747E-01            NaN
         13   -1    0    0    0    0  0.00000000000E+00  0.00000000000E+00  0.74505805969E-08  0.10566000000E+00  0.10566000000E+00 0. -1.
     999900   -1    0    0    0    0 -0.00000000000E+00 -0.00000000000E+00 -0.74505805969E-08  0.93827000000E+00  0.93827000000E+00 0. -1.
     999902    2    1    2    0    0 -0.53376840749E-03  0.32199839227E-02  0.23804670141E-01  0.10199026088E+01  0.10196195447E+01 0.  0.
     999903    2    3    3    0    0  0.10274088403E+00 -0.65549010865E-01 -0.37417413378E-01  0.12909231928E+00  0.20307683209E-01 0.  0.
         14    1    1    2    0    0  0.53376840749E-03 -0.32199839227E-02 -0.23804670141E-01  0.24027391155E-01  0.00000000000E+00 0.  1.
     999901    1    3    3    0    0 -0.10327465244E+00  0.68768994788E-01  0.61222083520E-01  0.89081028956E+00  0.88000000000E+00 0.  1.
        -11    1    4    4    0    0  0.11619522122E-01 -0.57617192229E-02 -0.10844800880E-01  0.16913944835E-01  0.51100000000E-03 0.  1.
         11    1    4    4    0    0  0.91121361907E-01 -0.59787291642E-01 -0.26572612498E-01  0.11217837445E+00  0.51100000000E-03 0. -1.
</event>
<event>
 8    1  0.1099478E+005  0.1043930E+01  0.7957747E-01            NaN
         13   -1    0    0    0    0  0.00000000000E+00  0.00000000000E+00  0.74505805969E-08  0.10566000000E+00  0.10566000000E+00 0. -1.
     999900   -1    0    0    0    0 -0.00000000000E+00 -0.00000000000E+00 -0.74505805969E-08  0.93827000000E+00  0.93827000000E+00 0. -1.
     999902    2    1    2    0    0 -0.12489509844E-01 -0.98327604558E-02 -0.15445962219E-01  0.10217658672E+01  0.10215254469E+01 0.  0.
     999903    2    3    3    0    0  0.14422920039E-01 -0.51805135024E-01  0.11711761622E+00  0.13044153709E+00  0.20165959729E-01 0.  0.
         14    1    1    2    0    0  0.12489509844E-01  0.98327604558E-02  0.15445962219E-01  0.22164132809E-01  0.00000000000E+00 0. -1.
     999901    1    3    3    0    0 -0.26912429883E-01  0.41972374568E-01 -0.13256357844E+00  0.89132433010E+00  0.88000000000E+00 0. -1.
        -11    1    4    4    0    0  0.79286799990E-02 -0.38027237988E-02  0.22024626045E-01  0.23720665004E-01  0.51100000000E-03 0. -1.
         11    1    4    4    0    0  0.64942400402E-02 -0.48002411225E-01  0.95092990172E-01  0.10672087208E+00  0.51100000000E-03 0.  1.
</event>
<event>
 8    1  0.1099478E+005  0.1043930E+01  0.7957747E-01            NaN
         13   -1    0    0    0    0  0.00000000000E+00  0.00000000000E+00  0.74505805969E-08  0.10566000000E+00  0.10566000000E+00 0.  1.
     999900   -1    0    0    0    0 -0.00000000000E+00 -0.00000000000E+00 -0.74505805969E-08  0.93827000000E+00  0.93827000000E+00 0.  1.
     999902    2    1    2    0    0  0.11889866028E-01  0.70271936559E-02  0.20119323958E-01  0.10195263617E+01  0.10192342541E+01 0.  0.
     999903    2    3    3    0    0  0.12022574271E+00  0.11963308778E-01  0.49982842319E-01  0.13236636649E+00  0.20620874966E-01 0.  0.
         14    1    1    2    0    0 -0.11889866028E-01 -0.70271936559E-02 -0.20119323958E-01  0.24403638282E-01  0.00000000000E+00 0.  1.
     999901    1    3    3    0    0 -0.10833587668E+00 -0.49361151222E-02 -0.29863518361E-01  0.88715999523E+00  0.88000000000E+00 0.  1.
        -11    1    4    4    0    0  0.89745522995E-01  0.73919642869E-02  0.27310917566E-01  0.94101261272E-01  0.51100000000E-03 0. -1.
         11    1    4    4    0    0  0.30480219713E-01  0.45713444912E-02  0.22671924752E-01  0.38265105216E-01  0.51100000000E-03 0.  1.
</event>
<event>
 8    1  0.1099478E+005  0.1043930E+01  0.7957747E-01            NaN
         13   -1    0    0    0    0  0.00000000000E+00  0.00000000000E+00  0.74505805969E-08  0.10566000000E+00  0.10566000000E+00 0. -1.
     999900   -1    0    0    0    0 -0.00000000000E+00 -0.00000000000E+00 -0.74505805969E-08  0.93827000000E+00  0.93827000000E+00 0. -1.
     999902    2    1    2    0    0  0.15672195392E-01 -0.11892492120E-01 -0.76701155922E-02  0.10228141351E+01  0.10225961447E+01 0.  0.
     999903    2    3    3    0    0 -0.73732703620E-01 -0.94915296390E-01 -0.53501537940E-01  0.13321504491E+00  0.20938208049E-01 0.  0.
         14    1    1    2    0    0 -0.15672195392E-01  0.11892492120E-01  0.76701155922E-02  0.21115864899E-01  0.00000000000E+00 0. -1.
     999901    1    3    3    0    0  0.89404899012E-01  0.83022804270E-01  0.45831422348E-01  0.88959909019E+00  0.88000000000E+00 0.  1.
        -11    1    4    4    0    0 -0.31339907313E-01 -0.46838610494E-01 -0.35606243549E-01  0.66664165217E-01  0.51100000000E-03 0. -1.
         11    1    4    4    0    0 -0.42392796307E-01 -0.48076685896E-01 -0.17895294391E-01  0.66550879692E-01  0.51100000000E-03 0.  1.
</event>
<event>
 8    1  0.1099478E+005  0.1043930E+01  0.7957747E-01            NaN
         13   -1    0    0    0    0  0.00000000000E+00  0.00000000000E+00  0.74505805969E-08  0.10566000000E+00  0.10566000000E+00 0.  1.
     999900   -1    0    0    0    0 -0.00000000000E+00 -0.00000000000E+00 -0.74505805969E-08  0.93827000000E+00  0.93827000000E+00 0. -1.
     999902    2    1    2    0    0 -0.21347554955E-01  0.14280182346E-02  0.11178162605E-01  0.10197906409E+01  0.10195049007E+01 0.  0.
     999903    2    3    3    0    0 -0.47307955739E-01  0.18218457797E-01  0.12073713204E+00  0.13245810512E+00  0.19943411907E-01 0.  0.
         14    1    1    2    0    0  0.21347554955E-01 -0.14280182346E-02 -0.11178162605E-01  0.24139359102E-01  0.00000000000E+00 0.  1.
     999901    1    3    3    0    0  0.25960400783E-01 -0.16790439563E-01 -0.10955896943E+00  0.88733253578E+00  0.88000000000E+00 0. -1.
        -11    1    4    4    0    0 -0.17712890956E-01  0.14964077313E-01  0.37925165197E-01  0.44455026623E-01  0.51100000000E-03 0. -1.
         11    1    4    4    0    0 -0.29595064782E-01  0.32543804842E-02  0.82811966839E-01  0.88003078495E-01  0.51100000000E-03 0.  1.
</event>
<event>
 8    1  0.1099478E+005  0.1043930E+01  0.7957747E-01            NaN
         13   -1    0    0    0    0  0.00000000000E+00  0.00000000000E+00  0.74505805969E-08  0.10566000000E+00  0.10566000000E+00 0.  1.
     999900   -1    0    0    0    0 -0.00000000000E+00 -0.00000000000E+00 -0.74505805969E-08  0.93827000000E+00  0.93827000000E+00 0.  1.
     999902    2    1    2    0    0 -0.10036671557E-01 -0.87565380314E-02  0.19058998451E-01  0.10206779645E+01  0.10204130781E+01 0.  0.
     999903    2    3    3    0    0  0.36567486992E-01  0.26218444360E-01  0.12291735931E+00  0.13265670566E+00  0.21553106654E-01 0.  0.
         14    1    1    2    0    0  0.10036671557E-01  0.87565380314E-02 -0.19058998451E-01  0.23252035528E-01  0.00000000000E+00 0.  1.
     999901    1    3    3    0    0 -0.46604158549E-01 -0.34974982391E-01 -0.10385836086E+00  0.88802125882E+00  0.88000000000E+00 0.  1.
        -11    1    4    4    0    0  0.24514740073E-01  0.51291184896E-02  0.52607149798E-01  0.58267089066E-01  0.51100000000E-03 0.  1.
         11    1    4    4    0    0  0.12052746919E-01  0.21089325870E-01  0.70310209512E-01  0.74389616591E-01  0.51100000000E-03 0. -1.
</event>
<event>
 8    1  0.1099478E+005  0.1043930E+01  0.7957747E-01            NaN
         13   -1    0    0    0    0  0.00000000000E+00  0.00000000000E+00  0.74505805969E-08  0.10566000000E+00  0.10566000000E+00 0.  1.
     999900   -1    0    0    0    0 -0.00000000000E+00 -0.00000000000E+00 -0.74505805969E-08  0.93827000000E+00  0.93827000000E+00 0.  1.
     999902    2    1    2    0    0 -0.64519857768E-02  0.78490392457E-02  0.21453510297E-01  0.10201920843E+01  0.10199158790E+01 0.  0.
     999903    2    3    3    0    0 -0.12977506099E+00 -0.17983883936E-02  0.40910349576E-02  0.13137089346E+00  0.19919197407E-01 0.  0.
         14    1    1    2    0    0  0.64519857768E-02 -0.78490392457E-02 -0.21453510297E-01  0.23737915697E-01  0.00000000000E+00 0. -1.
     999901    1    3    3    0    0  0.12332307522E+00  0.96474276393E-02  0.17362475340E-01  0.88882119084E+00  0.88000000000E+00 0. -1.
        -11    1    4    4    0    0 -0.53774328678E-01 -0.10551385314E-01  0.18335397200E-02  0.54832774375E-01  0.51100000000E-03 0.  1.
         11    1    4    4    0    0 -0.76000732315E-01  0.87529969202E-02  0.22574952376E-02  0.76538119086E-01  0.51100000000E-03 0. -1.
</event>
<event>
 8    1  0.1099478E+005  0.1043930E+01  0.7957747E-01            NaN
         13   -1    0    0    0    0  0.00000000000E+00  0.00000000000E+00  0.74505805969E-08  0.10566000000E+00  0.10566000000E+00 0. -1.
     999900   -1    0    0    0    0 -0.00000000000E+00 -0.00000000000E+00 -0.74505805969E-08  0.93827000000E+00  0.93827000000E+00 0.  1.
     999902    2    1    2    0    0 -0.34326359080E-02 -0.20740289422E-01 -0.10288282457E-01  0.10205250571E+01  0.10202566348E+01 0.  0.
     999903    2    3    3    0    0  0.30327224874E-01  0.37498918330E-01  0.11763815715E+00  0.12873096236E+00  0.20174617946E-01 0.  0.
         14    1    1    2    0    0  0.34326359080E-02  0.20740289422E-01  0.10288282457E-01  0.23404942864E-01  0.00000000000E+00 0.  1.
     999901    1    3    3    0    0 -0.33759860782E-01 -0.58239207752E-01 -0.12792643961E+00  0.89179409477E+00  0.88000000000E+00 0.  1.
        -11    1    4    4    0    0  0.76331599507E-03  0.14073546919E-01  0.39997326623E-01  0.42411020173E-01  0.51100000000E-03 0.  1.
         11    1    4    4    0    0  0.29563908879E-01  0.23425371411E-01  0.77640830526E-01  0.86319942190E-01  0.51100000000E-03 0. -1.
</event>
<event>
 8    1  0.1099478E+005  0.1043930E+01  0.7957747E-01            NaN
         13   -1    0    0    0    0  0.00000000000E+00  0.00000000000E+00  0.74505805969E-08  0.10566000000E+00  0.10566000000E+00 0. -1.
     999900   -1    0    0    0    0 -0.00000000000E+00 -0.00000000000E+00 -0.74505805969E-08  0.93827000000E+00  0.93827000000E+00 0.  1.
     999902    2    1    2    0    0  0.23142678642E-01  0.47458886482E-02  0.41665458953E-03  0.10203020370E+01  0.10200284144E+01 0.  0.
     999903    2    3    3    0    0 -0.10064478382E+00  0.18048472158E-01 -0.74912046800E-01  0.12835209008E+00  0.20182279692E-01 0.  0.
         14    1    1    2    0    0 -0.23142678642E-01 -0.47458886482E-02 -0.41665458953E-03  0.23627962986E-01  0.00000000000E+00 0.  1.
     999901    1    3    3    0    0  0.12378746246E+00 -0.13302583510E-01  0.75328701389E-01  0.89194994694E+00  0.88000000000E+00 0.  1.
        -11    1    4    4    0    0 -0.79586925592E-01  0.66334007472E-02 -0.62212876923E-01  0.10123627762E+00  0.51100000000E-03 0.  1.
         11    1    4    4    0    0 -0.21057858229E-01  0.11415071411E-01 -0.12699169877E-01  0.27115812454E-01  0.51100000000E-03 0. -1.
</event>
<event>
 8    1  0.1099478E+005  0.1043930E+01  0.7957747E-01            NaN
         13   -1    0    0    0    0  0.00000000000E+00  0.00000000000E+00  0.74505805969E-08  0.10566000000E+00  0.10566000000E+00 0.  1.
     999900   -1    0    0    0    0 -0.00000000000E+00 -0.00000000000E+00 -0.74505805969E-08  0.93827000000E+00  0.93827000000E+00 0. -1.
     999902    2    1    2    0    0 -0.53552232137E-02 -0.96301646727E-02  0.14886111097E-01  0.10254093415E+01  0.10252420704E+01 0.  0.
     999903    2    3    3    0    0  0.76096865946E-01  0.35243714242E-01  0.10525141025E+00  0.13590723633E+00  0.18975382066E-01 0.  0.
         14    1    1    2    0    0  0.53552232137E-02  0.96301646727E-02 -0.14886111097E-01  0.18520658490E-01  0.00000000000E+00 0. -1.
     999901    1    3    3    0    0 -0.81452089160E-01 -0.44873878915E-01 -0.90365299157E-01  0.88950210519E+00  0.88000000000E+00 0. -1.
        -11    1    4    4    0    0  0.43196158899E-01  0.30162800533E-01  0.64536334676E-01  0.83312077720E-01  0.51100000000E-03 0.  1.
         11    1    4    4    0    0  0.32900707047E-01  0.50809137090E-02  0.40715075579E-01  0.52595158605E-01  0.51100000000E-03 0. -1.
</event>
<event>
 8    1  0.1099478E+005  0.1043930E+01  0.7957747E-01            NaN
         13   -1    0    0    0    0  0.00000000000E+00  0.00000000000E+00  0.74505805969E-08  0.10566000000E+00  0.10566000000E+00 0.  1.
     999900   -1    0    0    0    0 -0.00000000000E+00 -0.00000000000E+00 -0.74505805969E-08  0.93827000000E+00  0.93827000000E+00 0.  1.
     999902    2    1    2    0    0  0.23149503190E-01  0.94570892092E-04  0.22232167501E-02  0.10206737936E+01  0.10204088112E+01 0.  0.
     999903    2    3    3    0    0 -0.32566393345E-01 -0.12365313779E+00 -0.13239540353E-01  0.13013639780E+00  0.20236801659E-01 0.  0.
         14    1    1    2    0    0 -0.23149503190E-01 -0.94570892092E-04 -0.22232167501E-02  0.23256206361E-01  0.00000000000E+00 0. -1.
     999901    1    3    3    0    0  0.55715896535E-01  0.12374770869E+00  0.15462757103E-01  0.89053739584E+00  0.88000000000E+00 0.  1.
        -11    1    4    4    0    0 -0.85107674816E-02 -0.93820716474E-02 -0.16987784799E-02  0.12790754507E-01  0.51100000000E-03 0.  1.
         11    1    4    4    0    0 -0.24055625863E-01 -0.11427106615E+00 -0.11540761873E-01  0.11734564329E+00  0.51100000000E-03 0. -1.
</event>
<event>
 8    1  0.1099478E+005  0.1043930E+01  0.7957747E-01            NaN
         13   -1    0    0    0    0  0.00000000000E+00  0.00000000000E+00  0.74505805969E-08  0.10566000000E+00  0.10566000000E+00 0.  1.
     999900   -1    0    0    0    0 -0.00000000000E+00 -0.00000000000E+00 -0.74505805969E-08  0.93827000000E+00  0.93827000000E+00 0.  1.
     999902    2    1    2    0    0  0.21274286873E-01  0.52704410160E-02 -0.72680076106E-02  0.10208389462E+01  0.10205777566E+01 0.  0.
     999903    2    3    3    0    0 -0.39198153450E-01  0.19403004197E-01  0.12047955171E+00  0.12944897303E+00  0.18131255650E-01 0.  0.
         14    1    1    2    0    0 -0.21274286873E-01 -0.52704410160E-02  0.72680076106E-02  0.23091053789E-01  0.00000000000E+00 0. -1.
     999901    1    3    3    0    0  0.60472440323E-01 -0.14132563181E-01 -0.12774755932E+00  0.89138997318E+00  0.88000000000E+00 0.  1.
        -11    1    4    4    0    0 -0.19167863902E-01  0.11682074960E-01  0.37246610576E-01  0.43490792156E-01  0.51100000000E-03 0.  1.
         11    1    4    4    0    0 -0.20030289548E-01  0.77209292367E-02  0.83232941135E-01  0.85958180871E-01  0.51100000000E-03 0. -1.
</event>
<event>
 8    1  0.1099478E+005  0.1043930E+01  0.7957747E-01            NaN
         13   -1    0    0    0    0  0.00000000000E+00  0.00000000000E+00  0.74505805969E-08  0.10566000000E+00  0.10566000000E+00 0.  1.
     999900   -1    0    0    0    0 -0.00000000000E+00 -0.00000000000E+00 -0.74505805969E-08  0.93827000000E+00  0.93827000000E+00 0.  1.
     999902    2    1    2    0    0  0.14009925806E-01 -0.19575052011E-01 -0.79908748756E-03  0.10198447509E+01  0.10195603056E+01 0.  0.
     999903    2    3    3    0    0  0.12248683587E-01  0.53527270214E-01  0.11529695712E+00  0.12921276011E+00  0.19681213040E-01 0.  0.
         14    1    1    2    0    0 -0.14009925806E-01  0.19575052011E-01  0.79908748756E-03  0.24085249077E-01  0.00000000000E+00 0.  1.
     999901    1    3    3    0    0  0.17612422182E-02 -0.73102322224E-01 -0.11609604461E+00  0.89063199081E+00  0.88000000000E+00 0.  1.
        -11    1    4    4    0    0 -0.53928128274E-03  0.64212224369E-02  0.32172192625E-01  0.32815149263E-01  0.51100000000E-03 0. -1.
         11    1    4    4    0    0  0.12787964870E-01  0.47106047777E-01  0.83124764498E-01  0.96397610845E-01  0.51100000000E-03 0.  1.
</event>
<event>
 8    1  0.1099478E+005  0.1043930E+01  0.7957747E-01            NaN
         13   -1    0    0    0    0  0.00000000000E+00  0.00000000000E+00  0.74505805969E-08  0.10566000000E+00  0.10566000000E+00 0. -1.
     999900   -1    0    0    0    0 -0.00000000000E+00 -0.00000000000E+00 -0.74505805969E-08  0.93827000000E+00  0.93827000000E+00 0.  1.
     999902    2    1    2    0    0  0.15906217076E-01  0.72178819207E-02 -0.17276895187E-01  0.10193617956E+01  0.10190656866E+01 0.  0.
     999903    2    3    3    0    0 -0.90158892738E-02  0.11665513948E+00  0.51334222998E-01  0.12958367140E+00  0.21610590407E-01 0.  0.
         14    1    1    2    0    0 -0.15906217076E-01 -0.72178819207E-02  0.17276895187E-01  0.24568204419E-01  0.00000000000E+00 0. -1.
     999901    1    3    3    0    0  0.24922106350E-01 -0.10943725756E+00 -0.68611118185E-01  0.88977812418E+00  0.88000000000E+00 0.  1.
        -11    1    4    4    0    0 -0.84378359543E-02  0.77370448667E-01  0.44644124298E-01  0.89725929128E-01  0.51100000000E-03 0. -1.
         11    1    4    4    0    0 -0.57805331943E-03  0.39284690810E-01  0.66900987003E-02  0.39857742275E-01  0.51100000000E-03 0.  1.
</event>
<event>
 8    1  0.1099478E+005  0.1043930E+01  0.7957747E-01            NaN
         13   -1    0    0    0    0  0.00000000000E+00  0.00000000000E+00  0.74505805969E-08  0.10566000000E+00  0.10566000000E+00 0. -1.
     999900   -1    0    0    0    0 -0.00000000000E+00 -0.00000000000E+00 -0.74505805969E-08  0.93827000000E+00  0.93827000000E+00 0.  1.
     999902    2    1    2    0    0 -0.72495376735E-02  0.20994727529E-01 -0.71594842566E-02  0.10205934922E+01  0.10203266554E+01 0.  0.
     999903    2    3    3    0    0 -0.25195240306E-03 -0.68963350547E-01  0.10680552981E+00  0.12866891781E+00  0.19805605627E-01 0.  0.
         14    1    1    2    0    0  0.72495376735E-02 -0.20994727529E-01  0.71594842566E-02  0.23336507779E-01  0.00000000000E+00 0.  1.
     999901    1    3    3    0    0 -0.69975852704E-02  0.89958078076E-01 -0.11396501406E+00  0.89192457441E+00  0.88000000000E+00 0.  1.
        -11    1    4    4    0    0  0.30646478271E-02 -0.47652179834E-01  0.56790314849E-01  0.74199213546E-01  0.51100000000E-03 0.  1.
         11    1    4    4    0    0 -0.33166002302E-02 -0.21311170713E-01  0.50015214957E-01  0.54469704263E-01  0.51100000000E-03 0. -1.
</event>
<event>
 8    1  0.1099478E+005  0.1043930E+01  0.7957747E-01            NaN
         13   -1    0    0    0    0  0.00000000000E+00  0.00000000000E+00  0.74505805969E-08  0.10566000000E+00  0.10566000000E+00 0. -1.
     999900   -1    0    0    0    0 -0.00000000000E+00 -0.00000000000E+00 -0.74505805969E-08  0.93827000000E+00  0.93827000000E+00 0.  1.
     999902    2    1    2    0    0 -0.10199276537E-01  0.12050518987E-01  0.17357776977E-01  0.10204665674E+01  0.10201967861E+01 0.  0.
     999903    2    3    3    0    0  0.38105810945E-01 -0.93938968321E-01 -0.75720976837E-01  0.12792479954E+00  0.18828313949E-01 0.  0.
         14    1    1    2    0    0  0.10199276537E-01 -0.12050518987E-01 -0.17357776977E-01  0.23463432641E-01  0.00000000000E+00 0.  1.
     999901    1    3    3    0    0 -0.48305087481E-01  0.10598948731E+00  0.93078753814E-01  0.89254176782E+00  0.88000000000E+00 0.  1.
        -11    1    4    4    0    0  0.17975314595E-01 -0.52419666797E-01 -0.52197466072E-01  0.76129954598E-01  0.51100000000E-03 0. -1.
         11    1    4    4    0    0  0.20130496350E-01 -0.41519301525E-01 -0.23523510765E-01  0.51794844938E-01  0.51100000000E-03 0.  1.
</event>
<event>
 8    1  0.1099478E+005  0.1043930E+01  0.7957747E-01            NaN
         13   -1    0    0    0    0  0.00000000000E+00  0.00000000000E+00  0.74505805969E-08  0.10566000000E+00  0.10566000000E+00 0. -1.
     999900   -1    0    0    0    0 -0.00000000000E+00 -0.00000000000E+00 -0.74505805969E-08  0.93827000000E+00  0.93827000000E+00 0.  1.
     999902    2    1    2    0    0 -0.17777564170E-01 -0.17065207048E-01 -0.54572883083E-03  0.10192812495E+01  0.10189831720E+01 0.  0.
     999903    2    3    3    0    0 -0.36211573579E-01  0.76905074143E-01 -0.95327655088E-01  0.12902631976E+00  0.18296471674E-01 0.  0.
         14    1    1    2    0    0  0.17777564170E-01  0.17065207048E-01  0.54572883083E-03  0.24648750463E-01  0.00000000000E+00 0.  1.
     999901    1    3    3    0    0  0.18434009408E-01 -0.93970281192E-01  0.94781926257E-01  0.89025492978E+00  0.88000000000E+00 0.  1.
        -11    1    4    4    0    0 -0.25366208674E-01  0.63999966361E-01 -0.67047600200E-01  0.96099334286E-01  0.51100000000E-03 0. -1.
         11    1    4    4    0    0 -0.10845364905E-01  0.12905107783E-01 -0.28280054889E-01  0.32926985473E-01  0.51100000000E-03 0.  1.
</event>
<event>
 8    1  0.1099478E+005  0.1043930E+01  0.7957747E-01            NaN
         13   -1    0    0    0    0  0.00000000000E+00  0.00000000000E+00  0.74505805969E-08  0.10566000000E+00  0.10566000000E+00 0.  1.
     999900   -1    0    0    0    0 -0.00000000000E+00 -0.00000000000E+00 -0.74505805969E-08  0.93827000000E+00  0.93827000000E+00 0. -1.
     999902    2    1    2    0    0 -0.22480290359E-01  0.50198740461E-02  0.47530442671E-02  0.10204107734E+01  0.10201396926E+01 0.  0.
     999903    2    3    3    0    0 -0.35879886186E-01 -0.78792682491E-01  0.97070359964E-01  0.13152012738E+00  0.19473984595E-01 0.  0.
         14    1    1    2    0    0  0.22480290359E-01 -0.50198740461E-02 -0.47530442671E-02  0.23519226600E-01  0.00000000000E+00 0. -1.
     999901    1    3    3    0    0  0.13399595827E-01  0.83812556537E-01 -0.92317315697E-01  0.88889064602E+00  0.88000000000E+00 0.  1.
        -11    1    4    4    0    0 -0.28386763861E-01 -0.60189831218E-01  0.61155136349E-01  0.90381612994E-01  0.51100000000E-03 0. -1.
         11    1    4    4    0    0 -0.74931223243E-02 -0.18602851273E-01  0.35915223616E-01  0.41138514388E-01  0.51100000000E-03 0.  1.
</event>
<event>
 8    1  0.1099478E+005  0.1043930E+01  0.7957747E-01            NaN
         13   -1    0    0    0    0  0.00000000000E+00  0.00000000000E+00  0.74505805969E-08  0.10566000000E+00  0.10566000000E+00 0.  1.
     999900   -1    0    0    0    0 -0.00000000000E+00 -0.00000000000E+00 -0.74505805969E-08  0.93827000000E+00  0.93827000000E+00 0.  1.
     999902    2    1    2    0    0 -0.13488522883E-01  0.18075181051E-01  0.18280332457E-02  0.10213027128E+01  0.10210520247E+01 0.  0.
     999903    2    3    3    0    0 -0.10768033746E+00 -0.72035659413E-01  0.11433970885E-01  0.13164865896E+00  0.20406920722E-01 0.  0.
         14    1    1    2    0    0  0.13488522883E-01 -0.18075181051E-01 -0.18280332457E-02  0.22627287180E-01  0.00000000000E+00 0. -1.
     999901    1    3    3    0    0  0.94191814582E-01  0.90110840464E-01 -0.96059376396E-02  0.88965405386E+00  0.88000000000E+00 0.  1.
        -11    1    4    4    0    0 -0.78963840847E-01 -0.58353234304E-01  0.16089030452E-01  0.99496261925E-01  0.51100000000E-03 0.  1.
         11    1    4    4    0    0 -0.28716496617E-01 -0.13682425109E-01 -0.46550595666E-02  0.32152397040E-01  0.51100000000E-03 0. -1.
</event>
<event>
 8    1  0.1099478E+005  0.1043930E+01  0.7957747E-01            NaN
         13   -1    0    0    0    0  0.00000000000E+00  0.00000000000E+00  0.74505805969E-08  0.10566000000E+00  0.10566000000E+00 0. -1.
     999900   -1    0    0    0    0 -0.00000000000E+00 -0.00000000000E+00 -0.74505805969E-08  0.93827000000E+00  0.93827000000E+00 0. -1.
     999902    2    1    2    0    0  0.98207762801E-03  0.18466209964E-01  0.15589264413E-01  0.10197434221E+01  0.10194565495E+01 0.  0.
     999903    2    3    3    0    0  0.97327964109E-01 -0.43048729848E-01  0.72712583982E-01  0.13051359166E+00  0.20512240215E-01 0.  0.
         14    1    1    2    0    0 -0.98207762801E-03 -0.18466209964E-01 -0.15589264413E-01  0.24186577927E-01  0.00000000000E+00 0.  1.
     999901    1    3    3    0    0 -0.96345886481E-01  0.61514939812E-01 -0.57123319570E-01  0.88922983042E+00  0.88000000000E+00 0. -1.
        -11    1    4    4    0    0  0.19375853463E-01 -0.18014993253E-01  0.19401731988E-01  0.32812375782E-01  0.51100000000E-03 0.  1.
         11    1    4    4    0    0  0.77952110646E-01 -0.25033736595E-01  0.53310851995E-01  0.97701215875E-01  0.51100000000E-03 0. -1.
</event>
<event>
 8    1  0.1099478E+005  0.1043930E+01  0.7957747E-01            NaN
         13   -1    0    0    0    0  0.00000000000E+00  0.00000000000E+00  0.74505805969E-08  0.10566000000E+00  0.10566000000E+00 0. -1.
     999900   -1    0    0    0    0 -0.00000000000E+00 -0.00000000000E+00 -0.74505805969E-08  0.93827000000E+00  0.93827000000E+00 0. -1.
     999902    2    1    2    0    0 -0.24637169040E-02 -0.16480040378E-01 -0.17209362172E-01  0.10199753809E+01  0.10196940491E+01 0.  0.
     999903    2    3    3    0    0 -0.64442119202E-01 -0.10770853969E+00  0.34392725331E-01  0.13159104012E+00  0.19478861188E-01 0.  0.
         14    1    1    2    0    0  0.24637169040E-02  0.16480040378E-01  0.17209362172E-01  0.23954619141E-01  0.00000000000E+00 0. -1.
     999901    1    3    3    0    0  0.61978402298E-01  0.91228499317E-01 -0.51602087502E-01  0.88838434074E+00  0.88000000000E+00 0. -1.
        -11    1    4    4    0    0 -0.35855606937E-01 -0.77242650231E-01  0.25204268384E-01  0.88811980213E-01  0.51100000000E-03 0. -1.
         11    1    4    4    0    0 -0.28586512265E-01 -0.30465889464E-01  0.91884569465E-02  0.42779059905E-01  0.51100000000E-03 0.  1.
</event>
<event>
 8    1  0.1099478E+005  0.1043930E+01  0.7957747E-01            NaN
         13   -1    0    0    0    0  0.00000000000E+00  0.00000000000E+00  0.74505805969E-08  0.10566000000E+00  0.10566000000E+00 0.  1.
     999900   -1    0    0    0    0 -0.00000000000E+00 -0.00000000000E+00 -0.74505805969E-08  0.93827000000E+00  0.93827000000E+00 0. -1.
     999902    2    1    2    0    0  0.40366297214E-02 -0.22887980608E-01  0.22094704138E-02  0.10205839983E+01  0.10203169418E+01 0.  0.
     999903    2    3    3    0    0  0.99126475207E-01  0.27105595331E-01  0.78042419938E-01  0.13081320052E+00  0.21463986939E-01 0.  0.
         14    1    1    2    0    0 -0.40366297214E-02  0.22887980608E-01 -0.22094704138E-02  0.23346001699E-01  0.00000000000E+00 0. -1.
     999901    1    3    3    0    0 -0.95089845486E-01 -0.49993575939E-01 -0.75832949525E-01  0.88977079778E+00  0.88000000000E+00 0. -1.
        -11    1    4    4    0    0  0.62938811930E-01  0.69933472915E-02  0.42732236252E-01  0.76397029324E-01  0.51100000000E-03 0.  1.
         11    1    4    4    0    0  0.36187663277E-01  0.20112248040E-01  0.35310183687E-01  0.54416171196E-01  0.51100000000E-03 0. -1.
</event>
<event>
 8    1  0.1099478E+005  0.1043930E+01  0.7957747E-01            NaN
         13   -1    0    0    0    0  0.00000000000E+00  0.00000000000E+00  0.74505805969E-08  0.10566000000E+00  0.10566000000E+00 0. -1.
     999900   -1    0    0    0    0 -0.00000000000E+00 -0.00000000000E+00 -0.74505805969E-08  0.93827000000E+00  0.93827000000E+00 0.  1.
     999902    2    1    2    0    0  0.15955523412E-01 -0.11486166203E-01  0.12457514939E-01  0.10206555415E+01  0.10203901381E+01 0.  0.
     999903    2    3    3    0    0  0.48179094738E-01  0.11313683047E+00 -0.37156873536E-01  0.12990819379E+00  0.19347816035E-01 0.  0.
         14    1    1    2    0    0 -0.15955523412E-01  0.11486166203E-01 -0.12457514939E-01  0.23274458530E-01  0.00000000000E+00 0.  1.
     999901    1    3    3    0    0 -0.32223571326E-01 -0.12462299667E+00  0.49614388476E-01  0.89074734768E+00  0.88000000000E+00 0.  1.
        -11    1    4    4    0    0  0.21302290856E-01  0.38996276778E-01 -0.22060839231E-01  0.49612890934E-01  0.51100000000E-03 0. -1.
         11    1    4    4    0    0  0.26876803882E-01  0.74140553691E-01 -0.15096034305E-01  0.80295302860E-01  0.51100000000E-03 0.  1.
</event>
<event>
 8    1  0.1099478E+005  0.1043930E+01  0.7957747E-01            NaN
         13   -1    0    0    0    0  0.00000000000E+00  0.00000000000E+00  0.74505805969E-08  0.10566000000E+00  0.10566000000E+00 0. -1.
     999900   -1    0    0    0    0 -0.00000000000E+00 -0.00000000000E+00 -0.74505805969E-08  0.93827000000E+00  0.93827000000E+00 0.  1.
     999902    2    1    2    0    0 -0.15534129430E-01  0.15697026997E-01 -0.87112716355E-02  0.10201899055E+01  0.10199136489E+01 0.  0.
     999903    2    3    3    0    0 -0.15021995076E-01 -0.12536827766E+00  0.13859655559E-01  0.12866922193E+00  0.20513732962E-01 0.  0.
         14    1    1    2    0    0  0.15534129430E-01 -0.15697026997E-01  0.87112716355E-02  0.23740094507E-01  0.00000000000E+00 0. -1.
     999901    1    3    3    0    0 -0.51213435376E-03  0.14106530466E+00 -0.22570927195E-01  0.89152068356E+00  0.88000000000E+00 0.  1.
        -11    1    4    4    0    0 -0.73330297220E-02 -0.11876920657E-01  0.37842547312E-02  0.14471222273E-01  0.51100000000E-03 0.  1.
         11    1    4    4    0    0 -0.76889653542E-02 -0.11349135701E+00  0.10075400828E-01  0.11419799966E+00  0.51100000000E-03 0. -1.
</event>
<event>
 8    1  0.1099478E+005  0.1043930E+01  0.7957747E-01            NaN
         13   -1    0    0    0    0  0.00000000000E+00  0.00000000000E+00  0.74505805969E-08  0.10566000000E+00  0.10566000000E+00 0.  1.
     999900   -1    0    0    0    0 -0.00000000000E+00 -0.00000000000E+00 -0.74505805969E-08  0.93827000000E+00  0.93827000000E+00 0. -1.
     999902    2    1    2    0    0 -0.71723267026E-02  0.49616639761E-02  0.24457579979E-01  0.10179639915E+01  0.10176327699E+01 0.  0.
     999903    2    3    3    0    0 -0.10309489873E-01 -0.65488708655E-01 -0.10502816574E+00  0.12569740848E+00  0.19335624056E-01 0.  0.
         14    1    1    2    0    0  0.71723267026E-02 -0.49616639761E-02 -0.24457579979E-01  0.25966008514E-01  0.00000000000E+00 0. -1.
     999901    1    3    3    0    0  0.31371631704E-02  0.70450372631E-01  0.12948574572E+00  0.89226658300E+00  0.88000000000E+00 0.  1.
        -11    1    4    4    0    0 -0.15895140947E-01 -0.51671340839E-01 -0.79734240240E-01  0.96334797231E-01  0.51100000000E-03 0. -1.
         11    1    4    4    0    0  0.55856510742E-02 -0.13817367815E-01 -0.25293925502E-01  0.29362611253E-01  0.51100000000E-03 0.  1.
</event>
<event>
 8    1  0.1099478E+005  0.1043930E+01  0.7957747E-01            NaN
         13   -1    0    0    0    0  0.00000000000E+00  0.00000000000E+00  0.74505805969E-08  0.10566000000E+00  0.10566000000E+00 0. -1.
     999900   -1    0    0    0    0 -0.00000000000E+00 -0.00000000000E+00 -0.74505805969E-08  0.93827000000E+00  0.93827000000E+00 0. -1.
     999902    2    1    2    0    0  0.10772922477E-01  0.13182957328E-02  0.21325644049E-01  0.10200014218E+01  0.10197207086E+01 0.  0.
     999903    2    3    3    0    0 -0.23831173834E-02  0.13782068457E-01  0.13080592255E+00  0.13303222365E+00  0.19792890081E-01 0.  0.
         14    1    1    2    0    0 -0.10772922477E-01 -0.13182957328E-02 -0.21325644049E-01  0.23928578237E-01  0.00000000000E+00 0.  1.
     999901    1    3    3    0    0  0.13156039860E-01 -0.12463772724E-01 -0.10948027850E+00  0.88696919811E+00  0.88000000000E+00 0. -1.
        -11    1    4    4    0    0 -0.64648982608E-02  0.13988951804E-01  0.55168031766E-01  0.57282270660E-01  0.51100000000E-03 0.  1.
         11    1    4    4    0    0  0.40817808774E-02 -0.20688334663E-03  0.75637890780E-01  0.75749952993E-01  0.51100000000E-03 0. -1.
</event>
<event>
 8    1  0.1099478E+005  0.1043930E+01  0.7957747E-01            NaN
         13   -1    0    0    0    0  0.00000000000E+00  0.00000000000E+00  0.74505805969E-08  0.10566000000E+00  0.10566000000E+00 0.  1.
     999900   -1    0    0    0    0 -0.00000000000E+00 -0.00000000000E+00 -0.74505805969E-08  0.93827000000E+00  0.93827000000E+00 0. -1.
     999902    2    1    2    0    0  0.18671649248E-01 -0.14451139703E-01 -0.37008796800E-02  0.10200309951E+01  0.10197509836E+01 0.  0.
     999903    2    3    3    0    0  0.16790732387E-01 -0.72098750036E-01  0.10670591581E+00  0.13125855780E+00  0.19039382278E-01 0.  0.
         14    1    1    2    0    0 -0.18671649248E-01  0.14451139703E-01  0.37008796800E-02  0.23899004891E-01  0.00000000000E+00 0. -1.
     999901    1    3    3    0    0  0.18809168613E-02  0.57647610332E-01 -0.11040679549E+00  0.88877243731E+00  0.88000000000E+00 0. -1.
        -11    1    4    4    0    0  0.14940542207E-02 -0.36665916672E-01  0.63338816829E-01  0.73203063335E-01  0.51100000000E-03 0. -1.
         11    1    4    4    0    0  0.15296678166E-01 -0.35432833364E-01  0.43367098978E-01  0.58055494468E-01  0.51100000000E-03 0.  1.
</event>
<event>
 8    1  0.1099478E+005  0.1043930E+01  0.7957747E-01            NaN
         13   -1    0    0    0    0  0.00000000000E+00  0.00000000000E+00  0.74505805969E-08  0.10566000000E+00  0.10566000000E+00 0. -1.
     999900   -1    0    0    0    0 -0.00000000000E+00 -0.00000000000E+00 -0.74505805969E-08  0.93827000000E+00  0.93827000000E+00 0. -1.
     999902    2    1    2    0    0  0.34050279446E-02 -0.66619737120E-02  0.21933407458E-01  0.10207556506E+01  0.10204925515E+01 0.  0.
     999903    2    3    3    0    0  0.64741082252E-01 -0.68728015921E-01 -0.86973967470E-01  0.12975894941E+00  0.18919990247E-01 0.  0.
         14    1    1    2    0    0 -0.34050279446E-02  0.66619737120E-02 -0.21933407458E-01  0.23174349436E-01  0.00000000000E+00 0. -1.
     999901    1    3    3    0    0 -0.61336054307E-01  0.62066042209E-01  0.10890737493E+00  0.89099670115E+00  0.88000000000E+00 0.  1.
        -11    1    4    4    0    0  0.22307879588E-01 -0.31045610991E-01 -0.24766366743E-01  0.45553325852E-01  0.51100000000E-03 0.  1.
         11    1    4    4    0    0  0.42433202664E-01 -0.37682404930E-01 -0.62207600727E-01  0.84205623558E-01  0.51100000000E-03 0. -1.
</event>
<event>
 8    1  0.1099478E+005  0.1043930E+01  0.7957747E-01            NaN
         13   -1    0    0    0    0  0.00000000000E+00  0.00000000000E+00  0.74505805969E-08  0.10566000000E+00  0.10566000000E+00 0. -1.
     999900   -1    0    0    0    0 -0.00000000000E+00 -0.00000000000E+00 -0.74505805969E-08  0.93827000000E+00  0.93827000000E+00 0. -1.
     999902    2    1    2    0    0  0.16142882987E-01 -0.10350456057E-01  0.13900445976E-01  0.10202456801E+01  0.10199707352E+01 0.  0.
     999903    2    3    3    0    0  0.73332446382E-01  0.55617652744E-01  0.92755956956E-01  0.13241651343E+00  0.21435822574E-01 0.  0.
         14    1    1    2    0    0 -0.16142882987E-01  0.10350456057E-01 -0.13900445976E-01  0.23684319920E-01  0.00000000000E+00 0. -1.
     999901    1    3    3    0    0 -0.57189563394E-01 -0.65968108801E-01 -0.78855510980E-01  0.88782916665E+00  0.88000000000E+00 0. -1.
        -11    1    4    4    0    0  0.44426731293E-01  0.23573899582E-01  0.40042873647E-01  0.64289626270E-01  0.51100000000E-03 0.  1.
         11    1    4    4    0    0  0.28905715088E-01  0.32043753161E-01  0.52713083309E-01  0.68126887162E-01  0.51100000000E-03 0. -1.
</event>
<event>
 8    1  0.1099478E+005  0.1043930E+01  0.7957747E-01            NaN
         13   -1    0    0    0    0  0.00000000000E+00  0.00000000000E+00  0.74505805969E-08  0.10566000000E+00  0.10566000000E+00 0. -1.
     999900   -1    0    0    0    0 -0.00000000000E+00 -0.00000000000E+00 -0.74505805969E-08  0.93827000000E+00  0.93827000000E+00 0. -1.
     999902    2    1    2    0    0 -0.10371756010E-01  0.93607339695E-02  0.19391567200E-01  0.10200295912E+01  0.10197495464E+01 0.  0.
     999903    2    3    3    0    0  0.10282811584E+00 -0.62764123299E-01 -0.37983451717E-01  0.12800487246E+00  0.20725544334E-01 0.  0.
         14    1    1    2    0    0  0.10371756010E-01 -0.93607339695E-02 -0.19391567200E-01  0.23900408818E-01  0.00000000000E+00 0.  1.
     999901    1    3    3    0    0 -0.11319987185E+00  0.72124857268E-01  0.57375018917E-01  0.89202471873E+00  0.88000000000E+00 0.  1.
        -11    1    4    4    0    0  0.25840419110E-01 -0.19285517641E-01 -0.19469179146E-01  0.37669198400E-01  0.51100000000E-03 0.  1.
         11    1    4    4    0    0  0.76987696728E-01 -0.43478605658E-01 -0.18514272572E-01  0.90335674057E-01  0.51100000000E-03 0. -1.
</event>
<event>
 8    1  0.1099478E+005  0.1043930E+01  0.7957747E-01            NaN
         13   -1    0    0    0    0  0.00000000000E+00  0.00000000000E+00  0.74505805969E-08  0.10566000000E+00  0.10566000000E+00 0.  1.
     999900   -1    0    0    0    0 -0.00000000000E+00 -0.00000000000E+00 -0.74505805969E-08  0.93827000000E+00  0.93827000000E+00 0.  1.
     999902    2    1    2    0    0 -0.21298847805E-01 -0.51279040462E-02  0.84332660813E-02  0.10204554117E+01  0.10201853709E+01 0.  0.
     999903    2    3    3    0    0 -0.10387269270E+00 -0.23691252451E-02 -0.80471651550E-01  0.13212544201E+00  0.13649054156E-01 0.  0.
         14    1    1    2    0    0  0.21298847805E-01  0.51279040462E-02 -0.84332660813E-02  0.23474588272E-01  0.00000000000E+00 0. -1.
     999901    1    3    3    0    0  0.82573844897E-01 -0.27587788011E-02  0.88904917631E-01  0.88832996972E+00  0.88000000000E+00 0. -1.
        -11    1    4    4    0    0 -0.71623742148E-01  0.54876170808E-03 -0.47731351108E-01  0.86074413029E-01  0.51100000000E-03 0.  1.
         11    1    4    4    0    0 -0.32248950554E-01 -0.29178869532E-02 -0.32740300442E-01  0.46051028980E-01  0.51100000000E-03 0. -1.
</event>
<event>
 8    1  0.1099478E+005  0.1043930E+01  0.7957747E-01            NaN
         13   -1    0    0    0    0  0.00000000000E+00  0.00000000000E+00  0.74505805969E-08  0.10566000000E+00  0.10566000000E+00 0.  1.
     999900   -1    0    0    0    0 -0.00000000000E+00 -0.00000000000E+00 -0.74505805969E-08  0.93827000000E+00  0.93827000000E+00 0.  1.
     999902    2    1    2    0    0 -0.22683529710E-01  0.65448317145E-02 -0.80379041780E-03  0.10203074806E+01  0.10200339855E+01 0.  0.
     999903    2    3    3    0    0 -0.12867226372E+00  0.27674863291E-01 -0.96457889255E-02  0.13365181415E+00  0.21149862221E-01 0.  0.
         14    1    1    2    0    0  0.22683529710E-01 -0.65448317145E-02  0.80379041780E-03  0.23622519368E-01  0.00000000000E+00 0. -1.
     999901    1    3    3    0    0  0.10598873401E+00 -0.21130031576E-01  0.88419985077E-02  0.88665566648E+00  0.88000000000E+00 0. -1.
        -11    1    4    4    0    0 -0.82663326801E-01  0.12846147500E-01  0.29027524612E-02  0.83707444091E-01  0.51100000000E-03 0. -1.
         11    1    4    4    0    0 -0.46008936919E-01  0.14828715790E-01 -0.12548541387E-01  0.49944370056E-01  0.51100000000E-03 0.  1.
</event>
<event>
 8    1  0.1099478E+005  0.1043930E+01  0.7957747E-01            NaN
         13   -1    0    0    0    0  0.00000000000E+00  0.00000000000E+00  0.74505805969E-08  0.10566000000E+00  0.10566000000E+00 0.  1.
     999900   -1    0    0    0    0 -0.00000000000E+00 -0.00000000000E+00 -0.74505805969E-08  0.93827000000E+00  0.93827000000E+00 0.  1.
     999902    2    1    2    0    0 -0.14799230401E-02  0.23320536430E-01  0.86803660502E-02  0.10190023778E+01  0.10186974329E+01 0.  0.
     999903    2    3    3    0    0  0.95220097906E-01 -0.39339069531E-01  0.75076171260E-01  0.12901051090E+00  0.19820469108E-01 0.  0.
         14    1    1    2    0    0  0.14799230401E-02 -0.23320536430E-01 -0.86803660502E-02  0.24927622156E-01  0.00000000000E+00 0.  1.
     999901    1    3    3    0    0 -0.96700020946E-01  0.62659605961E-01 -0.66395805210E-01  0.88999186694E+00  0.88000000000E+00 0.  1.
        -11    1    4    4    0    0  0.86328988613E-01 -0.38033228359E-01  0.61128849456E-01  0.11241093404E+00  0.51100000000E-03 0.  1.
         11    1    4    4    0    0  0.88911092937E-02 -0.13058411718E-02  0.13947321804E-01  0.16599576866E-01  0.51100000000E-03 0. -1.
</event>
<event>
 8    1  0.1099478E+005  0.1043930E+01  0.7957747E-01            NaN
         13   -1    0    0    0    0  0.00000000000E+00  0.00000000000E+00  0.74505805969E-08  0.10566000000E+00  0.10566000000E+00 0.  1.
     999900   -1    0    0    0    0 -0.00000000000E+00 -0.00000000000E+00 -0.74505805969E-08  0.93827000000E+00  0.93827000000E+00 0. -1.
     999902    2    1    2    0    0  0.25660896364E-01 -0.52462836204E-02 -0.40191988119E-02  0.10174317160E+01  0.10170865930E+01 0.  0.
     999903    2    3    3    0    0  0.10718657811E+00 -0.35946284251E-01 -0.63397218717E-01  0.13113905778E+00  0.19928553783E-01 0.  0.
         14    1    1    2    0    0 -0.25660896364E-01  0.52462836204E-02  0.40191988119E-02  0.26498283966E-01  0.00000000000E+00 0.  1.
     999901    1    3    3    0    0 -0.81525681749E-01  0.30700000631E-01  0.59378019905E-01  0.88629265825E+00  0.88000000000E+00 0.  1.
        -11    1    4    4    0    0  0.77476656077E-01 -0.25600541133E-01 -0.35118311932E-01  0.88834547880E-01  0.51100000000E-03 0. -1.
         11    1    4    4    0    0  0.29709922036E-01 -0.10345743118E-01 -0.28278906785E-01  0.42304509902E-01  0.51100000000E-03 0.  1.
</event>
<event>
 8    1  0.1099478E+005  0.1043930E+01  0.7957747E-01            NaN
         13   -1    0    0    0    0  0.00000000000E+00  0.00000000000E+00  0.74505805969E-08  0.10566000000E+00  0.10566000000E+00 0. -1.
     999900   -1    0    0    0    0 -0.00000000000E+00 -0.00000000000E+00 -0.74505805969E-08  0.93827000000E+00  0.93827000000E+00 0. -1.
     999902    2    1    2    0    0 -0.15624163398E-01 -0.13597566974E-01  0.11706003507E-01  0.10201384295E+01  0.10198609594E+01 0.  0.
     999903    2    3    3    0    0  0.43173214342E-01 -0.10620375348E+00 -0.59096800428E-01  0.13050587924E+00  0.19904497134E-01 0.  0.
         14    1    1    2    0    0  0.15624163398E-01  0.13597566974E-01 -0.11706003507E-01  0.23791570516E-01  0.00000000000E+00 0. -1.
     999901    1    3    3    0    0 -0.58797377740E-01  0.92606186503E-01  0.70802803934E-01  0.88963255024E+00  0.88000000000E+00 0.  1.
        -11    1    4    4    0    0  0.28587973978E-01 -0.47081423090E-01 -0.33327473505E-01  0.64381008594E-01  0.51100000000E-03 0.  1.
         11    1    4    4    0    0  0.14585240363E-01 -0.59122330388E-01 -0.25769326922E-01  0.66124870646E-01  0.51100000000E-03 0. -1.
</event>
<event>
 8    1  0.1099478E+005  0.1043930E+01  0.7957747E-01            NaN
         13   -1    0    0    0    0  0.00000000000E+00  0.00000000000E+00  0.74505805969E-08  0.10566000000E+00  0.10566000000E+00 0.  1.
     999900   -1    0    0    0    0 -0.00000000000E+00 -0.00000000000E+00 -0.74505805969E-08  0.93827000000E+00  0.93827000000E+00 0.  1.
     999902    2    1    2    0    0 -0.46012166463E-02  0.22858074399E-01 -0.32683177811E-02  0.10203854749E+01  0.10201138038E+01 0.  0.
     999903    2    3    3    0    0  0.11560914776E+00  0.33306655452E-01 -0.48513138844E-01  0.13099984518E+00  0.18238049642E-01 0.  0.
         14    1    1    2    0    0  0.46012166463E-02 -0.22858074399E-01  0.32683177811E-02  0.23544525074E-01  0.00000000000E+00 0. -1.
     999901    1    3    3    0    0 -0.12021036441E+00 -0.10448581053E-01  0.45244821063E-01  0.88938562974E+00  0.88000000000E+00 0. -1.
        -11    1    4    4    0    0  0.65136314504E-01  0.10254101624E-01 -0.30556876480E-01  0.72676474106E-01  0.51100000000E-03 0.  1.
         11    1    4    4    0    0  0.50472833256E-01  0.23052553828E-01 -0.17956262364E-01  0.58323371079E-01  0.51100000000E-03 0. -1.
</event>
<event>
 8    1  0.1099478E+005  0.1043930E+01  0.7957747E-01            NaN
         13   -1    0    0    0    0  0.00000000000E+00  0.00000000000E+00  0.74505805969E-08  0.10566000000E+00  0.10566000000E+00 0.  1.
     999900   -1    0    0    0    0 -0.00000000000E+00 -0.00000000000E+00 -0.74505805969E-08  0.93827000000E+00  0.93827000000E+00 0. -1.
     999902    2    1    2    0    0 -0.14363849491E-01  0.17521649177E-01 -0.14007372032E-02  0.10212299906E+01  0.10209776703E+01 0.  0.
     999903    2    3    3    0    0 -0.25195263885E-01 -0.76039210799E-01  0.10094875427E+00  0.13030554236E+00  0.19290424595E-01 0.  0.
         14    1    1    2    0    0  0.14363849491E-01 -0.17521649177E-01  0.14007372032E-02  0.22700009401E-01  0.00000000000E+00 0. -1.
     999901    1    3    3    0    0  0.10831414395E-01  0.93560859976E-01 -0.10234949147E+00  0.89092444823E+00  0.88000000000E+00 0. -1.
        -11    1    4    4    0    0  0.18786759540E-02 -0.19593123671E-01  0.26952866423E-01  0.33378706505E-01  0.51100000000E-03 0.  1.
         11    1    4    4    0    0 -0.27073939839E-01 -0.56446087128E-01  0.73995887848E-01  0.96926835860E-01  0.51100000000E-03 0. -1.
</event>
<event>
 8    1  0.1099478E+005  0.1043930E+01  0.7957747E-01            NaN
         13   -1    0    0    0    0  0.00000000000E+00  0.00000000000E+00  0.74505805969E-08  0.10566000000E+00  0.10566000000E+00 0. -1.
     999900   -1    0    0    0    0 -0.00000000000E+00 -0.00000000000E+00 -0.74505805969E-08  0.93827000000E+00  0.93827000000E+00 0.  1.
     999902    2    1    2    0    0  0.83393624179E-02  0.18606696511E-01  0.13456162725E-01  0.10195000504E+01  0.10192073049E+01 0.  0.
     999903    2    3    3    0    0  0.11748383285E+00  0.55431311542E-01 -0.97060658625E-02  0.13169091749E+00  0.19318611619E-01 0.  0.
         14    1    1    2    0    0 -0.83393624179E-02 -0.18606696511E-01 -0.13456162725E-01  0.24429949568E-01  0.00000000000E+00 0. -1.
     999901    1    3    3    0    0 -0.10914447043E+00 -0.36824615031E-01  0.23162228588E-01  0.88780913294E+00  0.88000000000E+00 0.  1.
        -11    1    4    4    0    0  0.51716316871E-01  0.22148979848E-01  0.51510420836E-02  0.56497337058E-01  0.51100000000E-03 0.  1.
         11    1    4    4    0    0  0.65767515979E-01  0.33282331694E-01 -0.14857107946E-01  0.75193580435E-01  0.51100000000E-03 0. -1.
</event>
<event>
 8    1  0.1099478E+005  0.1043930E+01  0.7957747E-01            NaN
         13   -1    0    0    0    0  0.00000000000E+00  0.00000000000E+00  0.74505805969E-08  0.10566000000E+00  0.10566000000E+00 0.  1.
     999900   -1    0    0    0    0 -0.00000000000E+00 -0.00000000000E+00 -0.74505805969E-08  0.93827000000E+00  0.93827000000E+00 0. -1.
     999902    2    1    2    0    0  0.19196891548E-01 -0.14225041116E-01 -0.36696760386E-02  0.10197568959E+01  0.10194703467E+01 0.  0.
     999903    2    3    3    0    0  0.11630784048E+00  0.57197107163E-01  0.87500261353E-02  0.13145181954E+00  0.20099628814E-01 0.  0.
         14    1    1    2    0    0 -0.19196891548E-01  0.14225041116E-01  0.36696760386E-02  0.24173104105E-01  0.00000000000E+00 0. -1.
     999901    1    3    3    0    0 -0.97110948935E-01 -0.71422148278E-01 -0.12419702174E-01  0.88830507635E+00  0.88000000000E+00 0. -1.
        -11    1    4    4    0    0  0.62785127791E-01  0.40697838211E-01  0.41485016948E-03  0.74824591736E-01  0.51100000000E-03 0.  1.
         11    1    4    4    0    0  0.53522712692E-01  0.16499268952E-01  0.83351759658E-02  0.56627227808E-01  0.51100000000E-03 0. -1.
</event>
<event>
 8    1  0.1127575E+005  0.1043930E+01  0.7957747E-01            NaN
         13   -1    0    0    0    0  0.00000000000E+00  0.00000000000E+00  0.74505805969E-08  0.10566000000E+00  0.10566000000E+00 0.  1.
     999900   -1    0    0    0    0 -0.00000000000E+00 -0.00000000000E+00 -0.74505805969E-08  0.93827000000E+00  0.93827000000E+00 0.  1.
     999902    2    1    2    0    0 -0.20365327474E-01  0.56582270542E-02  0.29194332251E-01  0.10078873706E+01  0.10072427119E+01 0.  0.
     999903    2    3    3    0    0 -0.68550414223E-01  0.56321105018E-01  0.82717367045E-01  0.12349308919E+00  0.23176585291E-01 0.  0.
         14    1    1    2    0    0  0.20365327474E-01 -0.56582270542E-02 -0.29194332251E-01  0.36042629373E-01  0.00000000000E+00 0. -1.
     999901    1    3    3    0    0  0.48185086749E-01 -0.50662877964E-01 -0.53523034794E-01  0.88439428144E+00  0.88000000000E+00 0. -1.
        -11    1    4    4    0    0 -0.13378282749E-01  0.24710403498E-01  0.24769706515E-01  0.37461740111E-01  0.51100000000E-03 0. -1.
         11    1    4    4    0    0 -0.55172131475E-01  0.31610701520E-01  0.57947660530E-01  0.86031349077E-01  0.51100000000E-03 0.  1.
</event>
<event>
 7    1  0.1279992E+005  0.1043930E+01  0.7957747E-01            NaN
         13   -1    0    0    0    0  0.00000000000E+00  0.00000000000E+00  0.74505805969E-08  0.10566000000E+00  0.10566000000E+00 0.  1.
     999900   -1    0    0    0    0 -0.00000000000E+00 -0.00000000000E+00 -0.74505805969E-08  0.93827000000E+00  0.93827000000E+00 0.  1.
     999903    2    1    2    0    0 -0.84674882300E-01  0.56510377766E-01  0.47899395074E-02  0.10432877620E+00  0.22322444643E-01 0.  0.
         14    1    1    2    0    0  0.51235422887E-03 -0.53837316877E-01 -0.13627201684E-01  0.55537553251E-01  0.00000000000E+00 0. -1.
     999901    1    1    2    0    0  0.84162528071E-01 -0.26730608889E-02  0.88372621761E-02  0.88406367055E+00  0.88000000000E+00 0. -1.
        -11    1    3    3    0    0 -0.69660950003E-01  0.36982128772E-01  0.88236936535E-02  0.79362739963E-01  0.51100000000E-03 0. -1.
         11    1    3    3    0    0 -0.15013932297E-01  0.19528248994E-01 -0.40337541461E-02  0.24966036235E-01  0.51100000000E-03 0.  1.
</event>
<event>
 8    1  0.1099478E+005  0.1043930E+01  0.7957747E-01            NaN
         13   -1    0    0    0    0  0.00000000000E+00  0.00000000000E+00  0.74505805969E-08  0.10566000000E+00  0.10566000000E+00 0.  1.
     999900   -1    0    0    0    0 -0.00000000000E+00 -0.00000000000E+00 -0.74505805969E-08  0.93827000000E+00  0.93827000000E+00 0.  1.
     999902    2    1    2    0    0 -0.21997561650E-01 -0.51361408262E-02 -0.67056574952E-02  0.10203665006E+01  0.10200943863E+01 0.  0.
     999903    2    3    3    0    0  0.95964239047E-01  0.79482241164E-01 -0.23442270821E-01  0.12831528503E+00  0.19715741781E-01 0.  0.
         14    1    1    2    0    0  0.21997561650E-01  0.51361408262E-02  0.67056574952E-02  0.23563499392E-01  0.00000000000E+00 0.  1.
     999901    1    3    3    0    0 -0.11796180070E+00 -0.84618381990E-01  0.16736613326E-01  0.89205121558E+00  0.88000000000E+00 0. -1.
        -11    1    4    4    0    0  0.37186710366E-01  0.39896196754E-01 -0.33006162309E-02  0.54641679438E-01  0.51100000000E-03 0. -1.
         11    1    4    4    0    0  0.58777528681E-01  0.39586044410E-01 -0.20141654590E-01  0.73673605589E-01  0.51100000000E-03 0.  1.
</event>
<event>
 8    1  0.1099478E+005  0.1043930E+01  0.7957747E-01            NaN
         13   -1    0    0    0    0  0.00000000000E+00  0.00000000000E+00  0.74505805969E-08  0.10566000000E+00  0.10566000000E+00 0. -1.
     999900   -1    0    0    0    0 -0.00000000000E+00 -0.00000000000E+00 -0.74505805969E-08  0.93827000000E+00  0.93827000000E+00 0.  1.
     999902    2    1    2    0    0  0.26052980022E-01  0.20341027366E-01  0.23173237195E-02  0.10107956500E+01  0.10102524243E+01 0.  0.
     999903    2    3    3    0    0 -0.43174785072E-02  0.11778441843E+00 -0.33845652146E-01  0.12415855396E+00  0.19442440854E-01 0.  0.
         14    1    1    2    0    0 -0.26052980022E-01 -0.20341027366E-01 -0.23173237195E-02  0.33134350025E-01  0.00000000000E+00 0.  1.
     999901    1    3    3    0    0  0.30370458529E-01 -0.97443391062E-01  0.36162975865E-01  0.88663709602E+00  0.88000000000E+00 0. -1.
        -11    1    4    4    0    0  0.18538172575E-02  0.52601055815E-01 -0.24354110507E-01  0.57997340723E-01  0.51100000000E-03 0. -1.
         11    1    4    4    0    0 -0.61712957648E-02  0.65183362612E-01 -0.94915416386E-02  0.66161213234E-01  0.51100000000E-03 0.  1.
</event>
<event>
 8    1  0.1099478E+005  0.1043930E+01  0.7957747E-01            NaN
         13   -1    0    0    0    0  0.00000000000E+00  0.00000000000E+00  0.74505805969E-08  0.10566000000E+00  0.10566000000E+00 0. -1.
     999900   -1    0    0    0    0 -0.00000000000E+00 -0.00000000000E+00 -0.74505805969E-08  0.93827000000E+00  0.93827000000E+00 0.  1.
     999902    2    1    2    0    0  0.12342502322E-01 -0.18791850281E-01  0.90046964250E-02  0.10197110909E+01  0.10194234416E+01 0.  0.
     999903    2    3    3    0    0 -0.29623064490E-01 -0.12066535293E+00  0.40689515458E-01  0.13227475679E+00  0.20082860008E-01 0.  0.
         14    1    1    2    0    0 -0.12342502322E-01  0.18791850281E-01 -0.90046964250E-02  0.24218909105E-01  0.00000000000E+00 0. -1.
     999901    1    3    3    0    0  0.41965566812E-01  0.10187350265E+00 -0.31684819033E-01  0.88743633411E+00  0.88000000000E+00 0.  1.
        -11    1    4    4    0    0 -0.22107225416E-01 -0.54295055746E-01  0.13520872704E-01  0.60164421495E-01  0.51100000000E-03 0.  1.
         11    1    4    4    0    0 -0.75158390742E-02 -0.66370297187E-01  0.27168642754E-01  0.72110335291E-01  0.51100000000E-03 0. -1.
</event>
<event>
 8    1  0.1099478E+005  0.1043930E+01  0.7957747E-01            NaN
         13   -1    0    0    0    0  0.00000000000E+00  0.00000000000E+00  0.74505805969E-08  0.10566000000E+00  0.10566000000E+00 0.  1.
     999900   -1    0    0    0    0 -0.00000000000E+00 -0.00000000000E+00 -0.74505805969E-08  0.93827000000E+00  0.93827000000E+00 0.  1.
     999902    2    1    2    0    0  0.15636557482E-01 -0.94962032459E-02  0.14292194035E-01  0.10207147762E+01  0.10204507375E+01 0.  0.
     999903    2    3    3    0    0  0.65737545916E-01  0.76352201142E-01  0.81953668284E-01  0.13253791730E+00  0.26435056556E-01 0.  0.
         14    1    1    2    0    0 -0.15636557482E-01  0.94962032459E-02 -0.14292194035E-01  0.23215223805E-01  0.00000000000E+00 0. -1.
     999901    1    3    3    0    0 -0.50100988434E-01 -0.85848404387E-01 -0.67661474249E-01  0.88817685889E+00  0.88000000000E+00 0.  1.
        -11    1    4    4    0    0  0.42520735976E-01  0.63506673981E-01  0.51589663303E-01  0.92210981497E-01  0.51100000000E-03 0. -1.
         11    1    4    4    0    0  0.23216809939E-01  0.12845527161E-01  0.30364004981E-01  0.40326935804E-01  0.51100000000E-03 0.  1.
</event>
<event>
 8    1  0.1099478E+005  0.1043930E+01  0.7957747E-01            NaN
         13   -1    0    0    0    0  0.00000000000E+00  0.00000000000E+00  0.74505805969E-08  0.10566000000E+00  0.10566000000E+00 0. -1.
     999900   -1    0    0    0    0 -0.00000000000E+00 -0.00000000000E+00 -0.74505805969E-08  0.93827000000E+00  0.93827000000E+00 0. -1.
     999902    2    1    2    0    0 -0.92704912158E-02 -0.13205501023E-01 -0.18157918042E-01  0.10196393176E+01  0.10193499403E+01 0.  0.
     999903    2    3    3    0    0 -0.47297540213E-02  0.10468486507E+00 -0.74248476056E-01  0.12999618272E+00  0.20121624617E-01 0.  0.
         14    1    1    2    0    0  0.92704912158E-02  0.13205501023E-01  0.18157918042E-01  0.24290682417E-01  0.00000000000E+00 0. -1.
     999901    1    3    3    0    0 -0.45407371945E-02 -0.11789036609E+00  0.56090558014E-01  0.88964313486E+00  0.88000000000E+00 0.  1.
        -11    1    4    4    0    0 -0.10088868849E-02  0.72574947372E-01 -0.61883887520E-01  0.95383528423E-01  0.51100000000E-03 0.  1.
         11    1    4    4    0    0 -0.37208671364E-02  0.32109917697E-01 -0.12364588536E-01  0.34612654296E-01  0.51100000000E-03 0. -1.
</event>
<event>
 8    1  0.1099478E+005  0.1043930E+01  0.7957747E-01            NaN
         13   -1    0    0    0    0  0.00000000000E+00  0.00000000000E+00  0.74505805969E-08  0.10566000000E+00  0.10566000000E+00 0.  1.
     999900   -1    0    0    0    0 -0.00000000000E+00 -0.00000000000E+00 -0.74505805969E-08  0.93827000000E+00  0.93827000000E+00 0. -1.
     999902    2    1    2    0    0  0.55758701722E-02  0.26231111121E-01 -0.47809444898E-03  0.10171085516E+01  0.10167548454E+01 0.  0.
     999903    2    3    3    0    0 -0.66577074387E-01  0.93420964932E-01 -0.57347785111E-01  0.12977846333E+00  0.19841813567E-01 0.  0.
         14    1    1    2    0    0 -0.55758701722E-02 -0.26231111121E-01  0.47809444898E-03  0.26821448378E-01  0.00000000000E+00 0. -1.
     999901    1    3    3    0    0  0.72152944559E-01 -0.67189853811E-01  0.56869690662E-01  0.88733008829E+00  0.88000000000E+00 0.  1.
        -11    1    4    4    0    0 -0.58835732365E-01  0.69776789489E-01 -0.48569888189E-01  0.10339119360E+00  0.51100000000E-03 0. -1.
         11    1    4    4    0    0 -0.77413420215E-02  0.23644175443E-01 -0.87778969218E-02  0.26387269734E-01  0.51100000000E-03 0.  1.
</event>
<event>
 7    1  0.1099478E+005  0.1043930E+01  0.7957747E-01            NaN
         13   -1    0    0    0    0  0.00000000000E+00  0.00000000000E+00  0.74505805969E-08  0.10566000000E+00  0.10566000000E+00 0. -1.
     999900   -1    0    0    0    0 -0.00000000000E+00 -0.00000000000E+00 -0.74505805969E-08  0.93827000000E+00  0.93827000000E+00 0.  1.
     999903    2    1    2    0    0 -0.10087119330E+00 -0.32676812547E-02  0.23333735241E-01  0.10529588882E+00  0.18896709340E-01 0.  0.
         14    1    1    2    0    0  0.17466286527E-01 -0.19727673931E-01 -0.47214440976E-01  0.54068990378E-01  0.00000000000E+00 0.  1.
     999901    1    1    2    0    0  0.83404906772E-01  0.22995355186E-01  0.23880705735E-01  0.88456512080E+00  0.88000000000E+00 0. -1.
        -11    1    3    3    0    0 -0.44138761419E-01 -0.60768880258E-03  0.68960310717E-03  0.44151287849E-01  0.51100000000E-03 0.  1.
         11    1    3    3    0    0 -0.56732431879E-01 -0.26599924521E-02  0.22644132134E-01  0.61144600971E-01  0.51100000000E-03 0. -1.
</event>
<event>
 8    1  0.1099478E+005  0.1043930E+01  0.7957747E-01            NaN
         13   -1    0    0    0    0  0.00000000000E+00  0.00000000000E+00  0.74505805969E-08  0.10566000000E+00  0.10566000000E+00 0. -1.
     999900   -1    0    0    0    0 -0.00000000000E+00 -0.00000000000E+00 -0.74505805969E-08  0.93827000000E+00  0.93827000000E+00 0. -1.
     999902    2    1    2    0    0  0.12443212219E-01  0.15926676280E-01  0.12122198980E-01  0.10203622200E+01  0.10200900057E+01 0.  0.
     999903    2    3    3    0    0 -0.83969208757E-01 -0.61514635200E-01  0.74298365623E-01  0.12954327801E+00  0.20647890470E-01 0.  0.
         14    1    1    2    0    0 -0.12443212219E-01 -0.15926676280E-01 -0.12122198980E-01  0.23567780035E-01  0.00000000000E+00 0.  1.
     999901    1    3    3    0    0  0.96412420977E-01  0.77441311480E-01 -0.62176166643E-01  0.89081894195E+00  0.88000000000E+00 0.  1.
        -11    1    4    4    0    0 -0.56650257849E-01 -0.29062582787E-01  0.43249167130E-01  0.76971663689E-01  0.51100000000E-03 0. -1.
         11    1    4    4    0    0 -0.27318950909E-01 -0.32452052413E-01  0.31049198493E-01  0.52571614324E-01  0.51100000000E-03 0.  1.
</event>
<event>
 8    1  0.1099478E+005  0.1043930E+01  0.7957747E-01            NaN
         13   -1    0    0    0    0  0.00000000000E+00  0.00000000000E+00  0.74505805969E-08  0.10566000000E+00  0.10566000000E+00 0. -1.
     999900   -1    0    0    0    0 -0.00000000000E+00 -0.00000000000E+00 -0.74505805969E-08  0.93827000000E+00  0.93827000000E+00 0. -1.
     999902    2    1    2    0    0 -0.17043673205E-01 -0.85943326577E-02  0.13991692708E-01  0.10202632128E+01  0.10199886797E+01 0.  0.
     999903    2    3    3    0    0  0.39214248161E-01  0.11565709174E+00 -0.34836201455E-01  0.12841819634E+00  0.19061796641E-01 0.  0.
         14    1    1    2    0    0  0.17043673205E-01  0.85943326577E-02 -0.13991692708E-01  0.23666787171E-01  0.00000000000E+00 0.  1.
     999901    1    3    3    0    0 -0.56257921366E-01 -0.12425142440E+00  0.48827894164E-01  0.89184501649E+00  0.88000000000E+00 0. -1.
        -11    1    4    4    0    0  0.89529707431E-02  0.49105369314E-01 -0.20241077164E-01  0.53865158557E-01  0.51100000000E-03 0.  1.
         11    1    4    4    0    0  0.30261277418E-01  0.66551722428E-01 -0.14595124291E-01  0.74553037787E-01  0.51100000000E-03 0. -1.
</event>
<event>
 8    1  0.1099478E+005  0.1043930E+01  0.7957747E-01            NaN
         13   -1    0    0    0    0  0.00000000000E+00  0.00000000000E+00  0.74505805969E-08  0.10566000000E+00  0.10566000000E+00 0. -1.
     999900   -1    0    0    0    0 -0.00000000000E+00 -0.00000000000E+00 -0.74505805969E-08  0.93827000000E+00  0.93827000000E+00 0.  1.
     999902    2    1    2    0    0  0.62378241890E-02 -0.76428644660E-02 -0.19680779799E-01  0.10219150750E+01  0.10216779158E+01 0.  0.
     999903    2    3    3    0    0  0.30613628315E-01 -0.39250872971E-01  0.11862569579E+00  0.13021897926E+00  0.20176758631E-01 0.  0.
         14    1    1    2    0    0 -0.62378241890E-02  0.76428644660E-02  0.19680779799E-01  0.22014924969E-01  0.00000000000E+00 0. -1.
     999901    1    3    3    0    0 -0.24375804126E-01  0.31608008505E-01 -0.13830647559E+00  0.89169609577E+00  0.88000000000E+00 0.  1.
        -11    1    4    4    0    0  0.77289560093E-02 -0.24752963700E-01  0.68371301341E-01  0.73125521817E-01  0.51100000000E-03 0.  1.
         11    1    4    4    0    0  0.22884672305E-01 -0.14497909271E-01  0.50254394452E-01  0.57093457440E-01  0.51100000000E-03 0. -1.
</event>
<event>
 8    1  0.1099478E+005  0.1043930E+01  0.7957747E-01            NaN
         13   -1    0    0    0    0  0.00000000000E+00  0.00000000000E+00  0.74505805969E-08  0.10566000000E+00  0.10566000000E+00 0.  1.
     999900   -1    0    0    0    0 -0.00000000000E+00 -0.00000000000E+00 -0.74505805969E-08  0.93827000000E+00  0.93827000000E+00 0.  1.
     999902    2    1    2    0    0  0.15860868470E-01 -0.10540811151E-01 -0.13951571662E-01  0.10203223275E+01  0.10200491801E+01 0.  0.
     999903    2    3    3    0    0  0.81480688907E-01  0.10042726800E+00 -0.18457372660E-02  0.13084696155E+00  0.19818722960E-01 0.  0.
         14    1    1    2    0    0 -0.15860868470E-01  0.10540811151E-01  0.13951571662E-01  0.23607672485E-01  0.00000000000E+00 0.  1.
     999901    1    3    3    0    0 -0.65619820437E-01 -0.11096807915E+00 -0.12105834396E-01  0.88947536596E+00  0.88000000000E+00 0. -1.
        -11    1    4    4    0    0  0.21691788355E-01  0.23513209412E-01 -0.87871789151E-02  0.33179516772E-01  0.51100000000E-03 0. -1.
         11    1    4    4    0    0  0.59788900552E-01  0.76914058585E-01  0.69414416491E-02  0.97667444783E-01  0.51100000000E-03 0.  1.
</event>
<event>
 8    1  0.1099478E+005  0.1043930E+01  0.7957747E-01            NaN
         13   -1    0    0    0    0  0.00000000000E+00  0.00000000000E+00  0.74505805969E-08  0.10566000000E+00  0.10566000000E+00 0. -1.
     999900   -1    0    0    0    0 -0.00000000000E+00 -0.00000000000E+00 -0.74505805969E-08  0.93827000000E+00  0.93827000000E+00 0. -1.
     999902    2    1    2    0    0  0.12946137631E-01  0.18821210108E-01  0.25750838385E-02  0.10209414923E+01  0.10206826437E+01 0.  0.
     999903    2    3    3    0    0 -0.68527383645E-01  0.78060139036E-01 -0.78142005755E-01  0.13152458560E+00  0.20078743454E-01 0.  0.
         14    1    1    2    0    0 -0.12946137631E-01 -0.18821210108E-01 -0.25750838385E-02  0.22988507700E-01  0.00000000000E+00 0.  1.
     999901    1    3    3    0    0  0.81473521276E-01 -0.59238928928E-01  0.80717089593E-01  0.88941690670E+00  0.88000000000E+00 0.  1.
        -11    1    4    4    0    0 -0.28820835411E-01  0.47377740596E-01 -0.37465868705E-01  0.66927149174E-01  0.51100000000E-03 0. -1.
         11    1    4    4    0    0 -0.39706548233E-01  0.30682398440E-01 -0.40676137050E-01  0.64597436427E-01  0.51100000000E-03 0.  1.
</event>
<event>
 8    1  0.1099478E+005  0.1043930E+01  0.7957747E-01            NaN
         13   -1    0    0    0    0  0.00000000000E+00  0.00000000000E+00  0.74505805969E-08  0.10566000000E+00  0.10566000000E+00 0.  1.
     999900   -1    0    0    0    0 -0.00000000000E+00 -0.00000000000E+00 -0.74505805969E-08  0.93827000000E+00  0.93827000000E+00 0.  1.
     999902    2    1    2    0    0  0.41037275403E-02 -0.23189196048E-01 -0.54610078786E-02  0.10197555920E+01  0.10194690115E+01 0.  0.
     999903    2    3    3    0    0 -0.90855656719E-02 -0.39720769819E-01  0.12196957034E+00  0.13032554833E+00  0.21163303151E-01 0.  0.
         14    1    1    2    0    0 -0.41037275403E-02  0.23189196048E-01  0.54610078786E-02  0.24174407959E-01  0.00000000000E+00 0. -1.
     999901    1    3    3    0    0  0.13189293212E-01  0.16531573770E-01 -0.12743057822E+00  0.88943004371E+00  0.88000000000E+00 0.  1.
        -11    1    4    4    0    0 -0.60341392508E-02 -0.32262249213E-01  0.11520947311E+00  0.11979460496E+00  0.51100000000E-03 0.  1.
         11    1    4    4    0    0 -0.30514264212E-02 -0.74585206058E-02  0.67600972273E-02  0.10530943374E-01  0.51100000000E-03 0. -1.
</event>
<event>
 8    1  0.1099478E+005  0.1043930E+01  0.7957747E-01            NaN
         13   -1    0    0    0    0  0.00000000000E+00  0.00000000000E+00  0.74505805969E-08  0.10566000000E+00  0.10566000000E+00 0. -1.
     999900   -1    0    0    0    0 -0.00000000000E+00 -0.00000000000E+00 -0.74505805969E-08  0.93827000000E+00  0.93827000000E+00 0.  1.
     999902    2    1    2    0    0  0.16494435718E-01 -0.12202919569E-01  0.13054150276E-01  0.10196115195E+01  0.10193214714E+01 0.  0.
     999903    2    3    3    0    0  0.58808777211E-01  0.77619394830E-01  0.85302710641E-01  0.13108554566E+00  0.20582155102E-01 0.  0.
         14    1    1    2    0    0 -0.16494435718E-01  0.12202919569E-01 -0.13054150276E-01  0.24318480526E-01  0.00000000000E+00 0.  1.
     999901    1    3    3    0    0 -0.42314341492E-01 -0.89822314399E-01 -0.72248560366E-01  0.88852597381E+00  0.88000000000E+00 0.  1.
        -11    1    4    4    0    0  0.60892859860E-02  0.21847109346E-01  0.21978544691E-01  0.31586280857E-01  0.51100000000E-03 0. -1.
         11    1    4    4    0    0  0.52719491225E-01  0.55772285483E-01  0.63324165950E-01  0.99499264808E-01  0.51100000000E-03 0.  1.
</event>
<event>
 8    1  0.1099478E+005  0.1043930E+01  0.7957747E-01            NaN
         13   -1    0    0    0    0  0.00000000000E+00  0.00000000000E+00  0.74505805969E-08  0.10566000000E+00  0.10566000000E+00 0. -1.
     999900   -1    0    0    0    0 -0.00000000000E+00 -0.00000000000E+00 -0.74505805969E-08  0.93827000000E+00  0.93827000000E+00 0. -1.
     999902    2    1    2    0    0 -0.89987257443E-02  0.19254045662E-01  0.10556142113E-01  0.10201996929E+01  0.10199236667E+01 0.  0.
     999903    2    3    3    0    0 -0.12104861996E+00 -0.25693848200E-01  0.39776523051E-01  0.13147626987E+00  0.19771077982E-01 0.  0.
         14    1    1    2    0    0  0.89987257443E-02 -0.19254045662E-01 -0.10556142113E-01  0.23730307113E-01  0.00000000000E+00 0. -1.
     999901    1    3    3    0    0  0.11204989421E+00  0.44947893862E-01 -0.29220380938E-01  0.88872342302E+00  0.88000000000E+00 0.  1.
        -11    1    4    4    0    0 -0.29245801719E-01 -0.12922691006E-04  0.34173256210E-02  0.29449215958E-01  0.51100000000E-03 0. -1.
         11    1    4    4    0    0 -0.91802818237E-01 -0.25680925509E-01  0.36359197430E-01  0.10202705391E+00  0.51100000000E-03 0.  1.
</event>
<event>
 8    1  0.1099478E+005  0.1043930E+01  0.7957747E-01            NaN
         13   -1    0    0    0    0  0.00000000000E+00  0.00000000000E+00  0.74505805969E-08  0.10566000000E+00  0.10566000000E+00 0.  1.
     999900   -1    0    0    0    0 -0.00000000000E+00 -0.00000000000E+00 -0.74505805969E-08  0.93827000000E+00  0.93827000000E+00 0.  1.
     999902    2    1    2    0    0  0.13044905573E-01 -0.91877288815E-02  0.15900413129E-01  0.10214043022E+01  0.10211558850E+01 0.  0.
     999903    2    3    3    0    0  0.10174801124E+00  0.69932534713E-01  0.46581007545E-01  0.13288330868E+00  0.15651397968E-01 0.  0.
         14    1    1    2    0    0 -0.13044905573E-01  0.91877288815E-02 -0.15900413129E-01  0.22525697794E-01  0.00000000000E+00 0. -1.
     999901    1    3    3    0    0 -0.88703105668E-01 -0.79120263595E-01 -0.30680594416E-01  0.88852099353E+00  0.88000000000E+00 0.  1.
        -11    1    4    4    0    0  0.81796999403E-01  0.49898215028E-01  0.31674242534E-01  0.10091630064E+00  0.51100000000E-03 0.  1.
         11    1    4    4    0    0  0.19951011838E-01  0.20034319686E-01  0.14906765012E-01  0.31967008035E-01  0.51100000000E-03 0. -1.
</event>
<event>
 8    1  0.1099478E+005  0.1043930E+01  0.7957747E-01            NaN
         13   -1    0    0    0    0  0.00000000000E+00  0.00000000000E+00  0.74505805969E-08  0.10566000000E+00  0.10566000000E+00 0.  1.
     999900   -1    0    0    0    0 -0.00000000000E+00 -0.00000000000E+00 -0.74505805969E-08  0.93827000000E+00  0.93827000000E+00 0. -1.
     999902    2    1    2    0    0  0.12552315776E-01 -0.17069740592E-01 -0.86662079504E-02  0.10210380836E+01  0.10207814303E+01 0.  0.
     999903    2    3    3    0    0 -0.18152183953E-01  0.11058497856E+00  0.59396720593E-01  0.12869787055E+00  0.21831907870E-01 0.  0.
         14    1    1    2    0    0 -0.12552315776E-01  0.17069740592E-01  0.86662079504E-02  0.22891916378E-01  0.00000000000E+00 0.  1.
     999901    1    3    3    0    0  0.30704499729E-01 -0.12765471915E+00 -0.68062928543E-01  0.89234021307E+00  0.88000000000E+00 0.  1.
        -11    1    4    4    0    0 -0.32259213516E-02  0.12711346832E-01  0.15738999647E-01  0.20492977766E-01  0.51100000000E-03 0.  1.
         11    1    4    4    0    0 -0.14926262601E-01  0.97873631728E-01  0.43657720946E-01  0.10820489278E+00  0.51100000000E-03 0. -1.
</event>
<event>
 8    1  0.1099478E+005  0.1043930E+01  0.7957747E-01            NaN
         13   -1    0    0    0    0  0.00000000000E+00  0.00000000000E+00  0.74505805969E-08  0.10566000000E+00  0.10566000000E+00 0.  1.
     999900   -1    0    0    0    0 -0.00000000000E+00 -0.00000000000E+00 -0.74505805969E-08  0.93827000000E+00  0.93827000000E+00 0. -1.
     999902    2    1    2    0    0  0.72273672719E-02  0.83921800868E-02  0.26140129730E-01  0.10155403909E+01  0.10151434951E+01 0.  0.
     999903    2    3    3    0    0  0.10651027690E-01 -0.11423598161E+00 -0.45033719077E-01  0.12418462338E+00  0.15181598885E-01 0.  0.
         14    1    1    2    0    0 -0.72273672719E-02 -0.83921800868E-02 -0.26140129730E-01  0.28389609131E-01  0.00000000000E+00 0. -1.
     999901    1    3    3    0    0 -0.34236604184E-02  0.12262816169E+00  0.71173848807E-01  0.89135576749E+00  0.88000000000E+00 0.  1.
        -11    1    4    4    0    0  0.19999278567E-02 -0.87393037516E-01 -0.36318828511E-01  0.94661825163E-01  0.51100000000E-03 0. -1.
         11    1    4    4    0    0  0.86510998335E-02 -0.26842944089E-01 -0.87148905660E-02  0.29522798212E-01  0.51100000000E-03 0.  1.
</event>
<event>
 8    1  0.1099478E+005  0.1043930E+01  0.7957747E-01            NaN
         13   -1    0    0    0    0  0.00000000000E+00  0.00000000000E+00  0.74505805969E-08  0.10566000000E+00  0.10566000000E+00 0. -1.
     999900   -1    0    0    0    0 -0.00000000000E+00 -0.00000000000E+00 -0.74505805969E-08  0.93827000000E+00  0.93827000000E+00 0.  1.
     999902    2    1    2    0    0  0.73982094774E-02  0.20712046023E-01 -0.90393048638E-02  0.10201511988E+01  0.10198740300E+01 0.  0.
     999903    2    3    3    0    0 -0.75178089119E-01 -0.17184918284E-01 -0.10324509079E+00  0.13047161879E+00  0.20401667504E-01 0.  0.
         14    1    1    2    0    0 -0.73982094774E-02 -0.20712046023E-01  0.90393048638E-02  0.23778801196E-01  0.00000000000E+00 0.  1.
     999901    1    3    3    0    0  0.82576298597E-01  0.37896964307E-01  0.94205785926E-01  0.88967958001E+00  0.88000000000E+00 0. -1.
        -11    1    4    4    0    0 -0.45399633675E-01 -0.11706839740E-01 -0.45859399720E-01  0.65585993155E-01  0.51100000000E-03 0. -1.
         11    1    4    4    0    0 -0.29778455445E-01 -0.54780785445E-02 -0.57385691070E-01  0.64885625633E-01  0.51100000000E-03 0.  1.
</event>
<event>
 8    1  0.1099478E+005  0.1043930E+01  0.7957747E-01            NaN
         13   -1    0    0    0    0  0.00000000000E+00  0.00000000000E+00  0.74505805969E-08  0.10566000000E+00  0.10566000000E+00 0.  1.
     999900   -1    0    0    0    0 -0.00000000000E+00 -0.00000000000E+00 -0.74505805969E-08  0.93827000000E+00  0.93827000000E+00 0.  1.
     999902    2    1    2    0    0 -0.21453712223E-01  0.97466608047E-02  0.40594745118E-03  0.10203625657E+01  0.10200903595E+01 0.  0.
     999903    2    3    3    0    0  0.22506387518E-01 -0.99908947993E-01 -0.76126611896E-01  0.12917567424E+00  0.20068841745E-01 0.  0.
         14    1    1    2    0    0  0.21453712223E-01 -0.97466608047E-02 -0.40594745118E-03  0.23567434275E-01  0.00000000000E+00 0. -1.
     999901    1    3    3    0    0 -0.43960099740E-01  0.10965560880E+00  0.76532559347E-01  0.89118689148E+00  0.88000000000E+00 0.  1.
        -11    1    4    4    0    0 -0.26831787752E-02 -0.94748314422E-02 -0.11777479500E-01  0.15360404408E-01  0.51100000000E-03 0. -1.
         11    1    4    4    0    0  0.25189566293E-01 -0.90434116551E-01 -0.64349132396E-01  0.11381526983E+00  0.51100000000E-03 0.  1.
</event>
<event>
 8    1  0.1099478E+005  0.1043930E+01  0.7957747E-01            NaN
         13   -1    0    0    0    0  0.00000000000E+00  0.00000000000E+00  0.74505805969E-08  0.10566000000E+00  0.10566000000E+00 0.  1.
     999900   -1    0    0    0    0 -0.00000000000E+00 -0.00000000000E+00 -0.74505805969E-08  0.93827000000E+00  0.93827000000E+00 0.  1.
     999902    2    1    2    0    0 -0.20813058904E-01 -0.38076089135E-02 -0.10264667508E-01  0.10204130974E+01  0.10201420709E+01 0.  0.
     999903    2    3    3    0    0  0.12341508868E+00  0.11783411257E-01 -0.26727941766E-01  0.12838401840E+00  0.19948443920E-01 0.  0.
         14    1    1    2    0    0  0.20813058904E-01  0.38076089135E-02  0.10264667508E-01  0.23516902552E-01  0.00000000000E+00 0.  1.
     999901    1    3    3    0    0 -0.14422814758E+00 -0.15591020171E-01  0.16463274258E-01  0.89202907905E+00  0.88000000000E+00 0.  1.
        -11    1    4    4    0    0  0.84202866709E-01  0.48322366764E-02 -0.91070817704E-02  0.84833208902E-01  0.51100000000E-03 0. -1.
         11    1    4    4    0    0  0.39212221973E-01  0.69511745807E-02 -0.17620859995E-01  0.43550809499E-01  0.51100000000E-03 0.  1.
</event>
<event>
 8    1  0.1099478E+005  0.1043930E+01  0.7957747E-01            NaN
         13   -1    0    0    0    0  0.00000000000E+00  0.00000000000E+00  0.74505805969E-08  0.10566000000E+00  0.10566000000E+00 0. -1.
     999900   -1    0    0    0    0 -0.00000000000E+00 -0.00000000000E+00 -0.74505805969E-08  0.93827000000E+00  0.93827000000E+00 0. -1.
     999902    2    1    2    0    0 -0.21298706929E-01 -0.63975249330E-02 -0.25961980349E-02  0.10215401924E+01  0.10212947964E+01 0.  0.
     999903    2    3    3    0    0  0.31288807838E-01 -0.77953025558E-01 -0.99539430003E-01  0.13177414074E+00  0.20016551986E-01 0.  0.
         14    1    1    2    0    0  0.21298706929E-01  0.63975249330E-02  0.25961980349E-02  0.22389807645E-01  0.00000000000E+00 0. -1.
     999901    1    3    3    0    0 -0.52587514767E-01  0.71555500625E-01  0.96943231968E-01  0.88976605161E+00  0.88000000000E+00 0. -1.
        -11    1    4    4    0    0  0.27310217757E-01 -0.42489885561E-01 -0.62102105244E-01  0.80051052246E-01  0.51100000000E-03 0. -1.
         11    1    4    4    0    0  0.39785900814E-02 -0.35463139997E-01 -0.37437324758E-01  0.51723088496E-01  0.51100000000E-03 0.  1.
</event>
<event>
 8    1  0.1099478E+005  0.1043930E+01  0.7957747E-01            NaN
         13   -1    0    0    0    0  0.00000000000E+00  0.00000000000E+00  0.74505805969E-08  0.10566000000E+00  0.10566000000E+00 0. -1.
     999900   -1    0    0    0    0 -0.00000000000E+00 -0.00000000000E+00 -0.74505805969E-08  0.93827000000E+00  0.93827000000E+00 0.  1.
     999902    2    1    2    0    0  0.14710582516E-01 -0.23458077071E-02 -0.18463397244E-01  0.10202065709E+01  0.10199307065E+01 0.  0.
     999903    2    3    3    0    0 -0.27664884377E-01  0.38292869494E-01  0.11721930392E+00  0.12787424619E+00  0.19487635690E-01 0.  0.
         14    1    1    2    0    0 -0.14710582516E-01  0.23458077071E-02  0.18463397244E-01  0.23723429127E-01  0.00000000000E+00 0. -1.
     999901    1    3    3    0    0  0.42375466892E-01 -0.40638677201E-01 -0.13568270117E+00  0.89233232468E+00  0.88000000000E+00 0.  1.
        -11    1    4    4    0    0 -0.89964176952E-02  0.21017632828E-01  0.76647155717E-01  0.79985773869E-01  0.51100000000E-03 0. -1.
         11    1    4    4    0    0 -0.18668466682E-01  0.17275236666E-01  0.40572148206E-01  0.47888472320E-01  0.51100000000E-03 0.  1.
</event>
<event>
 8    1  0.1099478E+005  0.1043930E+01  0.7957747E-01            NaN
         13   -1    0    0    0    0  0.00000000000E+00  0.00000000000E+00  0.74505805969E-08  0.10566000000E+00  0.10566000000E+00 0. -1.
     999900   -1    0    0    0    0 -0.00000000000E+00 -0.00000000000E+00 -0.74505805969E-08  0.93827000000E+00  0.93827000000E+00 0. -1.
     999902    2    1    2    0    0  0.17299773377E-01  0.96780665268E-02 -0.13267046359E-01  0.10200770830E+01  0.10197981632E+01 0.  0.
     999903    2    3    3    0    0 -0.97109744208E-01  0.15560536547E-01  0.79065226486E-01  0.12786108349E+00  0.20608588343E-01 0.  0.
         14    1    1    2    0    0 -0.17299773377E-01 -0.96780665268E-02  0.13267046359E-01  0.23852917006E-01  0.00000000000E+00 0. -1.
     999901    1    3    3    0    0  0.11440951758E+00 -0.58824700201E-02 -0.92332272845E-01  0.89221599951E+00  0.88000000000E+00 0. -1.
        -11    1    4    4    0    0 -0.77979097165E-01  0.16842399780E-01  0.54159416841E-01  0.96425668671E-01  0.51100000000E-03 0. -1.
         11    1    4    4    0    0 -0.19130647043E-01 -0.12818632329E-02  0.24905809645E-01  0.31435414817E-01  0.51100000000E-03 0.  1.
</event>
<event>
 8    1  0.1099478E+005  0.1043930E+01  0.7957747E-01            NaN
         13   -1    0    0    0    0  0.00000000000E+00  0.00000000000E+00  0.74505805969E-08  0.10566000000E+00  0.10566000000E+00 0. -1.
     999900   -1    0    0    0    0 -0.00000000000E+00 -0.00000000000E+00 -0.74505805969E-08  0.93827000000E+00  0.93827000000E+00 0. -1.
     999902    2    1    2    0    0  0.11719585984E-01  0.20472901876E-01  0.38734234235E-02  0.10200241050E+01  0.10197439301E+01 0.  0.
     999903    2    3    3    0    0 -0.37280944882E-01 -0.11337894714E+00  0.41133064553E-01  0.12777657748E+00  0.19755258685E-01 0.  0.
         14    1    1    2    0    0 -0.11719585984E-01 -0.20472901876E-01 -0.38734234235E-02  0.23905895003E-01  0.00000000000E+00 0.  1.
     999901    1    3    3    0    0  0.49000530866E-01  0.13385184902E+00 -0.37259641129E-01  0.89224752752E+00  0.88000000000E+00 0. -1.
        -11    1    4    4    0    0 -0.37473716456E-01 -0.10231801677E+00  0.41737645900E-01  0.11668568116E+00  0.51100000000E-03 0. -1.
         11    1    4    4    0    0  0.19277157380E-03 -0.11060930368E-01 -0.60458134711E-03  0.11090896316E-01  0.51100000000E-03 0.  1.
</event>
<event>
 8    1  0.1099478E+005  0.1043930E+01  0.7957747E-01            NaN
         13   -1    0    0    0    0  0.00000000000E+00  0.00000000000E+00  0.74505805969E-08  0.10566000000E+00  0.10566000000E+00 0. -1.
     999900   -1    0    0    0    0 -0.00000000000E+00 -0.00000000000E+00 -0.74505805969E-08  0.93827000000E+00  0.93827000000E+00 0.  1.
     999902    2    1    2    0    0  0.35456757752E-02  0.18292442508E-01  0.83310220129E-04  0.10252969055E+01  0.10251275785E+01 0.  0.
     999903    2    3    3    0    0  0.96613750322E-01 -0.86452086680E-01 -0.27118068145E-01  0.13379648606E+00  0.18919038560E-01 0.  0.
         14    1    1    2    0    0 -0.35456757752E-02 -0.18292442508E-01 -0.83310220129E-04  0.18633094488E-01  0.00000000000E+00 0.  1.
     999901    1    3    3    0    0 -0.93068074546E-01  0.10474452919E+00  0.27201378365E-01  0.89150041945E+00  0.88000000000E+00 0. -1.
        -11    1    4    4    0    0  0.21592008295E-01 -0.27617717672E-01 -0.15885561930E-02  0.35096122057E-01  0.51100000000E-03 0.  1.
         11    1    4    4    0    0  0.75021742027E-01 -0.58834369008E-01 -0.25529511952E-01  0.98700364005E-01  0.51100000000E-03 0. -1.
</event>
<event>
 8    1  0.1099478E+005  0.1043930E+01  0.7957747E-01            NaN
         13   -1    0    0    0    0  0.00000000000E+00  0.00000000000E+00  0.74505805969E-08  0.10566000000E+00  0.10566000000E+00 0.  1.
     999900   -1    0    0    0    0 -0.00000000000E+00 -0.00000000000E+00 -0.74505805969E-08  0.93827000000E+00  0.93827000000E+00 0. -1.
     999902    2    1    2    0    0 -0.13138387048E-01  0.14556656944E-01 -0.68676181823E-02  0.10231531462E+01  0.10229421699E+01 0.  0.
     999903    2    3    3    0    0 -0.48447693931E-01  0.14195346618E-01 -0.12334710421E+00  0.13477577795E+00  0.20032855304E-01 0.  0.
         14    1    1    2    0    0  0.13138387048E-01 -0.14556656944E-01  0.68676181823E-02  0.20776853831E-01  0.00000000000E+00 0.  1.
     999901    1    3    3    0    0  0.35309306883E-01  0.36131032591E-03  0.11647948603E+00  0.88837736822E+00  0.88000000000E+00 0.  1.
        -11    1    4    4    0    0 -0.56834096820E-02 -0.38831266321E-02 -0.26338816981E-01  0.27228187949E-01  0.51100000000E-03 0.  1.
         11    1    4    4    0    0 -0.42764284249E-01  0.18078473250E-01 -0.97008287232E-01  0.10754759000E+00  0.51100000000E-03 0. -1.
</event>
<event>
 8    1  0.1099478E+005  0.1043930E+01  0.7957747E-01            NaN
         13   -1    0    0    0    0  0.00000000000E+00  0.00000000000E+00  0.74505805969E-08  0.10566000000E+00  0.10566000000E+00 0. -1.
     999900   -1    0    0    0    0 -0.00000000000E+00 -0.00000000000E+00 -0.74505805969E-08  0.93827000000E+00  0.93827000000E+00 0. -1.
     999902    2    1    2    0    0  0.49241863980E-02  0.20157378221E-01  0.92762411728E-02  0.10212008082E+01  0.10209478315E+01 0.  0.
     999903    2    3    3    0    0  0.36133508542E-01  0.11414326136E+00 -0.56869370643E-01  0.13317906864E+00  0.12970136943E-01 0.  0.
         14    1    1    2    0    0 -0.49241863980E-02 -0.20157378221E-01 -0.92762411728E-02  0.22729191775E-01  0.00000000000E+00 0. -1.
     999901    1    3    3    0    0 -0.31209322144E-01 -0.93985883139E-01  0.66145611816E-01  0.88802173959E+00  0.88000000000E+00 0. -1.
        -11    1    4    4    0    0  0.93797378451E-02  0.27317845143E-01 -0.19960486328E-01  0.35113050006E-01  0.51100000000E-03 0.  1.
         11    1    4    4    0    0  0.26753770697E-01  0.86825416217E-01 -0.36908884316E-01  0.98066018632E-01  0.51100000000E-03 0. -1.
</event>
<event>
 8    1  0.1099478E+005  0.1043930E+01  0.7957747E-01            NaN
         13   -1    0    0    0    0  0.00000000000E+00  0.00000000000E+00  0.74505805969E-08  0.10566000000E+00  0.10566000000E+00 0. -1.
     999900   -1    0    0    0    0 -0.00000000000E+00 -0.00000000000E+00 -0.74505805969E-08  0.93827000000E+00  0.93827000000E+00 0. -1.
     999902    2    1    2    0    0  0.19726245091E-01 -0.90966049905E-02  0.12006249752E-01  0.10191101893E+01  0.10188079088E+01 0.  0.
     999903    2    3    3    0    0  0.75414487211E-01  0.17622697144E-01 -0.10202273107E+00  0.12960599606E+00  0.19778074301E-01 0.  0.
         14    1    1    2    0    0 -0.19726245091E-01  0.90966049905E-02 -0.12006249752E-01  0.24819810653E-01  0.00000000000E+00 0.  1.
     999901    1    3    3    0    0 -0.55688242120E-01 -0.26719302135E-01  0.11402898082E+00  0.88950419329E+00  0.88000000000E+00 0.  1.
        -11    1    4    4    0    0  0.44481113932E-01  0.20085860755E-01 -0.59382988639E-01  0.76867494818E-01  0.51100000000E-03 0.  1.
         11    1    4    4    0    0  0.30933373279E-01 -0.24631636105E-02 -0.42639742428E-01  0.52738501237E-01  0.51100000000E-03 0. -1.
</event>
<event>
 8    1  0.1099478E+005  0.1043930E+01  0.7957747E-01            NaN
         13   -1    0    0    0    0  0.00000000000E+00  0.00000000000E+00  0.74505805969E-08  0.10566000000E+00  0.10566000000E+00 0.  1.
     999900   -1    0    0    0    0 -0.00000000000E+00 -0.00000000000E+00 -0.74505805969E-08  0.93827000000E+00  0.93827000000E+00 0.  1.
     999902    2    1    2    0    0 -0.14872715333E-01  0.12033639258E-01  0.14446228917E-01  0.10199571056E+01  0.10196753393E+01 0.  0.
     999903    2    3    3    0    0 -0.57799074261E-01 -0.45381379328E-01 -0.10442977742E+00  0.12907514849E+00  0.18831170163E-01 0.  0.
         14    1    1    2    0    0  0.14872715333E-01 -0.12033639258E-01 -0.14446228917E-01  0.23972894383E-01  0.00000000000E+00 0.  1.
     999901    1    3    3    0    0  0.42926358928E-01  0.57415018585E-01  0.11887600634E+00  0.89088195713E+00  0.88000000000E+00 0. -1.
        -11    1    4    4    0    0 -0.32523948419E-01 -0.26099850151E-01 -0.74665184664E-01  0.85522864314E-01  0.51100000000E-03 0.  1.
         11    1    4    4    0    0 -0.25275125842E-01 -0.19281529177E-01 -0.29764592761E-01  0.43552284176E-01  0.51100000000E-03 0. -1.
</event>
<event>
 8    1  0.1099478E+005  0.1043930E+01  0.7957747E-01            NaN
         13   -1    0    0    0    0  0.00000000000E+00  0.00000000000E+00  0.74505805969E-08  0.10566000000E+00  0.10566000000E+00 0. -1.
     999900   -1    0    0    0    0 -0.00000000000E+00 -0.00000000000E+00 -0.74505805969E-08  0.93827000000E+00  0.93827000000E+00 0.  1.
     999902    2    1    2    0    0  0.18340182072E-01 -0.90829028732E-02  0.96942758445E-02  0.10212840205E+01  0.10210329134E+01 0.  0.
     999903    2    3    3    0    0  0.79063571289E-01  0.10204367036E+00 -0.17050539963E-01  0.13181691575E+00  0.20518757216E-01 0.  0.
         14    1    1    2    0    0 -0.18340182072E-01  0.90829028732E-02 -0.96942758445E-02  0.22645979492E-01  0.00000000000E+00 0.  1.
     999901    1    3    3    0    0 -0.60723389217E-01 -0.11112657324E+00  0.26744815808E-01  0.88946710476E+00  0.88000000000E+00 0. -1.
        -11    1    4    4    0    0  0.57647860039E-01  0.81716633176E-01 -0.56616328482E-02  0.10016585802E+00  0.51100000000E-03 0. -1.
         11    1    4    4    0    0  0.21415711249E-01  0.20327037189E-01 -0.11388907115E-01  0.31651057731E-01  0.51100000000E-03 0.  1.
</event>
<event>
 8    1  0.1099478E+005  0.1043930E+01  0.7957747E-01            NaN
         13   -1    0    0    0    0  0.00000000000E+00  0.00000000000E+00  0.74505805969E-08  0.10566000000E+00  0.10566000000E+00 0.  1.
     999900   -1    0    0    0    0 -0.00000000000E+00 -0.00000000000E+00 -0.74505805969E-08  0.93827000000E+00  0.93827000000E+00 0. -1.
     999902    2    1    2    0    0 -0.84079653164E-03  0.15466570684E-01  0.17862007541E-01  0.10202873889E+01  0.10200134229E+01 0.  0.
     999903    2    3    3    0    0 -0.28333399320E-01 -0.11747592858E+00 -0.37594317354E-01  0.12815233447E+00  0.20157202721E-01 0.  0.
         14    1    1    2    0    0  0.84079653164E-03 -0.15466570684E-01 -0.17862007541E-01  0.23642611127E-01  0.00000000000E+00 0. -1.
     999901    1    3    3    0    0  0.27492602788E-01  0.13294249926E+00  0.55456324895E-01  0.89213505440E+00  0.88000000000E+00 0.  1.
        -11    1    4    4    0    0  0.17808911544E-02 -0.10107236434E-01 -0.72772666359E-02  0.12591565921E-01  0.51100000000E-03 0. -1.
         11    1    4    4    0    0 -0.30114290474E-01 -0.10736869214E+00 -0.30317050718E-01  0.11556076855E+00  0.51100000000E-03 0.  1.
</event>
<event>
 8    1  0.1099478E+005  0.1043930E+01  0.7957747E-01            NaN
         13   -1    0    0    0    0  0.00000000000E+00  0.00000000000E+00  0.74505805969E-08  0.10566000000E+00  0.10566000000E+00 0.  1.
     999900   -1    0    0    0    0 -0.00000000000E+00 -0.00000000000E+00 -0.74505805969E-08  0.93827000000E+00  0.93827000000E+00 0.  1.
     999902    2    1    2    0    0  0.19599018221E-01  0.77388143849E-03 -0.14307728956E-01  0.10196517893E+01  0.10193627126E+01 0.  0.
     999903    2    3    3    0    0 -0.26247775025E-01 -0.21635866055E-01 -0.12526270717E+00  0.13121769920E+00  0.19242722817E-01 0.  0.
         14    1    1    2    0    0 -0.19599018221E-01 -0.77388143849E-03  0.14307728956E-01  0.24278210717E-01  0.00000000000E+00 0. -1.
     999901    1    3    3    0    0  0.45846793246E-01  0.22409747494E-01  0.11095497821E+00  0.88843409008E+00  0.88000000000E+00 0. -1.
        -11    1    4    4    0    0 -0.26037648899E-01 -0.12504175206E-01 -0.80423468767E-01  0.85454719046E-01  0.51100000000E-03 0. -1.
         11    1    4    4    0    0 -0.21012612601E-03 -0.91316908489E-02 -0.44839238404E-01  0.45762980152E-01  0.51100000000E-03 0.  1.
</event>
<event>
 8    1  0.1099478E+005  0.1043930E+01  0.7957747E-01            NaN
         13   -1    0    0    0    0  0.00000000000E+00  0.00000000000E+00  0.74505805969E-08  0.10566000000E+00  0.10566000000E+00 0. -1.
     999900   -1    0    0    0    0 -0.00000000000E+00 -0.00000000000E+00 -0.74505805969E-08  0.93827000000E+00  0.93827000000E+00 0.  1.
     999902    2    1    2    0    0  0.16187845655E-01  0.16933183467E-01 -0.22774434867E-02  0.10203935220E+01  0.10201220387E+01 0.  0.
     999903    2    3    3    0    0  0.10297454590E+00  0.44404646314E-02  0.80226198046E-01  0.13219599313E+00  0.20397620398E-01 0.  0.
         14    1    1    2    0    0 -0.16187845655E-01 -0.16933183467E-01  0.22774434867E-02  0.23536478031E-01  0.00000000000E+00 0. -1.
     999901    1    3    3    0    0 -0.86786700246E-01  0.12492718836E-01 -0.82503641533E-01  0.88819752884E+00  0.88000000000E+00 0.  1.
        -11    1    4    4    0    0  0.36898355520E-01 -0.71785943304E-02  0.34308693736E-01  0.50895662325E-01  0.51100000000E-03 0. -1.
         11    1    4    4    0    0  0.66076190381E-01  0.11619058962E-01  0.45917504309E-01  0.81300330808E-01  0.51100000000E-03 0.  1.
</event>
<event>
 8    1  0.1099478E+005  0.1043930E+01  0.7957747E-01            NaN
         13   -1    0    0    0    0  0.00000000000E+00  0.00000000000E+00  0.74505805969E-08  0.10566000000E+00  0.10566000000E+00 0. -1.
     999900   -1    0    0    0    0 -0.00000000000E+00 -0.00000000000E+00 -0.74505805969E-08  0.93827000000E+00  0.93827000000E+00 0.  1.
     999902    2    1    2    0    0  0.19118674039E-01  0.13873213545E-01  0.38886078125E-03  0.10203049928E+01  0.10200314394E+01 0.  0.
     999903    2    3    3    0    0 -0.24507422108E-01 -0.55129323240E-01 -0.11268161304E+00  0.12932265945E+00  0.19681166404E-01 0.  0.
         14    1    1    2    0    0 -0.19118674039E-01 -0.13873213545E-01 -0.38886078125E-03  0.23625007170E-01  0.00000000000E+00 0.  1.
     999901    1    3    3    0    0  0.43626096148E-01  0.69002536785E-01  0.11307047382E+00  0.89098233338E+00  0.88000000000E+00 0. -1.
        -11    1    4    4    0    0 -0.10956741080E-01 -0.42543681164E-01 -0.67954971291E-01  0.80920666249E-01  0.51100000000E-03 0.  1.
         11    1    4    4    0    0 -0.13550681029E-01 -0.12585642076E-01 -0.44726641746E-01  0.48401993200E-01  0.51100000000E-03 0. -1.
</event>
<event>
 8    1  0.1288376E+005  0.1043930E+01  0.7957747E-01            NaN
         13   -1    0    0    0    0  0.00000000000E+00  0.00000000000E+00  0.74505805969E-08  0.10566000000E+00  0.10566000000E+00 0.  1.
     999900   -1    0    0    0    0 -0.00000000000E+00 -0.00000000000E+00 -0.74505805969E-08  0.93827000000E+00  0.93827000000E+00 0. -1.
     999902    2    1    2    0    0 -0.82045670725E-02  0.57062208353E-02 -0.20290030744E-01  0.10213122807E+01  0.10210618069E+01 0.  0.
     999903    2    3    3    0    0 -0.70765360637E-01  0.10450326565E+00 -0.38585062742E-01  0.13338806260E+00  0.19362318557E-01 0.  0.
         14    1    1    2    0    0  0.82045670725E-02 -0.57062208353E-02  0.20290030744E-01  0.22617719263E-01  0.00000000000E+00 0.  1.
     999901    1    3    3    0    0  0.62560793564E-01 -0.98797044816E-01  0.18295031998E-01  0.88792421814E+00  0.88000000000E+00 0.  1.
        -11    1    4    4    0    0 -0.32896773106E-01  0.65296427729E-01 -0.24079909949E-01  0.76980025585E-01  0.51100000000E-03 0.  1.
         11    1    4    4    0    0 -0.37868587531E-01  0.39206837922E-01 -0.14505152794E-01  0.56408037016E-01  0.51100000000E-03 0. -1.
</event>
<event>
 8    1  0.1099478E+005  0.1043930E+01  0.7957747E-01            NaN
         13   -1    0    0    0    0  0.00000000000E+00  0.00000000000E+00  0.74505805969E-08  0.10566000000E+00  0.10566000000E+00 0.  1.
     999900   -1    0    0    0    0 -0.00000000000E+00 -0.00000000000E+00 -0.74505805969E-08  0.93827000000E+00  0.93827000000E+00 0. -1.
     999902    2    1    2    0    0  0.40208419473E-02  0.21978548455E-01 -0.88111440361E-02  0.10199120896E+01  0.10196292515E+01 0.  0.
     999903    2    3    3    0    0  0.82402219002E-01  0.46082119584E-02 -0.10014404940E+00  0.13155007526E+00  0.21569199295E-01 0.  0.
         14    1    1    2    0    0 -0.40208419473E-02 -0.21978548455E-01  0.88111440361E-02  0.24017910430E-01  0.00000000000E+00 0.  1.
     999901    1    3    3    0    0 -0.78381377055E-01  0.17370336497E-01  0.91332905363E-01  0.88836201431E+00  0.88000000000E+00 0.  1.
        -11    1    4    4    0    0  0.28735019353E-01  0.11898651510E-01 -0.38359614163E-01  0.49386236592E-01  0.51100000000E-03 0.  1.
         11    1    4    4    0    0  0.53667199649E-01 -0.72904395520E-02 -0.61784435236E-01  0.82163838673E-01  0.51100000000E-03 0. -1.
</event>
<event>
 8    1  0.1099478E+005  0.1043930E+01  0.7957747E-01            NaN
         13   -1    0    0    0    0  0.00000000000E+00  0.00000000000E+00  0.74505805969E-08  0.10566000000E+00  0.10566000000E+00 0. -1.
     999900   -1    0    0    0    0 -0.00000000000E+00 -0.00000000000E+00 -0.74505805969E-08  0.93827000000E+00  0.93827000000E+00 0.  1.
     999902    2    1    2    0    0  0.22740750820E-01 -0.59889002293E-02  0.52564804646E-03  0.10204079895E+01  0.10201368438E+01 0.  0.
     999903    2    3    3    0    0  0.11170728405E-01  0.62853985298E-01  0.11209594595E+00  0.13062085780E+00  0.20515817138E-01 0.  0.
         14    1    1    2    0    0 -0.22740750820E-01  0.59889002293E-02 -0.52564804646E-03  0.23522010537E-01  0.00000000000E+00 0. -1.
     999901    1    3    3    0    0  0.11570022416E-01 -0.68842885527E-01 -0.11157029790E+00  0.88978713167E+00  0.88000000000E+00 0.  1.
        -11    1    4    4    0    0 -0.38605247415E-02  0.34997917921E-01  0.63837107707E-01  0.72905386299E-01  0.51100000000E-03 0.  1.
         11    1    4    4    0    0  0.15031253146E-01  0.27856067377E-01  0.48258838239E-01  0.57715471497E-01  0.51100000000E-03 0. -1.
</event>
<event>
 8    1  0.1099478E+005  0.1043930E+01  0.7957747E-01            NaN
         13   -1    0    0    0    0  0.00000000000E+00  0.00000000000E+00  0.74505805969E-08  0.10566000000E+00  0.10566000000E+00 0. -1.
     999900   -1    0    0    0    0 -0.00000000000E+00 -0.00000000000E+00 -0.74505805969E-08  0.93827000000E+00  0.93827000000E+00 0.  1.
     999902    2    1    2    0    0  0.13534934823E-01  0.11716448684E-01  0.16049349376E-01  0.10198873037E+01  0.10196038745E+01 0.  0.
     999903    2    3    3    0    0  0.52401812118E-01 -0.24018712195E-01  0.11768407292E+00  0.13246561537E+00  0.19358455170E-01 0.  0.
         14    1    1    2    0    0 -0.13534934823E-01 -0.11716448684E-01 -0.16049349376E-01  0.24042696309E-01  0.00000000000E+00 0.  1.
     999901    1    3    3    0    0 -0.38866877295E-01  0.35735160879E-01 -0.10163472355E+00  0.88742168832E+00  0.88000000000E+00 0.  1.
        -11    1    4    4    0    0  0.10266379884E-01 -0.14045300678E-01  0.30382636725E-01  0.35014779200E-01  0.51100000000E-03 0.  1.
         11    1    4    4    0    0  0.42135432234E-01 -0.99734115172E-02  0.87301436198E-01  0.97450836169E-01  0.51100000000E-03 0. -1.
</event>
<event>
 8    1  0.1099478E+005  0.1043930E+01  0.7957747E-01            NaN
         13   -1    0    0    0    0  0.00000000000E+00  0.00000000000E+00  0.74505805969E-08  0.10566000000E+00  0.10566000000E+00 0.  1.
     999900   -1    0    0    0    0 -0.00000000000E+00 -0.00000000000E+00 -0.74505805969E-08  0.93827000000E+00  0.93827000000E+00 0.  1.
     999902    2    1    2    0    0  0.10179279854E-01  0.15145867354E-01  0.14575150492E-01  0.10205751280E+01  0.10203078662E+01 0.  0.
     999903    2    3    3    0    0  0.69665243014E-02  0.12060289053E+00  0.52940377467E-01  0.13344300917E+00  0.20267300404E-01 0.  0.
         14    1    1    2    0    0 -0.10179279854E-01 -0.15145867354E-01 -0.14575150492E-01  0.23354872042E-01  0.00000000000E+00 0. -1.
     999901    1    3    3    0    0  0.32127555528E-02 -0.10545702318E+00 -0.38365226975E-01  0.88713211878E+00  0.88000000000E+00 0.  1.
        -11    1    4    4    0    0  0.24225738966E-02  0.50477607480E-01  0.11395926787E-01  0.51807200171E-01  0.51100000000E-03 0. -1.
         11    1    4    4    0    0  0.45439504047E-02  0.70125283052E-01  0.41544450680E-01  0.81635809004E-01  0.51100000000E-03 0.  1.
</event>
<event>
 8    1  0.1099478E+005  0.1043930E+01  0.7957747E-01            NaN
         13   -1    0    0    0    0  0.00000000000E+00  0.00000000000E+00  0.74505805969E-08  0.10566000000E+00  0.10566000000E+00 0.  1.
     999900   -1    0    0    0    0 -0.00000000000E+00 -0.00000000000E+00 -0.74505805969E-08  0.93827000000E+00  0.93827000000E+00 0.  1.
     999902    2    1    2    0    0 -0.13792194872E-02  0.22978986710E-01 -0.28198875961E-02  0.10207375908E+01  0.10204740768E+01 0.  0.
     999903    2    3    3    0    0  0.48838365094E-01  0.10980690303E+00  0.53792388326E-01  0.13323218655E+00  0.20358109753E-01 0.  0.
         14    1    1    2    0    0  0.13792194872E-02 -0.22978986710E-01  0.28198875961E-02  0.23192409161E-01  0.00000000000E+00 0. -1.
     999901    1    3    3    0    0 -0.50217584581E-01 -0.86827916323E-01 -0.56612275922E-01  0.88750540429E+00  0.88000000000E+00 0.  1.
        -11    1    4    4    0    0  0.16623235856E-01  0.45830257303E-01  0.32157389737E-01  0.58404651274E-01  0.51100000000E-03 0. -1.
         11    1    4    4    0    0  0.32215129238E-01  0.63976645731E-01  0.21634998589E-01  0.74827535278E-01  0.51100000000E-03 0.  1.
</event>
<event>
 8    1  0.1099478E+005  0.1043930E+01  0.7957747E-01            NaN
         13   -1    0    0    0    0  0.00000000000E+00  0.00000000000E+00  0.74505805969E-08  0.10566000000E+00  0.10566000000E+00 0. -1.
     999900   -1    0    0    0    0 -0.00000000000E+00 -0.00000000000E+00 -0.74505805969E-08  0.93827000000E+00  0.93827000000E+00 0. -1.
     999902    2    1    2    0    0 -0.70984542376E-02  0.22022951172E-01  0.46343396325E-03  0.10207866813E+01  0.10205242944E+01 0.  0.
     999903    2    3    3    0    0 -0.40695256214E-01  0.71020398816E-01  0.10267087016E+00  0.13288136256E+00  0.20399706094E-01 0.  0.
         14    1    1    2    0    0  0.70984542376E-02 -0.22022951172E-01 -0.46343396325E-03  0.23143318732E-01  0.00000000000E+00 0.  1.
     999901    1    3    3    0    0  0.33596801977E-01 -0.48997447644E-01 -0.10220743620E+00  0.88790531871E+00  0.88000000000E+00 0. -1.
        -11    1    4    4    0    0 -0.18437580154E-01  0.40148120810E-01  0.40230039416E-01  0.59753938439E-01  0.51100000000E-03 0. -1.
         11    1    4    4    0    0 -0.22257676060E-01  0.30872278006E-01  0.62440830747E-01  0.73127424119E-01  0.51100000000E-03 0.  1.
</event>
<event>
 8    1  0.1099478E+005  0.1043930E+01  0.7957747E-01            NaN
         13   -1    0    0    0    0  0.00000000000E+00  0.00000000000E+00  0.74505805969E-08  0.10566000000E+00  0.10566000000E+00 0. -1.
     999900   -1    0    0    0    0 -0.00000000000E+00 -0.00000000000E+00 -0.74505805969E-08  0.93827000000E+00  0.93827000000E+00 0. -1.
     999902    2    1    2    0    0 -0.16126196287E-01  0.21456250332E-02 -0.15945835702E-01  0.10211500178E+01  0.10208958964E+01 0.  0.
     999903    2    3    3    0    0  0.91787671976E-01 -0.86851860892E-01 -0.24630167302E-01  0.13006002621E+00  0.18459220193E-01 0.  0.
         14    1    1    2    0    0  0.16126196287E-01 -0.21456250332E-02  0.15945835702E-01  0.22779982215E-01  0.00000000000E+00 0. -1.
     999901    1    3    3    0    0 -0.10791386826E+00  0.88997485925E-01  0.86843316001E-02  0.89108999157E+00  0.88000000000E+00 0.  1.
        -11    1    4    4    0    0  0.21855619181E-01 -0.29244404925E-01 -0.14742184732E-02  0.36542273469E-01  0.51100000000E-03 0.  1.
         11    1    4    4    0    0  0.69932052795E-01 -0.57607455966E-01 -0.23155948829E-01  0.93517752744E-01  0.51100000000E-03 0. -1.
</event>
<event>
 8    1  0.1099478E+005  0.1043930E+01  0.7957747E-01            NaN
         13   -1    0    0    0    0  0.00000000000E+00  0.00000000000E+00  0.74505805969E-08  0.10566000000E+00  0.10566000000E+00 0. -1.
     999900   -1    0    0    0    0 -0.00000000000E+00 -0.00000000000E+00 -0.74505805969E-08  0.93827000000E+00  0.93827000000E+00 0. -1.
     999902    2    1    2    0    0  0.18382415972E-01 -0.94180993204E-02  0.12045755998E-01  0.10200194574E+01  0.10197391722E+01 0.  0.
     999903    2    3    3    0    0  0.88602699317E-01 -0.88877918071E-01 -0.36735475185E-01  0.13231209595E+00  0.20181004687E-01 0.  0.
         14    1    1    2    0    0 -0.18382415972E-01  0.94180993204E-02 -0.12045755998E-01  0.23910542640E-01  0.00000000000E+00 0.  1.
     999901    1    3    3    0    0 -0.70220283346E-01  0.79459818751E-01  0.48781231183E-01  0.88770736141E+00  0.88000000000E+00 0.  1.
        -11    1    4    4    0    0  0.25859569626E-01 -0.32003942944E-01 -0.20924266300E-01  0.46163359349E-01  0.51100000000E-03 0.  1.
         11    1    4    4    0    0  0.62743129691E-01 -0.56873975127E-01 -0.15811208885E-01  0.86148736599E-01  0.51100000000E-03 0. -1.
</event>
<event>
 8    1  0.1099478E+005  0.1043930E+01  0.7957747E-01            NaN
         13   -1    0    0    0    0  0.00000000000E+00  0.00000000000E+00  0.74505805969E-08  0.10566000000E+00  0.10566000000E+00 0. -1.
     999900   -1    0    0    0    0 -0.00000000000E+00 -0.00000000000E+00 -0.74505805969E-08  0.93827000000E+00  0.93827000000E+00 0. -1.
     999902    2    1    2    0    0 -0.22636302614E-01  0.35638605386E-02  0.16703410614E-02  0.10209540705E+01  0.10206955083E+01 0.  0.
     999903    2    3    3    0    0 -0.98184745474E-01 -0.75050690985E-01 -0.44900958812E-01  0.13300322674E+00  0.20022781023E-01 0.  0.
         14    1    1    2    0    0  0.22636302614E-01 -0.35638605386E-02 -0.16703410614E-02  0.22975929519E-01  0.00000000000E+00 0.  1.
     999901    1    3    3    0    0  0.75548442859E-01  0.78614551523E-01  0.46571299873E-01  0.88795084374E+00  0.88000000000E+00 0.  1.
        -11    1    4    4    0    0 -0.47699602612E-01 -0.31505905733E-01 -0.30494988048E-01  0.64792589102E-01  0.51100000000E-03 0.  1.
         11    1    4    4    0    0 -0.50485142861E-01 -0.43544785251E-01 -0.14405970764E-01  0.68210637638E-01  0.51100000000E-03 0. -1.
</event>
<event>
 8    1  0.1099478E+005  0.1043930E+01  0.7957747E-01            NaN
         13   -1    0    0    0    0  0.00000000000E+00  0.00000000000E+00  0.74505805969E-08  0.10566000000E+00  0.10566000000E+00 0.  1.
     999900   -1    0    0    0    0 -0.00000000000E+00 -0.00000000000E+00 -0.74505805969E-08  0.93827000000E+00  0.93827000000E+00 0. -1.
     999902    2    1    2    0    0  0.17968669603E-01 -0.12006693285E-01 -0.68337525464E-02  0.10212643003E+01  0.10210127507E+01 0.  0.
     999903    2    3    3    0    0 -0.81392884373E-01  0.95720761489E-01  0.21135225312E-01  0.12870607435E+00  0.18201374069E-01 0.  0.
         14    1    1    2    0    0 -0.17968669603E-01  0.12006693285E-01  0.68337525464E-02  0.22665699742E-01  0.00000000000E+00 0. -1.
     999901    1    3    3    0    0  0.99361553976E-01 -0.10772745477E+00 -0.27968977858E-01  0.89255822591E+00  0.88000000000E+00 0. -1.
        -11    1    4    4    0    0 -0.19910293890E-01  0.23613351534E-01 -0.26494632961E-02  0.31004692390E-01  0.51100000000E-03 0.  1.
         11    1    4    4    0    0 -0.61482590483E-01  0.72107409955E-01  0.23784688608E-01  0.97701381956E-01  0.51100000000E-03 0. -1.
</event>
<event>
 8    1  0.1099478E+005  0.1043930E+01  0.7957747E-01            NaN
         13   -1    0    0    0    0  0.00000000000E+00  0.00000000000E+00  0.74505805969E-08  0.10566000000E+00  0.10566000000E+00 0. -1.
     999900   -1    0    0    0    0 -0.00000000000E+00 -0.00000000000E+00 -0.74505805969E-08  0.93827000000E+00  0.93827000000E+00 0.  1.
     999902    2    1    2    0    0  0.23475858523E-01 -0.45177971492E-02  0.41369708006E-02  0.10196680761E+01  0.10193793918E+01 0.  0.
     999903    2    3    3    0    0  0.11002220552E+00  0.49571491679E-01  0.51004575739E-01  0.13253082981E+00  0.20018381754E-01 0.  0.
         14    1    1    2    0    0 -0.23475858523E-01  0.45177971492E-02 -0.41369708006E-02  0.24261923911E-01  0.00000000000E+00 0. -1.
     999901    1    3    3    0    0 -0.86546347001E-01 -0.54089288828E-01 -0.46867604938E-01  0.88713724628E+00  0.88000000000E+00 0.  1.
        -11    1    4    4    0    0  0.84229105065E-01  0.45468134010E-01  0.35124207492E-01  0.10196011192E+00  0.51100000000E-03 0.  1.
         11    1    4    4    0    0  0.25793100459E-01  0.41033576693E-02  0.15880368246E-01  0.30570717886E-01  0.51100000000E-03 0. -1.
</event>
<event>
 8    1  0.1099478E+005  0.1043930E+01  0.7957747E-01            NaN
         13   -1    0    0    0    0  0.00000000000E+00  0.00000000000E+00  0.74505805969E-08  0.10566000000E+00  0.10566000000E+00 0. -1.
     999900   -1    0    0    0    0 -0.00000000000E+00 -0.00000000000E+00 -0.74505805969E-08  0.93827000000E+00  0.93827000000E+00 0.  1.
     999902    2    1    2    0    0  0.48929636743E-02 -0.13820207161E-01  0.18174987073E-01  0.10205789963E+01  0.10203118240E+01 0.  0.
     999903    2    3    3    0    0 -0.14661411525E-01 -0.97557471990E-01  0.87952251176E-01  0.13363865460E+00  0.19780651873E-01 0.  0.
         14    1    1    2    0    0 -0.48929636743E-02  0.13820207161E-01 -0.18174987073E-01  0.23351003717E-01  0.00000000000E+00 0.  1.
     999901    1    3    3    0    0  0.19554375199E-01  0.83737264830E-01 -0.69777264103E-01  0.88694034168E+00  0.88000000000E+00 0.  1.
        -11    1    4    4    0    0 -0.15682995733E-01 -0.84531232074E-01  0.83433768548E-01  0.11980375790E+00  0.51100000000E-03 0. -1.
         11    1    4    4    0    0  0.10215842081E-02 -0.13026239917E-01  0.45184826286E-02  0.13834896708E-01  0.51100000000E-03 0.  1.
</event>
<event>
 8    1  0.1099478E+005  0.1043930E+01  0.7957747E-01            NaN
         13   -1    0    0    0    0  0.00000000000E+00  0.00000000000E+00  0.74505805969E-08  0.10566000000E+00  0.10566000000E+00 0. -1.
     999900   -1    0    0    0    0 -0.00000000000E+00 -0.00000000000E+00 -0.74505805969E-08  0.93827000000E+00  0.93827000000E+00 0.  1.
     999902    2    1    2    0    0  0.15349503493E-01 -0.13302808939E-01  0.11912444460E-01  0.10203826367E+01  0.10201108994E+01 0.  0.
     999903    2    3    3    0    0 -0.31362443666E-01 -0.21394682548E-01  0.12476175765E+00  0.13191066087E+00  0.19839127156E-01 0.  0.
         14    1    1    2    0    0 -0.15349503493E-01  0.13302808939E-01 -0.11912444460E-01  0.23547363253E-01  0.00000000000E+00 0. -1.
     999901    1    3    3    0    0  0.46711947159E-01  0.80918736093E-02 -0.11284931319E+00  0.88847197587E+00  0.88000000000E+00 0.  1.
        -11    1    4    4    0    0 -0.46218252202E-02 -0.98812813316E-02  0.16389008098E-01  0.19694204644E-01  0.51100000000E-03 0.  1.
         11    1    4    4    0    0 -0.26740618446E-01 -0.11513401217E-01  0.10837274955E+00  0.11221645623E+00  0.51100000000E-03 0. -1.
</event>
<event>
 8    1  0.1099478E+005  0.1043930E+01  0.7957747E-01            NaN
         13   -1    0    0    0    0  0.00000000000E+00  0.00000000000E+00  0.74505805969E-08  0.10566000000E+00  0.10566000000E+00 0. -1.
     999900   -1    0    0    0    0 -0.00000000000E+00 -0.00000000000E+00 -0.74505805969E-08  0.93827000000E+00  0.93827000000E+00 0.  1.
     999902    2    1    2    0    0  0.14875848199E-02 -0.19327739366E-01 -0.12037640573E-01  0.10211116037E+01  0.10208566148E+01 0.  0.
     999903    2    3    3    0    0 -0.12072834644E+00 -0.46560649988E-01  0.15263832562E-01  0.13182889519E+00  0.20066022601E-01 0.  0.
         14    1    1    2    0    0 -0.14875848199E-02  0.19327739366E-01  0.12037640573E-01  0.22818396266E-01  0.00000000000E+00 0. -1.
     999901    1    3    3    0    0  0.12221593126E+00  0.27232910622E-01 -0.27301473136E-01  0.88928270854E+00  0.88000000000E+00 0.  1.
        -11    1    4    4    0    0 -0.76515709873E-01 -0.36532828619E-01  0.16907969103E-01  0.86460638238E-01  0.51100000000E-03 0.  1.
         11    1    4    4    0    0 -0.44212636562E-01 -0.10027821369E-01 -0.16441365413E-02  0.45368256955E-01  0.51100000000E-03 0. -1.
</event>
<event>
 8    1  0.1099478E+005  0.1043930E+01  0.7957747E-01            NaN
         13   -1    0    0    0    0  0.00000000000E+00  0.00000000000E+00  0.74505805969E-08  0.10566000000E+00  0.10566000000E+00 0. -1.
     999900   -1    0    0    0    0 -0.00000000000E+00 -0.00000000000E+00 -0.74505805969E-08  0.93827000000E+00  0.93827000000E+00 0. -1.
     999902    2    1    2    0    0  0.18071720738E-02 -0.21561567403E-02 -0.21899435783E-01  0.10218505940E+01  0.10216120282E+01 0.  0.
     999903    2    3    3    0    0 -0.26597551966E-01 -0.99504370283E-01  0.77332275006E-01  0.13048622658E+00  0.20924270472E-01 0.  0.
         14    1    1    2    0    0 -0.18071720738E-02  0.21561567403E-02  0.21899435783E-01  0.22079406025E-01  0.00000000000E+00 0. -1.
     999901    1    3    3    0    0  0.28404724039E-01  0.97348213543E-01 -0.99231710788E-01  0.89136436739E+00  0.88000000000E+00 0. -1.
        -11    1    4    4    0    0 -0.20223074479E-01 -0.41071657177E-01  0.40443541176E-01  0.61088418775E-01  0.51100000000E-03 0. -1.
         11    1    4    4    0    0 -0.63744774864E-02 -0.58432713106E-01  0.36888733830E-01  0.69397807809E-01  0.51100000000E-03 0.  1.
</event>
<event>
 8    1  0.1099478E+005  0.1043930E+01  0.7957747E-01            NaN
         13   -1    0    0    0    0  0.00000000000E+00  0.00000000000E+00  0.74505805969E-08  0.10566000000E+00  0.10566000000E+00 0.  1.
     999900   -1    0    0    0    0 -0.00000000000E+00 -0.00000000000E+00 -0.74505805969E-08  0.93827000000E+00  0.93827000000E+00 0. -1.
     999902    2    1    2    0    0  0.10776927621E-01 -0.19261583377E-01  0.79272661150E-02  0.10204780851E+01  0.10202085718E+01 0.  0.
     999903    2    3    3    0    0  0.20740651375E-02  0.92120057948E-01 -0.87194062760E-01  0.12832917544E+00  0.19369198930E-01 0.  0.
         14    1    1    2    0    0 -0.10776927621E-01  0.19261583377E-01 -0.79272661150E-02  0.23451914873E-01  0.00000000000E+00 0. -1.
     999901    1    3    3    0    0  0.87028624837E-02 -0.11138164133E+00  0.95121328876E-01  0.89214890968E+00  0.88000000000E+00 0.  1.
        -11    1    4    4    0    0  0.13803688822E-02  0.24304964978E-01 -0.35525175198E-01  0.43068967189E-01  0.51100000000E-03 0. -1.
         11    1    4    4    0    0  0.69369625534E-03  0.67815092969E-01 -0.51668887562E-01  0.85260208256E-01  0.51100000000E-03 0.  1.
</event>
<event>
 8    1  0.1099478E+005  0.1043930E+01  0.7957747E-01            NaN
         13   -1    0    0    0    0  0.00000000000E+00  0.00000000000E+00  0.74505805969E-08  0.10566000000E+00  0.10566000000E+00 0. -1.
     999900   -1    0    0    0    0 -0.00000000000E+00 -0.00000000000E+00 -0.74505805969E-08  0.93827000000E+00  0.93827000000E+00 0.  1.
     999902    2    1    2    0    0 -0.40051139546E-02  0.20425666698E-01 -0.11574032988E-01  0.10201138912E+01  0.10198358417E+01 0.  0.
     999903    2    3    3    0    0 -0.16700126623E-01  0.66414332156E-01 -0.11230886880E+00  0.13308309816E+00  0.20200773700E-01 0.  0.
         14    1    1    2    0    0  0.40051139546E-02 -0.20425666698E-01  0.11574032988E-01  0.23816108781E-01  0.00000000000E+00 0. -1.
     999901    1    3    3    0    0  0.12695012668E-01 -0.45988665458E-01  0.10073483581E+00  0.88703079306E+00  0.88000000000E+00 0. -1.
        -11    1    4    4    0    0 -0.64680804847E-03  0.37496366157E-01 -0.49592005997E-01  0.62177359347E-01  0.51100000000E-03 0. -1.
         11    1    4    4    0    0 -0.16053318574E-01  0.28917966000E-01 -0.62716862805E-01  0.70905738808E-01  0.51100000000E-03 0.  1.
</event>
<event>
 8    1  0.1099478E+005  0.1043930E+01  0.7957747E-01            NaN
         13   -1    0    0    0    0  0.00000000000E+00  0.00000000000E+00  0.74505805969E-08  0.10566000000E+00  0.10566000000E+00 0.  1.
     999900   -1    0    0    0    0 -0.00000000000E+00 -0.00000000000E+00 -0.74505805969E-08  0.93827000000E+00  0.93827000000E+00 0. -1.
     999902    2    1    2    0    0  0.82254429236E-02 -0.21450661466E-01  0.88674872884E-02  0.10193043808E+01  0.10190068693E+01 0.  0.
     999903    2    3    3    0    0  0.97274146782E-01 -0.81457433562E-01  0.33216055935E-01  0.13244287126E+00  0.18445450990E-01 0.  0.
         14    1    1    2    0    0 -0.82254429236E-02  0.21450661466E-01 -0.88674872884E-02  0.24625619169E-01  0.00000000000E+00 0. -1.
     999901    1    3    3    0    0 -0.89048703858E-01  0.60006772096E-01 -0.24348568647E-01  0.88686150957E+00  0.88000000000E+00 0.  1.
        -11    1    4    4    0    0  0.61579038418E-01 -0.59199501366E-01  0.15599622579E-01  0.86834142364E-01  0.51100000000E-03 0. -1.
         11    1    4    4    0    0  0.35695108364E-01 -0.22257932197E-01  0.17616433356E-01  0.45608728901E-01  0.51100000000E-03 0.  1.
</event>
<event>
 8    1  0.1099478E+005  0.1043930E+01  0.7957747E-01            NaN
         13   -1    0    0    0    0  0.00000000000E+00  0.00000000000E+00  0.74505805969E-08  0.10566000000E+00  0.10566000000E+00 0. -1.
     999900   -1    0    0    0    0 -0.00000000000E+00 -0.00000000000E+00 -0.74505805969E-08  0.93827000000E+00  0.93827000000E+00 0. -1.
     999902    2    1    2    0    0  0.18423438102E-02  0.19014469727E-01  0.12319007098E-01  0.10211989150E+01  0.10209458956E+01 0.  0.
     999903    2    3    3    0    0 -0.79858563803E-02  0.12162773835E+00 -0.49554947023E-01  0.13302412217E+00  0.19561279776E-01 0.  0.
         14    1    1    2    0    0 -0.18423438102E-02 -0.19014469727E-01 -0.12319007098E-01  0.22731085007E-01  0.00000000000E+00 0.  1.
     999901    1    3    3    0    0  0.98282001905E-02 -0.10261326862E+00  0.61873954121E-01  0.88817479283E+00  0.88000000000E+00 0.  1.
        -11    1    4    4    0    0 -0.27119286455E-02  0.38623763292E-01 -0.61531134736E-02  0.39208054966E-01  0.51100000000E-03 0. -1.
         11    1    4    4    0    0 -0.52739277348E-02  0.83003975053E-01 -0.43401833549E-01  0.93816067200E-01  0.51100000000E-03 0.  1.
</event>
<event>
 8    1  0.1099478E+005  0.1043930E+01  0.7957747E-01            NaN
         13   -1    0    0    0    0  0.00000000000E+00  0.00000000000E+00  0.74505805969E-08  0.10566000000E+00  0.10566000000E+00 0. -1.
     999900   -1    0    0    0    0 -0.00000000000E+00 -0.00000000000E+00 -0.74505805969E-08  0.93827000000E+00  0.93827000000E+00 0.  1.
     999902    2    1    2    0    0  0.31978575602E-02 -0.26373901528E-02 -0.22935101495E-01  0.10206233271E+01  0.10203571800E+01 0.  0.
     999903    2    3    3    0    0  0.43913686643E-01  0.44911872951E-01 -0.11611714671E+00  0.13349221804E+00  0.19786164641E-01 0.  0.
         14    1    1    2    0    0 -0.31978575602E-02  0.26373901528E-02  0.22935101495E-01  0.23306672872E-01  0.00000000000E+00 0. -1.
     999901    1    3    3    0    0 -0.40715829082E-01 -0.47549263103E-01  0.93182045214E-01  0.88713110909E+00  0.88000000000E+00 0. -1.
        -11    1    4    4    0    0  0.28360563670E-01  0.20014446103E-01 -0.78013259003E-01  0.85388695539E-01  0.51100000000E-03 0.  1.
         11    1    4    4    0    0  0.15553122972E-01  0.24897426848E-01 -0.38103887706E-01  0.48103522502E-01  0.51100000000E-03 0. -1.
</event>
<event>
 8    1  0.1099478E+005  0.1043930E+01  0.7957747E-01            NaN
         13   -1    0    0    0    0  0.00000000000E+00  0.00000000000E+00  0.74505805969E-08  0.10566000000E+00  0.10566000000E+00 0.  1.
     999900   -1    0    0    0    0 -0.00000000000E+00 -0.00000000000E+00 -0.74505805969E-08  0.93827000000E+00  0.93827000000E+00 0. -1.
     999902    2    1    2    0    0 -0.94682106272E-02 -0.89496425912E-02  0.18179476305E-01  0.10215640331E+01  0.10213191653E+01 0.  0.
     999903    2    3    3    0    0  0.12659651614E+00  0.13135501953E-01 -0.17557880623E-01  0.13011660218E+00  0.20562871413E-01 0.  0.
         14    1    1    2    0    0  0.94682106272E-02  0.89496425912E-02 -0.18179476305E-01  0.22365966863E-01  0.00000000000E+00 0. -1.
     999901    1    3    3    0    0 -0.13606472677E+00 -0.22085144545E-01  0.35737356927E-01  0.89144743096E+00  0.88000000000E+00 0.  1.
        -11    1    4    4    0    0  0.12469543586E+00  0.10555526203E-01 -0.15109333572E-01  0.12605127504E+00  0.51100000000E-03 0.  1.
         11    1    4    4    0    0  0.19010802844E-02  0.25799757505E-02 -0.24485470506E-02  0.40653271430E-02  0.51100000000E-03 0. -1.
</event>
<event>
 8    1  0.1099478E+005  0.1043930E+01  0.7957747E-01            NaN
         13   -1    0    0    0    0  0.00000000000E+00  0.00000000000E+00  0.74505805969E-08  0.10566000000E+00  0.10566000000E+00 0. -1.
     999900   -1    0    0    0    0 -0.00000000000E+00 -0.00000000000E+00 -0.74505805969E-08  0.93827000000E+00  0.93827000000E+00 0.  1.
     999902    2    1    2    0    0  0.18074857620E-01 -0.62905349784E-03 -0.14771204344E-01  0.10205786689E+01  0.10203114891E+01 0.  0.
     999903    2    3    3    0    0  0.46982474052E-01  0.94087241269E-01  0.74638798797E-01  0.13052194293E+00  0.20131206211E-01 0.  0.
         14    1    1    2    0    0 -0.18074857620E-01  0.62905349784E-03  0.14771204344E-01  0.23351331098E-01  0.00000000000E+00 0. -1.
     999901    1    3    3    0    0 -0.28907616433E-01 -0.94716294766E-01 -0.89410003140E-01  0.89005672597E+00  0.88000000000E+00 0.  1.
        -11    1    4    4    0    0  0.35967494159E-01  0.60585093124E-01  0.59170896721E-01  0.92009077186E-01  0.51100000000E-03 0. -1.
         11    1    4    4    0    0  0.11014979893E-01  0.33502148145E-01  0.15467902075E-01  0.38512865746E-01  0.51100000000E-03 0.  1.
</event>
<event>
 8    1  0.1099478E+005  0.1043930E+01  0.7957747E-01            NaN
         13   -1    0    0    0    0  0.00000000000E+00  0.00000000000E+00  0.74505805969E-08  0.10566000000E+00  0.10566000000E+00 0. -1.
     999900   -1    0    0    0    0 -0.00000000000E+00 -0.00000000000E+00 -0.74505805969E-08  0.93827000000E+00  0.93827000000E+00 0. -1.
     999902    2    1    2    0    0 -0.50096712203E-02  0.22142416599E-01  0.46938522878E-02  0.10207477726E+01  0.10204844926E+01 0.  0.
     999903    2    3    3    0    0  0.16008615137E-01  0.64911856839E-01  0.11303987120E+00  0.13282330891E+00  0.19854319194E-01 0.  0.
         14    1    1    2    0    0  0.50096712203E-02 -0.22142416599E-01 -0.46938522878E-02  0.23182227415E-01  0.00000000000E+00 0.  1.
     999901    1    3    3    0    0 -0.21018286358E-01 -0.42769440240E-01 -0.10834601892E+00  0.88792446368E+00  0.88000000000E+00 0. -1.
        -11    1    4    4    0    0  0.17474048956E-01  0.31009052840E-01  0.52749449020E-01  0.63637011541E-01  0.51100000000E-03 0.  1.
         11    1    4    4    0    0 -0.14654338188E-02  0.33902804000E-01  0.60290422185E-01  0.69186297368E-01  0.51100000000E-03 0. -1.
</event>
<event>
 8    1  0.1099478E+005  0.1043930E+01  0.7957747E-01            NaN
         13   -1    0    0    0    0  0.00000000000E+00  0.00000000000E+00  0.74505805969E-08  0.10566000000E+00  0.10566000000E+00 0. -1.
     999900   -1    0    0    0    0 -0.00000000000E+00 -0.00000000000E+00 -0.74505805969E-08  0.93827000000E+00  0.93827000000E+00 0.  1.
     999902    2    1    2    0    0 -0.11052618286E-01 -0.15734413634E-01  0.14838353428E-01  0.10196419602E+01  0.10193526466E+01 0.  0.
     999903    2    3    3    0    0  0.63657424462E-01  0.95364035965E-01  0.54776004831E-01  0.12862037127E+00  0.19905329848E-01 0.  0.
         14    1    1    2    0    0  0.11052618286E-01  0.15734413634E-01 -0.14838353428E-01  0.24288039769E-01  0.00000000000E+00 0.  1.
     999901    1    3    3    0    0 -0.74710042747E-01 -0.11109844960E+00 -0.39937651403E-01  0.89102158896E+00  0.88000000000E+00 0.  1.
        -11    1    4    4    0    0  0.10899736424E-01  0.12524743654E-01  0.98451321643E-03  0.16640428029E-01  0.51100000000E-03 0. -1.
         11    1    4    4    0    0  0.52757688037E-01  0.82839292311E-01  0.53791491614E-01  0.11197994324E+00  0.51100000000E-03 0.  1.
</event>
<event>
 8    1  0.1099478E+005  0.1043930E+01  0.7957747E-01            NaN
         13   -1    0    0    0    0  0.00000000000E+00  0.00000000000E+00  0.74505805969E-08  0.10566000000E+00  0.10566000000E+00 0. -1.
     999900   -1    0    0    0    0 -0.00000000000E+00 -0.00000000000E+00 -0.74505805969E-08  0.93827000000E+00  0.93827000000E+00 0.  1.
     999902    2    1    2    0    0 -0.29260681337E-02 -0.43140666356E-02 -0.22893422105E-01  0.10204506086E+01  0.10201804560E+01 0.  0.
     999903    2    3    3    0    0  0.34128976077E-01  0.10540777079E+00  0.62582470567E-01  0.12875666662E+00  0.19650150768E-01 0.  0.
         14    1    1    2    0    0  0.29260681337E-02  0.43140666356E-02  0.22893422105E-01  0.23479391417E-01  0.00000000000E+00 0. -1.
     999901    1    3    3    0    0 -0.37055044211E-01 -0.10972183743E+00 -0.85475892671E-01  0.89169394197E+00  0.88000000000E+00 0. -1.
        -11    1    4    4    0    0  0.28593269522E-02  0.22621770925E-01  0.20900450155E-01  0.30935581586E-01  0.51100000000E-03 0. -1.
         11    1    4    4    0    0  0.31269649125E-01  0.82785999865E-01  0.41682020411E-01  0.97821085031E-01  0.51100000000E-03 0.  1.
</event>
<event>
 8    1  0.1099478E+005  0.1043930E+01  0.7957747E-01            NaN
         13   -1    0    0    0    0  0.00000000000E+00  0.00000000000E+00  0.74505805969E-08  0.10566000000E+00  0.10566000000E+00 0.  1.
     999900   -1    0    0    0    0 -0.00000000000E+00 -0.00000000000E+00 -0.74505805969E-08  0.93827000000E+00  0.93827000000E+00 0.  1.
     999902    2    1    2    0    0 -0.10260868187E-01 -0.21576842195E-01 -0.32125480814E-02  0.10198226152E+01  0.10195376406E+01 0.  0.
     999903    2    3    3    0    0 -0.12147797641E+00  0.93438948719E-03 -0.45673231238E-01  0.13152147805E+00  0.21309230358E-01 0.  0.
         14    1    1    2    0    0  0.10260868187E-01  0.21576842195E-01  0.32125480814E-02  0.24107384765E-01  0.00000000000E+00 0. -1.
     999901    1    3    3    0    0  0.11121710823E+00 -0.22511231682E-01  0.42460683157E-01  0.88830113719E+00  0.88000000000E+00 0. -1.
        -11    1    4    4    0    0 -0.21375602377E-01  0.76784685688E-03  0.22553566741E-03  0.21396680890E-01  0.51100000000E-03 0. -1.
         11    1    4    4    0    0 -0.10010237404E+00  0.16654263031E-03 -0.45898766906E-01  0.11012479716E+00  0.51100000000E-03 0.  1.
</event>
<event>
 8    1  0.1099478E+005  0.1043930E+01  0.7957747E-01            NaN
         13   -1    0    0    0    0  0.00000000000E+00  0.00000000000E+00  0.74505805969E-08  0.10566000000E+00  0.10566000000E+00 0.  1.
     999900   -1    0    0    0    0 -0.00000000000E+00 -0.00000000000E+00 -0.74505805969E-08  0.93827000000E+00  0.93827000000E+00 0. -1.
     999902    2    1    2    0    0 -0.83465650479E-02  0.35837484414E-02  0.22545906940E-01  0.10196230808E+01  0.10193333118E+01 0.  0.
     999903    2    3    3    0    0  0.12345861474E+00 -0.30826236196E-01  0.30965162405E-02  0.12892956940E+00  0.20517286869E-01 0.  0.
         14    1    1    2    0    0  0.83465650479E-02 -0.35837484414E-02 -0.22545906940E-01  0.24306919195E-01  0.00000000000E+00 0. -1.
     999901    1    3    3    0    0 -0.13180517979E+00  0.34409984637E-01  0.19449390699E-01  0.89069351141E+00  0.88000000000E+00 0.  1.
        -11    1    4    4    0    0  0.40442574635E-01 -0.44017993060E-03 -0.52482723258E-03  0.40451602763E-01  0.51100000000E-03 0. -1.
         11    1    4    4    0    0  0.83016040108E-01 -0.30386056265E-01  0.36213434731E-02  0.88477966636E-01  0.51100000000E-03 0.  1.
</event>
<event>
 8    1  0.1099478E+005  0.1043930E+01  0.7957747E-01            NaN
         13   -1    0    0    0    0  0.00000000000E+00  0.00000000000E+00  0.74505805969E-08  0.10566000000E+00  0.10566000000E+00 0. -1.
     999900   -1    0    0    0    0 -0.00000000000E+00 -0.00000000000E+00 -0.74505805969E-08  0.93827000000E+00  0.93827000000E+00 0.  1.
     999902    2    1    2    0    0 -0.13527017752E-01 -0.51257459930E-02  0.16906920092E-01  0.10216792151E+01  0.10214368904E+01 0.  0.
     999903    2    3    3    0    0 -0.81613635534E-01  0.58045508952E-01 -0.81599836570E-01  0.13132536630E+00  0.23616771421E-01 0.  0.
         14    1    1    2    0    0  0.13527017752E-01  0.51257459930E-02 -0.16906920092E-01  0.22250784891E-01  0.00000000000E+00 0.  1.
     999901    1    3    3    0    0  0.68086617782E-01 -0.63171254945E-01  0.98506756662E-01  0.89035384880E+00  0.88000000000E+00 0.  1.
        -11    1    4    4    0    0 -0.48232657677E-01  0.40845746523E-01 -0.63648799391E-01  0.89700585620E-01  0.51100000000E-03 0. -1.
         11    1    4    4    0    0 -0.33380977857E-01  0.17199762429E-01 -0.17951037179E-01  0.41624780685E-01  0.51100000000E-03 0.  1.
</event>
<event>
 7    1  0.1099478E+005  0.1043930E+01  0.7957747E-01            NaN
         13   -1    0    0    0    0  0.00000000000E+00  0.00000000000E+00  0.74505805969E-08  0.10566000000E+00  0.10566000000E+00 0.  1.
     999900   -1    0    0    0    0 -0.00000000000E+00 -0.00000000000E+00 -0.74505805969E-08  0.93827000000E+00  0.93827000000E+00 0. -1.
     999903    2    1    2    0    0  0.93329767699E-01 -0.95793633069E-02  0.64733581422E-01  0.11564792532E+00  0.19539609172E-01 0.  0.
         14    1    1    2    0    0 -0.12961031139E-01  0.37163960358E-01 -0.17081510786E-01  0.42906016926E-01  0.00000000000E+00 0.  1.
     999901    1    1    2    0    0 -0.80368736560E-01 -0.27584597051E-01 -0.47652070637E-01  0.88537605776E+00  0.88000000000E+00 0. -1.
        -11    1    3    3    0    0  0.23224579380E-01 -0.41058243536E-02  0.68393238378E-02  0.24561684644E-01  0.51100000000E-03 0.  1.
         11    1    3    3    0    0  0.70105188319E-01 -0.54735389533E-02  0.57894257585E-01  0.91086240675E-01  0.51100000000E-03 0. -1.
</event>
<event>
 8    1  0.1099478E+005  0.1043930E+01  0.7957747E-01            NaN
         13   -1    0    0    0    0  0.00000000000E+00  0.00000000000E+00  0.74505805969E-08  0.10566000000E+00  0.10566000000E+00 0.  1.
     999900   -1    0    0    0    0 -0.00000000000E+00 -0.00000000000E+00 -0.74505805969E-08  0.93827000000E+00  0.93827000000E+00 0.  1.
     999902    2    1    2    0    0  0.42607301232E-02  0.20129091441E-01 -0.12169663811E-01  0.10200252963E+01  0.10197451496E+01 0.  0.
     999903    2    3    3    0    0 -0.18400939119E-01 -0.11048367021E+00 -0.60306102687E-01  0.12879560561E+00  0.20155546596E-01 0.  0.
         14    1    1    2    0    0 -0.42607301232E-02 -0.20129091441E-01  0.12169663811E-01  0.23904703736E-01  0.00000000000E+00 0.  1.
     999901    1    3    3    0    0  0.22661669243E-01  0.13061276165E+00  0.48136438876E-01  0.89122969066E+00  0.88000000000E+00 0.  1.
        -11    1    4    4    0    0  0.77005575539E-03 -0.40978008419E-01 -0.15036412161E-01  0.43659420193E-01  0.51100000000E-03 0.  1.
         11    1    4    4    0    0 -0.19170994875E-01 -0.69505661793E-01 -0.45269690526E-01  0.85136185415E-01  0.51100000000E-03 0. -1.
</event>
<event>
 8    1  0.1099478E+005  0.1043930E+01  0.7957747E-01            NaN
         13   -1    0    0    0    0  0.00000000000E+00  0.00000000000E+00  0.74505805969E-08  0.10566000000E+00  0.10566000000E+00 0. -1.
     999900   -1    0    0    0    0 -0.00000000000E+00 -0.00000000000E+00 -0.74505805969E-08  0.93827000000E+00  0.93827000000E+00 0. -1.
     999902    2    1    2    0    0  0.20724052914E-01 -0.43180667967E-02  0.10103365427E-01  0.10204734431E+01  0.10202038218E+01 0.  0.
     999903    2    3    3    0    0 -0.19976025374E-01  0.12673166330E+00 -0.10127413545E-02  0.12976917343E+00  0.19469377363E-01 0.  0.
         14    1    1    2    0    0 -0.20724052914E-01  0.43180667967E-02 -0.10103365427E-01  0.23456556930E-01  0.00000000000E+00 0.  1.
     999901    1    3    3    0    0  0.40700078288E-01 -0.13104973009E+00  0.11116106782E-01  0.89070426964E+00  0.88000000000E+00 0.  1.
        -11    1    4    4    0    0 -0.49321617816E-02  0.74484525159E-01 -0.74359441376E-02  0.75018831597E-01  0.51100000000E-03 0.  1.
         11    1    4    4    0    0 -0.15043863592E-01  0.52247138139E-01  0.64232027831E-02  0.54750341830E-01  0.51100000000E-03 0. -1.
</event>
<event>
 8    1  0.1099478E+005  0.1043930E+01  0.7957747E-01            NaN
         13   -1    0    0    0    0  0.00000000000E+00  0.00000000000E+00  0.74505805969E-08  0.10566000000E+00  0.10566000000E+00 0.  1.
     999900   -1    0    0    0    0 -0.00000000000E+00 -0.00000000000E+00 -0.74505805969E-08  0.93827000000E+00  0.93827000000E+00 0. -1.
     999902    2    1    2    0    0  0.40185633515E-02  0.13716597063E-01  0.20067325059E-01  0.10192928041E+01  0.10189950094E+01 0.  0.
     999903    2    3    3    0    0 -0.41911679319E-01 -0.11398820845E-01  0.12285381202E+00  0.13176509563E+00  0.19556567140E-01 0.  0.
         14    1    1    2    0    0 -0.40185633515E-02 -0.13716597063E-01 -0.20067325059E-01  0.24637195892E-01  0.00000000000E+00 0. -1.
     999901    1    3    3    0    0  0.45930242670E-01  0.25115417908E-01 -0.10278648696E+00  0.88752770848E+00  0.88000000000E+00 0. -1.
        -11    1    4    4    0    0 -0.11939851267E-01 -0.12916637683E-01  0.43485723328E-01  0.46911286826E-01  0.51100000000E-03 0. -1.
         11    1    4    4    0    0 -0.29971828052E-01  0.15178168382E-02  0.79368088697E-01  0.84853808807E-01  0.51100000000E-03 0.  1.
</event>
<event>
 8    1  0.1099478E+005  0.1043930E+01  0.7957747E-01            NaN
         13   -1    0    0    0    0  0.00000000000E+00  0.00000000000E+00  0.74505805969E-08  0.10566000000E+00  0.10566000000E+00 0.  1.
     999900   -1    0    0    0    0 -0.00000000000E+00 -0.00000000000E+00 -0.74505805969E-08  0.93827000000E+00  0.93827000000E+00 0. -1.
     999902    2    1    2    0    0  0.19915148006E-03 -0.83809452233E-02 -0.22391529803E-01  0.10200205769E+01  0.10197403184E+01 0.  0.
     999903    2    3    3    0    0 -0.11011697441E+00 -0.64041245738E-01 -0.25384218006E-01  0.13138303955E+00  0.19751337884E-01 0.  0.
         14    1    1    2    0    0 -0.19915148006E-03  0.83809452233E-02  0.22391529803E-01  0.23909423060E-01  0.00000000000E+00 0.  1.
     999901    1    3    3    0    0  0.11031612589E+00  0.55660300515E-01  0.29926882023E-02  0.88863753739E+00  0.88000000000E+00 0.  1.
        -11    1    4    4    0    0 -0.82285495847E-01 -0.56537811263E-01 -0.23010789844E-01  0.10245576850E+00  0.51100000000E-03 0. -1.
         11    1    4    4    0    0 -0.27831478559E-01 -0.75034344749E-02 -0.23734281619E-02  0.28927271042E-01  0.51100000000E-03 0.  1.
</event>
<event>
 8    1  0.1099478E+005  0.1043930E+01  0.7957747E-01            NaN
         13   -1    0    0    0    0  0.00000000000E+00  0.00000000000E+00  0.74505805969E-08  0.10566000000E+00  0.10566000000E+00 0.  1.
     999900   -1    0    0    0    0 -0.00000000000E+00 -0.00000000000E+00 -0.74505805969E-08  0.93827000000E+00  0.93827000000E+00 0. -1.
     999902    2    1    2    0    0 -0.20540830558E-01 -0.10150138669E-01 -0.69744789707E-03  0.10210075772E+01  0.10207502315E+01 0.  0.
     999903    2    3    3    0    0  0.31104119040E-01  0.33565605043E-01  0.12013267285E+00  0.13017752315E+00  0.20499082517E-01 0.  0.
         14    1    1    2    0    0  0.20540830558E-01  0.10150138669E-01  0.69744789707E-03  0.22922422834E-01  0.00000000000E+00 0.  1.
     999901    1    3    3    0    0 -0.51644949598E-01 -0.43715743713E-01 -0.12083012074E+00  0.89083005402E+00  0.88000000000E+00 0. -1.
        -11    1    4    4    0    0  0.87159217711E-02  0.19178323010E-01  0.73736201410E-01  0.76688094807E-01  0.51100000000E-03 0. -1.
         11    1    4    4    0    0  0.22388197269E-01  0.14387282033E-01  0.46396471435E-01  0.53489428338E-01  0.51100000000E-03 0.  1.
</event>
<event>
 8    1  0.1099478E+005  0.1043930E+01  0.7957747E-01            NaN
         13   -1    0    0    0    0  0.00000000000E+00  0.00000000000E+00  0.74505805969E-08  0.10566000000E+00  0.10566000000E+00 0. -1.
     999900   -1    0    0    0    0 -0.00000000000E+00 -0.00000000000E+00 -0.74505805969E-08  0.93827000000E+00  0.93827000000E+00 0. -1.
     999902    2    1    2    0    0 -0.85476539983E-02 -0.19373074821E-03  0.21116859573E-01  0.10211479527E+01  0.10208937847E+01 0.  0.
     999903    2    3    3    0    0 -0.33092137853E-01 -0.11084691520E+00  0.63259524136E-01  0.13287853238E+00  0.16516923968E-01 0.  0.
         14    1    1    2    0    0  0.85476539983E-02  0.19373074821E-03 -0.21116859573E-01  0.22782047290E-01  0.00000000000E+00 0.  1.
     999901    1    3    3    0    0  0.24544483855E-01  0.11065318445E+00 -0.42142664562E-01  0.88826942033E+00  0.88000000000E+00 0. -1.
        -11    1    4    4    0    0 -0.14400284929E-01 -0.60427977359E-01  0.25404842783E-01  0.67116136745E-01  0.51100000000E-03 0. -1.
         11    1    4    4    0    0 -0.18691852925E-01 -0.50418937838E-01  0.37854681352E-01  0.65762395636E-01  0.51100000000E-03 0.  1.
</event>
<event>
 8    1  0.1099478E+005  0.1043930E+01  0.7957747E-01            NaN
         13   -1    0    0    0    0  0.00000000000E+00  0.00000000000E+00  0.74505805969E-08  0.10566000000E+00  0.10566000000E+00 0. -1.
     999900   -1    0    0    0    0 -0.00000000000E+00 -0.00000000000E+00 -0.74505805969E-08  0.93827000000E+00  0.93827000000E+00 0.  1.
     999902    2    1    2    0    0  0.19730158889E-01  0.11899108771E-01 -0.52419575318E-04  0.10208893683E+01  0.10206293312E+01 0.  0.
     999903    2    3    3    0    0 -0.75378527650E-02 -0.88253035906E-01 -0.92828349657E-01  0.12994527933E+00  0.20573175488E-01 0.  0.
         14    1    1    2    0    0 -0.19730158889E-01 -0.11899108771E-01  0.52419575318E-04  0.23040631657E-01  0.00000000000E+00 0. -1.
     999901    1    3    3    0    0  0.27268011654E-01  0.10015214468E+00  0.92775930081E-01  0.89094408901E+00  0.88000000000E+00 0. -1.
        -11    1    4    4    0    0 -0.46648945975E-02 -0.48711507320E-01 -0.65619752971E-01  0.81858324488E-01  0.51100000000E-03 0.  1.
         11    1    4    4    0    0 -0.28729581675E-02 -0.39541528585E-01 -0.27208596686E-01  0.48086954843E-01  0.51100000000E-03 0. -1.
</event>
<event>
 8    1  0.1099478E+005  0.1043930E+01  0.7957747E-01            NaN
         13   -1    0    0    0    0  0.00000000000E+00  0.00000000000E+00  0.74505805969E-08  0.10566000000E+00  0.10566000000E+00 0.  1.
     999900   -1    0    0    0    0 -0.00000000000E+00 -0.00000000000E+00 -0.74505805969E-08  0.93827000000E+00  0.93827000000E+00 0.  1.
     999902    2    1    2    0    0  0.20513653307E-01  0.20982017644E-02 -0.98669334474E-02  0.10210702363E+01  0.10208143115E+01 0.  0.
     999903    2    3    3    0    0  0.18823306692E-01 -0.10355911366E+00  0.75087318466E-01  0.13068630194E+00  0.19026224622E-01 0.  0.
         14    1    1    2    0    0 -0.20513653307E-01 -0.20982017644E-02  0.98669334474E-02  0.22859763741E-01  0.00000000000E+00 0.  1.
     999901    1    3    3    0    0  0.16903466156E-02  0.10565731543E+00 -0.84954251913E-01  0.89038393432E+00  0.88000000000E+00 0.  1.
        -11    1    4    4    0    0  0.43073816687E-02 -0.55414870206E-01  0.48676110249E-01  0.73884952506E-01  0.51100000000E-03 0.  1.
         11    1    4    4    0    0  0.14515925023E-01 -0.48144243454E-01  0.26411208216E-01  0.56801349434E-01  0.51100000000E-03 0. -1.
</event>
<event>
 8    1  0.1099478E+005  0.1043930E+01  0.7957747E-01            NaN
         13   -1    0    0    0    0  0.00000000000E+00  0.00000000000E+00  0.74505805969E-08  0.10566000000E+00  0.10566000000E+00 0. -1.
     999900   -1    0    0    0    0 -0.00000000000E+00 -0.00000000000E+00 -0.74505805969E-08  0.93827000000E+00  0.93827000000E+00 0. -1.
     999902    2    1    2    0    0  0.34766118936E-02  0.14523387849E-02  0.23074570802E-01  0.10205498388E+01  0.10202819912E+01 0.  0.
     999903    2    3    3    0    0  0.92086245853E-01 -0.51622189070E-01  0.78125540246E-01  0.13280033477E+00  0.19687605156E-01 0.  0.
         14    1    1    2    0    0 -0.34766118936E-02 -0.14523387849E-02 -0.23074570802E-01  0.23380161161E-01  0.00000000000E+00 0.  1.
     999901    1    3    3    0    0 -0.88609633960E-01  0.53074527855E-01 -0.55050969443E-01  0.88774950407E+00  0.88000000000E+00 0.  1.
        -11    1    4    4    0    0  0.26766615723E-01 -0.13621356980E-01  0.11870436189E-01  0.32298010148E-01  0.51100000000E-03 0.  1.
         11    1    4    4    0    0  0.65319630131E-01 -0.38000832090E-01  0.66255104056E-01  0.10050232462E+00  0.51100000000E-03 0. -1.
</event>
<event>
 8    1  0.1099478E+005  0.1043930E+01  0.7957747E-01            NaN
         13   -1    0    0    0    0  0.00000000000E+00  0.00000000000E+00  0.74505805969E-08  0.10566000000E+00  0.10566000000E+00 0. -1.
     999900   -1    0    0    0    0 -0.00000000000E+00 -0.00000000000E+00 -0.74505805969E-08  0.93827000000E+00  0.93827000000E+00 0. -1.
     999902    2    1    2    0    0  0.14190805393E-02 -0.22983527226E-01 -0.54279113577E-02  0.10202716286E+01  0.10199972930E+01 0.  0.
     999903    2    3    3    0    0  0.87326449242E-01  0.60266045912E-01 -0.70868601302E-01  0.12977005575E+00  0.23664397163E-01 0.  0.
         14    1    1    2    0    0 -0.14190805393E-02  0.22983527226E-01  0.54279113577E-02  0.23658371352E-01  0.00000000000E+00 0. -1.
     999901    1    3    3    0    0 -0.85907368703E-01 -0.83249573138E-01  0.65440689944E-01  0.89050157289E+00  0.88000000000E+00 0.  1.
        -11    1    4    4    0    0  0.84959746057E-01  0.52235417954E-01 -0.68701947068E-01  0.12110704352E+00  0.51100000000E-03 0.  1.
         11    1    4    4    0    0  0.23667031850E-02  0.80306279576E-02 -0.21666542332E-02  0.86630122317E-02  0.51100000000E-03 0. -1.
</event>
<event>
 8    1  0.1099478E+005  0.1043930E+01  0.7957747E-01            NaN
         13   -1    0    0    0    0  0.00000000000E+00  0.00000000000E+00  0.74505805969E-08  0.10566000000E+00  0.10566000000E+00 0. -1.
     999900   -1    0    0    0    0 -0.00000000000E+00 -0.00000000000E+00 -0.74505805969E-08  0.93827000000E+00  0.93827000000E+00 0. -1.
     999902    2    1    2    0    0 -0.13032816269E-01  0.95704803079E-02 -0.16640198789E-01  0.10207277456E+01  0.10204640053E+01 0.  0.
     999903    2    3    3    0    0  0.18536713639E-01 -0.76916910315E-01  0.99228130285E-01  0.12837009666E+00  0.19309040132E-01 0.  0.
         14    1    1    2    0    0  0.13032816269E-01 -0.95704803079E-02  0.16640198789E-01  0.23202254394E-01  0.00000000000E+00 0. -1.
     999901    1    3    3    0    0 -0.31569529908E-01  0.86487390623E-01 -0.11586832907E+00  0.89235764895E+00  0.88000000000E+00 0.  1.
        -11    1    4    4    0    0  0.12896206030E-01 -0.38908423051E-01  0.36938786680E-01  0.55180726678E-01  0.51100000000E-03 0.  1.
         11    1    4    4    0    0  0.56405076091E-02 -0.38008487264E-01  0.62289343605E-01  0.73189369979E-01  0.51100000000E-03 0. -1.
</event>
<event>
 8    1  0.1099478E+005  0.1043930E+01  0.7957747E-01            NaN
         13   -1    0    0    0    0  0.00000000000E+00  0.00000000000E+00  0.74505805969E-08  0.10566000000E+00  0.10566000000E+00 0.  1.
     999900   -1    0    0    0    0 -0.00000000000E+00 -0.00000000000E+00 -0.74505805969E-08  0.93827000000E+00  0.93827000000E+00 0. -1.
     999902    2    1    2    0    0 -0.48455597630E-02 -0.26886783394E-02  0.23566000373E-01  0.10197212244E+01  0.10194338187E+01 0.  0.
     999903    2    3    3    0    0  0.97395426557E-01 -0.81586707826E-01  0.20978169953E-01  0.13029173583E+00  0.19839173440E-01 0.  0.
         14    1    1    2    0    0  0.48455597630E-02  0.26886783394E-02 -0.23566000373E-01  0.24208775562E-01  0.00000000000E+00 0. -1.
     999901    1    3    3    0    0 -0.10224098632E+00  0.78898029487E-01  0.25878304193E-02  0.88942948861E+00  0.88000000000E+00 0. -1.
        -11    1    4    4    0    0  0.29938398991E-01 -0.29846635064E-01 -0.16701803399E-02  0.42310518576E-01  0.51100000000E-03 0.  1.
         11    1    4    4    0    0  0.67457027566E-01 -0.51740072762E-01  0.22648350293E-01  0.87981217254E-01  0.51100000000E-03 0. -1.
</event>
<event>
 8    1  0.1099478E+005  0.1043930E+01  0.7957747E-01            NaN
         13   -1    0    0    0    0  0.00000000000E+00  0.00000000000E+00  0.74505805969E-08  0.10566000000E+00  0.10566000000E+00 0.  1.
     999900   -1    0    0    0    0 -0.00000000000E+00 -0.00000000000E+00 -0.74505805969E-08  0.93827000000E+00  0.93827000000E+00 0.  1.
     999902    2    1    2    0    0  0.12482089905E-01 -0.17413889904E-01 -0.79075565507E-03  0.10224900507E+01  0.10222652456E+01 0.  0.
     999903    2    3    3    0    0  0.10406256018E+00  0.40393784088E-01 -0.69833157136E-01  0.13316695820E+00  0.19902127949E-01 0.  0.
         14    1    1    2    0    0 -0.12482089905E-01  0.17413889904E-01  0.79075565507E-03  0.21439949265E-01  0.00000000000E+00 0.  1.
     999901    1    3    3    0    0 -0.91580470278E-01 -0.57807673992E-01  0.69042401481E-01  0.88932309253E+00  0.88000000000E+00 0. -1.
        -11    1    4    4    0    0  0.48261204008E-01  0.28986933345E-01 -0.37907336890E-01  0.67872037159E-01  0.51100000000E-03 0.  1.
         11    1    4    4    0    0  0.55801356175E-01  0.11406850743E-01 -0.31925820245E-01  0.65294921044E-01  0.51100000000E-03 0. -1.
</event>
<event>
 8    1  0.1099478E+005  0.1043930E+01  0.7957747E-01            NaN
         13   -1    0    0    0    0  0.00000000000E+00  0.00000000000E+00  0.74505805969E-08  0.10566000000E+00  0.10566000000E+00 0. -1.
     999900   -1    0    0    0    0 -0.00000000000E+00 -0.00000000000E+00 -0.74505805969E-08  0.93827000000E+00  0.93827000000E+00 0.  1.
     999902    2    1    2    0    0  0.58990660403E-02 -0.14360838401E-01  0.18113447505E-01  0.10200735619E+01  0.10197945587E+01 0.  0.
     999903    2    3    3    0    0 -0.58667305574E-01 -0.11043892681E+00 -0.33098609523E-01  0.13101648260E+00  0.20765150177E-01 0.  0.
         14    1    1    2    0    0 -0.58990660403E-02  0.14360838401E-01 -0.18113447505E-01  0.23856438130E-01  0.00000000000E+00 0. -1.
     999901    1    3    3    0    0  0.64566371614E-01  0.96078088411E-01  0.51212057028E-01  0.88905707927E+00  0.88000000000E+00 0. -1.
        -11    1    4    4    0    0 -0.21417865459E-01 -0.22679903077E-01 -0.11589149931E-01  0.33281713921E-01  0.51100000000E-03 0.  1.
         11    1    4    4    0    0 -0.37249440114E-01 -0.87759023735E-01 -0.21509459592E-01  0.97734768678E-01  0.51100000000E-03 0. -1.
</event>
<event>
 8    1  0.1099478E+005  0.1043930E+01  0.7957747E-01            NaN
         13   -1    0    0    0    0  0.00000000000E+00  0.00000000000E+00  0.74505805969E-08  0.10566000000E+00  0.10566000000E+00 0.  1.
     999900   -1    0    0    0    0 -0.00000000000E+00 -0.00000000000E+00 -0.74505805969E-08  0.93827000000E+00  0.93827000000E+00 0.  1.
     999902    2    1    2    0    0 -0.86252797773E-02  0.11063263025E-01  0.20135693318E-01  0.10193894746E+01  0.10190940406E+01 0.  0.
     999903    2    3    3    0    0  0.86604710747E-01 -0.78758328606E-01 -0.46014610244E-01  0.12725017380E+00  0.19287615946E-01 0.  0.
         14    1    1    2    0    0  0.86252797773E-02 -0.11063263025E-01 -0.20135693318E-01  0.24540525369E-01  0.00000000000E+00 0. -1.
     999901    1    3    3    0    0 -0.95229990524E-01  0.89821591631E-01  0.66150303562E-01  0.89213930083E+00  0.88000000000E+00 0. -1.
        -11    1    4    4    0    0  0.43234010176E-01 -0.51640737762E-01 -0.29147833405E-01  0.73388028626E-01  0.51100000000E-03 0. -1.
         11    1    4    4    0    0  0.43370700570E-01 -0.27117590844E-01 -0.16866776840E-01  0.53862145177E-01  0.51100000000E-03 0.  1.
</event>
<event>
 8    1  0.1099478E+005  0.1043930E+01  0.7957747E-01            NaN
         13   -1    0    0    0    0  0.00000000000E+00  0.00000000000E+00  0.74505805969E-08  0.10566000000E+00  0.10566000000E+00 0. -1.
     999900   -1    0    0    0    0 -0.00000000000E+00 -0.00000000000E+00 -0.74505805969E-08  0.93827000000E+00  0.93827000000E+00 0. -1.
     999902    2    1    2    0    0 -0.19615123469E-01 -0.99898896270E-02  0.72260136914E-02  0.10207617839E+01  0.10204988257E+01 0.  0.
     999903    2    3    3    0    0 -0.12322034655E+00  0.26701995368E-01 -0.36877749925E-01  0.13282852141E+00  0.19677329591E-01 0.  0.
         14    1    1    2    0    0  0.19615123469E-01  0.99898896270E-02 -0.72260136914E-02  0.23168216102E-01  0.00000000000E+00 0.  1.
     999901    1    3    3    0    0  0.10360522308E+00 -0.36691884995E-01  0.44103763617E-01  0.88793326249E+00  0.88000000000E+00 0.  1.
        -11    1    4    4    0    0 -0.75743449796E-01  0.21671949274E-01 -0.31236951420E-01  0.84751116968E-01  0.51100000000E-03 0. -1.
         11    1    4    4    0    0 -0.47476896751E-01  0.50300460935E-02 -0.56407985059E-02  0.48077404439E-01  0.51100000000E-03 0.  1.
</event>
<event>
 8    1  0.1099478E+005  0.1043930E+01  0.7957747E-01            NaN
         13   -1    0    0    0    0  0.00000000000E+00  0.00000000000E+00  0.74505805969E-08  0.10566000000E+00  0.10566000000E+00 0. -1.
     999900   -1    0    0    0    0 -0.00000000000E+00 -0.00000000000E+00 -0.74505805969E-08  0.93827000000E+00  0.93827000000E+00 0.  1.
     999902    2    1    2    0    0 -0.12674718752E-01 -0.16726993978E-01  0.11516159167E-01  0.10199912710E+01  0.10197103168E+01 0.  0.
     999903    2    3    3    0    0 -0.73229308138E-01 -0.51733028582E-01 -0.93283977499E-01  0.13101694665E+00  0.20608300140E-01 0.  0.
         14    1    1    2    0    0  0.12674718752E-01  0.16726993978E-01 -0.11516159167E-01  0.23938728975E-01  0.00000000000E+00 0.  1.
     999901    1    3    3    0    0  0.60554589386E-01  0.35006034604E-01  0.10480013667E+00  0.88897432438E+00  0.88000000000E+00 0. -1.
        -11    1    4    4    0    0 -0.29596850302E-01 -0.18955246908E-01 -0.22893651691E-01  0.41948245993E-01  0.51100000000E-03 0. -1.
         11    1    4    4    0    0 -0.43632457836E-01 -0.32777781674E-01 -0.70390325807E-01  0.89068700656E-01  0.51100000000E-03 0.  1.
</event>
<event>
 8    1  0.1099478E+005  0.1043930E+01  0.7957747E-01            NaN
         13   -1    0    0    0    0  0.00000000000E+00  0.00000000000E+00  0.74505805969E-08  0.10566000000E+00  0.10566000000E+00 0. -1.
     999900   -1    0    0    0    0 -0.00000000000E+00 -0.00000000000E+00 -0.74505805969E-08  0.93827000000E+00  0.93827000000E+00 0.  1.
     999902    2    1    2    0    0 -0.73856977037E-02 -0.15798368658E-01 -0.16278762040E-01  0.10200734479E+01  0.10197944421E+01 0.  0.
     999903    2    3    3    0    0  0.71117125430E-01  0.64260718196E-02 -0.10962908394E+00  0.13138289347E+00  0.11999530175E-01 0.  0.
         14    1    1    2    0    0  0.73856977037E-02  0.15798368658E-01  0.16278762040E-01  0.23856552064E-01  0.00000000000E+00 0. -1.
     999901    1    3    3    0    0 -0.78502823134E-01 -0.22224440477E-01  0.93350321896E-01  0.88869055446E+00  0.88000000000E+00 0. -1.
        -11    1    4    4    0    0  0.47094682727E-01  0.93497954546E-02 -0.68345137669E-01  0.83526323876E-01  0.51100000000E-03 0.  1.
         11    1    4    4    0    0  0.24022442703E-01 -0.29237236350E-02 -0.41283946266E-01  0.47856569597E-01  0.51100000000E-03 0. -1.
</event>
<event>
 8    1  0.1099478E+005  0.1043930E+01  0.7957747E-01            NaN
         13   -1    0    0    0    0  0.00000000000E+00  0.00000000000E+00  0.74505805969E-08  0.10566000000E+00  0.10566000000E+00 0. -1.
     999900   -1    0    0    0    0 -0.00000000000E+00 -0.00000000000E+00 -0.74505805969E-08  0.93827000000E+00  0.93827000000E+00 0.  1.
     999902    2    1    2    0    0 -0.13647666363E-01  0.16802516116E-01 -0.93946954333E-02  0.10203324652E+01  0.10200595551E+01 0.  0.
     999903    2    3    3    0    0 -0.83584516874E-01 -0.95395139161E-01 -0.22785318857E-01  0.13035561963E+00  0.19667556445E-01 0.  0.
         14    1    1    2    0    0  0.13647666363E-01 -0.16802516116E-01  0.93946954333E-02  0.23597534771E-01  0.00000000000E+00 0.  1.
     999901    1    3    3    0    0  0.69936850511E-01  0.11219765528E+00  0.13390623424E-01  0.88997684560E+00  0.88000000000E+00 0. -1.
        -11    1    4    4    0    0 -0.15302545521E-01 -0.23609568290E-01 -0.12356971978E-01  0.30733296142E-01  0.51100000000E-03 0. -1.
         11    1    4    4    0    0 -0.68281971353E-01 -0.71785570871E-01 -0.10428346879E-01  0.99622323486E-01  0.51100000000E-03 0.  1.
</event>
<event>
 8    1  0.1099478E+005  0.1043930E+01  0.7957747E-01            NaN
         13   -1    0    0    0    0  0.00000000000E+00  0.00000000000E+00  0.74505805969E-08  0.10566000000E+00  0.10566000000E+00 0.  1.
     999900   -1    0    0    0    0 -0.00000000000E+00 -0.00000000000E+00 -0.74505805969E-08  0.93827000000E+00  0.93827000000E+00 0.  1.
     999902    2    1    2    0    0  0.19089749137E-01  0.12678675661E-01  0.59897029238E-02  0.10202436352E+01  0.10199686423E+01 0.  0.
     999903    2    3    3    0    0  0.12194007233E+00 -0.34401852174E-01  0.34414219107E-01  0.13254846326E+00  0.18217792464E-01 0.  0.
         14    1    1    2    0    0 -0.19089749137E-01 -0.12678675661E-01 -0.59897029238E-02  0.23686364849E-01  0.00000000000E+00 0.  1.
     999901    1    3    3    0    0 -0.10285032319E+00  0.47080527835E-01 -0.28424516183E-01  0.88769517189E+00  0.88000000000E+00 0.  1.
        -11    1    4    4    0    0  0.69151520173E-01 -0.22112295677E-01  0.28608258852E-01  0.78035760763E-01  0.51100000000E-03 0. -1.
         11    1    4    4    0    0  0.52788552158E-01 -0.12289556497E-01  0.58059602551E-02  0.54512702495E-01  0.51100000000E-03 0.  1.
</event>
<event>
 8    1  0.1476816E+005  0.1043930E+01  0.7957747E-01            NaN
         13   -1    0    0    0    0  0.00000000000E+00  0.00000000000E+00  0.74505805969E-08  0.10566000000E+00  0.10566000000E+00 0. -1.
     999900   -1    0    0    0    0 -0.00000000000E+00 -0.00000000000E+00 -0.74505805969E-08  0.93827000000E+00  0.93827000000E+00 0. -1.
     999902    2    1    2    0    0  0.15604707275E-01  0.10872425605E-01  0.28758223480E-01  0.10094517178E+01  0.10088627352E+01 0.  0.
     999903    2    3    3    0    0  0.65102771561E-02 -0.50795357354E-01  0.11053510971E+00  0.12346465058E+00  0.20073799500E-01 0.  0.
         14    1    1    2    0    0 -0.15604707275E-01 -0.10872425605E-01 -0.28758223480E-01  0.34478282228E-01  0.00000000000E+00 0.  1.
     999901    1    3    3    0    0  0.90944301187E-02  0.61667782959E-01 -0.81776886229E-01  0.88598706719E+00  0.88000000000E+00 0. -1.
        -11    1    4    4    0    0 -0.72152766266E-02 -0.19831250115E-01  0.40760947532E-01  0.45902665093E-01  0.51100000000E-03 0.  1.
         11    1    4    4    0    0  0.13725553783E-01 -0.30964107239E-01  0.69774162177E-01  0.77561985485E-01  0.51100000000E-03 0. -1.
</event>
<event>
 8    1  0.1099478E+005  0.1043930E+01  0.7957747E-01            NaN
         13   -1    0    0    0    0  0.00000000000E+00  0.00000000000E+00  0.74505805969E-08  0.10566000000E+00  0.10566000000E+00 0.  1.
     999900   -1    0    0    0    0 -0.00000000000E+00 -0.00000000000E+00 -0.74505805969E-08  0.93827000000E+00  0.93827000000E+00 0.  1.
     999902    2    1    2    0    0  0.19997266345E-01 -0.43974371277E-03 -0.11282070457E-01  0.10209654806E+01  0.10207071781E+01 0.  0.
     999903    2    3    3    0    0  0.27627760072E-01  0.71725806461E-01 -0.10671268952E+00  0.13283649557E+00  0.18709676914E-01 0.  0.
         14    1    1    2    0    0 -0.19997266345E-01  0.43974371277E-03  0.11282070457E-01  0.22964519363E-01  0.00000000000E+00 0. -1.
     999901    1    3    3    0    0 -0.76304937278E-02 -0.72165550174E-01  0.95430619065E-01  0.88812898507E+00  0.88000000000E+00 0. -1.
        -11    1    4    4    0    0  0.14272875943E-01  0.15647785781E-01 -0.23955429188E-01  0.31979554345E-01  0.51100000000E-03 0.  1.
         11    1    4    4    0    0  0.13354884129E-01  0.56078020680E-01 -0.82757260334E-01  0.10085694122E+00  0.51100000000E-03 0. -1.
</event>
<event>
 8    1  0.1099478E+005  0.1043930E+01  0.7957747E-01            NaN
         13   -1    0    0    0    0  0.00000000000E+00  0.00000000000E+00  0.74505805969E-08  0.10566000000E+00  0.10566000000E+00 0.  1.
     999900   -1    0    0    0    0 -0.00000000000E+00 -0.00000000000E+00 -0.74505805969E-08  0.93827000000E+00  0.93827000000E+00 0. -1.
     999902    2    1    2    0    0  0.23082583603E-01  0.81810575116E-02  0.74493026111E-03  0.10194291778E+01  0.10191347105E+01 0.  0.
     999903    2    3    3    0    0 -0.53337901600E-02 -0.12684906065E+00  0.55353614865E-02  0.12866345588E+00  0.20112462460E-01 0.  0.
         14    1    1    2    0    0 -0.23082583603E-01 -0.81810575116E-02 -0.74493026111E-03  0.24500822209E-01  0.00000000000E+00 0.  1.
     999901    1    3    3    0    0  0.28416373763E-01  0.13503011816E+00 -0.47904312254E-02  0.89076572192E+00  0.88000000000E+00 0.  1.
        -11    1    4    4    0    0 -0.12104740322E-01 -0.56051397713E-01  0.46696270264E-02  0.57535645137E-01  0.51100000000E-03 0.  1.
         11    1    4    4    0    0  0.67709501622E-02 -0.70797662936E-01  0.86573446012E-03  0.71127810738E-01  0.51100000000E-03 0. -1.
</event>
<event>
 8    1  0.1099478E+005  0.1043930E+01  0.7957747E-01            NaN
         13   -1    0    0    0    0  0.00000000000E+00  0.00000000000E+00  0.74505805969E-08  0.10566000000E+00  0.10566000000E+00 0.  1.
     999900   -1    0    0    0    0 -0.00000000000E+00 -0.00000000000E+00 -0.74505805969E-08  0.93827000000E+00  0.93827000000E+00 0.  1.
     999902    2    1    2    0    0  0.13563108618E-01 -0.20283644870E-01 -0.27814151909E-02  0.10193714896E+01  0.10190756171E+01 0.  0.
     999903    2    3    3    0    0  0.37803454049E-01 -0.83868903329E-02 -0.12430392058E+00  0.13061007814E+00  0.10396478869E-01 0.  0.
         14    1    1    2    0    0 -0.13563108618E-01  0.20283644870E-01  0.27814151909E-02  0.24558510440E-01  0.00000000000E+00 0.  1.
     999901    1    3    3    0    0 -0.24240345431E-01 -0.11896754537E-01  0.12152250539E+00  0.88876141142E+00  0.88000000000E+00 0. -1.
        -11    1    4    4    0    0  0.45321508223E-02 -0.42531549803E-02 -0.14091156715E-01  0.15409462578E-01  0.51100000000E-03 0.  1.
         11    1    4    4    0    0  0.33271303227E-01 -0.41337353526E-02 -0.11021276386E+00  0.11520061556E+00  0.51100000000E-03 0. -1.
</event>
<event>
 8    1  0.1099478E+005  0.1043930E+01  0.7957747E-01            NaN
         13   -1    0    0    0    0  0.00000000000E+00  0.00000000000E+00  0.74505805969E-08  0.10566000000E+00  0.10566000000E+00 0. -1.
     999900   -1    0    0    0    0 -0.00000000000E+00 -0.00000000000E+00 -0.74505805969E-08  0.93827000000E+00  0.93827000000E+00 0.  1.
     999902    2    1    2    0    0  0.23041930445E-01 -0.75047695163E-03  0.56468806335E-02  0.10201943510E+01  0.10199181990E+01 0.  0.
     999903    2    3    3    0    0  0.15427692443E-01  0.70058563982E-01  0.10828874712E+00  0.13137083099E+00  0.19637372543E-01 0.  0.
         14    1    1    2    0    0 -0.23041930445E-01  0.75047695163E-03 -0.56468806335E-02  0.23735649036E-01  0.00000000000E+00 0. -1.
     999901    1    3    3    0    0  0.76142380022E-02 -0.70809040933E-01 -0.10264186649E+00  0.88882351997E+00  0.88000000000E+00 0.  1.
        -11    1    4    4    0    0  0.15333490784E-02  0.31185299154E-01  0.32525812942E-01  0.45089507331E-01  0.51100000000E-03 0. -1.
         11    1    4    4    0    0  0.13894343364E-01  0.38873264827E-01  0.75762934182E-01  0.86281323662E-01  0.51100000000E-03 0.  1.
</event>
<event>
 8    1  0.1099478E+005  0.1043930E+01  0.7957747E-01            NaN
         13   -1    0    0    0    0  0.00000000000E+00  0.00000000000E+00  0.74505805969E-08  0.10566000000E+00  0.10566000000E+00 0. -1.
     999900   -1    0    0    0    0 -0.00000000000E+00 -0.00000000000E+00 -0.74505805969E-08  0.93827000000E+00  0.93827000000E+00 0.  1.
     999902    2    1    2    0    0  0.87554046045E-02 -0.19299612670E-01 -0.97236379808E-02  0.10206130256E+01  0.10203466405E+01 0.  0.
     999903    2    3    3    0    0  0.10291277625E+00 -0.35398564670E-01 -0.74108248908E-01  0.13310518620E+00  0.19515638376E-01 0.  0.
         14    1    1    2    0    0 -0.87554046045E-02  0.19299612670E-01  0.97236379808E-02  0.23316974387E-01  0.00000000000E+00 0.  1.
     999901    1    3    3    0    0 -0.94157371647E-01  0.16098952001E-01  0.64384610928E-01  0.88750783941E+00  0.88000000000E+00 0. -1.
        -11    1    4    4    0    0  0.72315792944E-01 -0.29115302845E-01 -0.43056877278E-01  0.89058579434E-01  0.51100000000E-03 0.  1.
         11    1    4    4    0    0  0.30596983308E-01 -0.62832618251E-02 -0.31051371630E-01  0.44046606769E-01  0.51100000000E-03 0. -1.
</event>
<event>
 8    1  0.1099478E+005  0.1043930E+01  0.7957747E-01            NaN
         13   -1    0    0    0    0  0.00000000000E+00  0.00000000000E+00  0.74505805969E-08  0.10566000000E+00  0.10566000000E+00 0.  1.
     999900   -1    0    0    0    0 -0.00000000000E+00 -0.00000000000E+00 -0.74505805969E-08  0.93827000000E+00  0.93827000000E+00 0. -1.
     999902    2    1    2    0    0  0.12041266099E-01  0.18223810176E-01 -0.13835147356E-01  0.10180744271E+01  0.10177460531E+01 0.  0.
     999903    2    3    3    0    0  0.90919121351E-01  0.32468282220E-01 -0.86682785742E-01  0.13143391403E+00  0.20987911664E-01 0.  0.
         14    1    1    2    0    0 -0.12041266099E-01 -0.18223810176E-01  0.13835147356E-01  0.25855572880E-01  0.00000000000E+00 0.  1.
     999901    1    3    3    0    0 -0.78877855253E-01 -0.14244472044E-01  0.72847638386E-01  0.88664051309E+00  0.88000000000E+00 0.  1.
        -11    1    4    4    0    0  0.81804383730E-01  0.35479189852E-01 -0.77523031616E-01  0.11815587866E+00  0.51100000000E-03 0.  1.
         11    1    4    4    0    0  0.91147376209E-02 -0.30109076321E-02 -0.91597541259E-02  0.13278035371E-01  0.51100000000E-03 0. -1.
</event>
<event>
 8    1  0.1099478E+005  0.1043930E+01  0.7957747E-01            NaN
         13   -1    0    0    0    0  0.00000000000E+00  0.00000000000E+00  0.74505805969E-08  0.10566000000E+00  0.10566000000E+00 0.  1.
     999900   -1    0    0    0    0 -0.00000000000E+00 -0.00000000000E+00 -0.74505805969E-08  0.93827000000E+00  0.93827000000E+00 0.  1.
     999902    2    1    2    0    0 -0.18958369975E-01  0.31242617102E-02  0.14093077787E-01  0.10201015371E+01  0.10198231956E+01 0.  0.
     999903    2    3    3    0    0 -0.97110803941E-01 -0.88247701001E-02  0.88777728989E-01  0.13340633612E+00  0.20183670196E-01 0.  0.
         14    1    1    2    0    0  0.18958369975E-01 -0.31242617102E-02 -0.14093077787E-01  0.23828462914E-01  0.00000000000E+00 0. -1.
     999901    1    3    3    0    0  0.78152433966E-01  0.11949031810E-01 -0.74684651202E-01  0.88669520097E+00  0.88000000000E+00 0.  1.
        -11    1    4    4    0    0 -0.85884582657E-01 -0.11956263182E-01  0.84219810519E-01  0.12088155927E+00  0.51100000000E-03 0. -1.
         11    1    4    4    0    0 -0.11226221283E-01  0.31314930815E-02  0.45579184700E-02  0.12524776844E-01  0.51100000000E-03 0.  1.
</event>
<event>
 8    1  0.1099478E+005  0.1043930E+01  0.7957747E-01            NaN
         13   -1    0    0    0    0  0.00000000000E+00  0.00000000000E+00  0.74505805969E-08  0.10566000000E+00  0.10566000000E+00 0. -1.
     999900   -1    0    0    0    0 -0.00000000000E+00 -0.00000000000E+00 -0.74505805969E-08  0.93827000000E+00  0.93827000000E+00 0.  1.
     999902    2    1    2    0    0  0.23303511252E-02 -0.23052709501E-01 -0.38022920576E-02  0.10204498940E+01  0.10201797248E+01 0.  0.
     999903    2    3    3    0    0 -0.11017748822E+00 -0.42611270559E-02  0.66654851935E-01  0.13029521835E+00  0.19409753352E-01 0.  0.
         14    1    1    2    0    0 -0.23303511252E-02  0.23052709501E-01  0.38022920576E-02  0.23480105975E-01  0.00000000000E+00 0.  1.
     999901    1    3    3    0    0  0.11250783934E+00 -0.18791582445E-01 -0.70457143993E-01  0.89015467567E+00  0.88000000000E+00 0.  1.
        -11    1    4    4    0    0 -0.92149073518E-02 -0.59305787507E-02  0.60939902258E-02  0.12549267695E-01  0.51100000000E-03 0.  1.
         11    1    4    4    0    0 -0.10096258087E+00  0.16694516948E-02  0.60560861709E-01  0.11774595066E+00  0.51100000000E-03 0. -1.
</event>
<event>
 8    1  0.1099478E+005  0.1043930E+01  0.7957747E-01            NaN
         13   -1    0    0    0    0  0.00000000000E+00  0.00000000000E+00  0.74505805969E-08  0.10566000000E+00  0.10566000000E+00 0.  1.
     999900   -1    0    0    0    0 -0.00000000000E+00 -0.00000000000E+00 -0.74505805969E-08  0.93827000000E+00  0.93827000000E+00 0. -1.
     999902    2    1    2    0    0  0.14434027013E-01 -0.18741835842E-01  0.32588200109E-02  0.10200507736E+01  0.10197712308E+01 0.  0.
     999903    2    3    3    0    0 -0.42881244442E-01 -0.12269148136E+00 -0.11235382290E-01  0.13196257354E+00  0.19896891179E-01 0.  0.
         14    1    1    2    0    0 -0.14434027013E-01  0.18741835842E-01 -0.32588200109E-02  0.23879226420E-01  0.00000000000E+00 0. -1.
     999901    1    3    3    0    0  0.57315271455E-01  0.10394964551E+00  0.14494202301E-01  0.88808820004E+00  0.88000000000E+00 0. -1.
        -11    1    4    4    0    0 -0.20063388642E-01 -0.41665922865E-01 -0.12004625358E-01  0.47780339502E-01  0.51100000000E-03 0.  1.
         11    1    4    4    0    0 -0.22817855800E-01 -0.81025558492E-01  0.76924306786E-03  0.84182234041E-01  0.51100000000E-03 0. -1.
</event>
<event>
 8    1  0.1099478E+005  0.1043930E+01  0.7957747E-01            NaN
         13   -1    0    0    0    0  0.00000000000E+00  0.00000000000E+00  0.74505805969E-08  0.10566000000E+00  0.10566000000E+00 0. -1.
     999900   -1    0    0    0    0 -0.00000000000E+00 -0.00000000000E+00 -0.74505805969E-08  0.93827000000E+00  0.93827000000E+00 0.  1.
     999902    2    1    2    0    0 -0.17239751591E-01  0.15425082436E-01 -0.37955205380E-02  0.10204875560E+01  0.10202182628E+01 0.  0.
     999903    2    3    3    0    0  0.23019640831E-01  0.12584381971E+00 -0.28570019383E-01  0.13232828427E+00  0.18109610330E-01 0.  0.
         14    1    1    2    0    0  0.17239751591E-01 -0.15425082436E-01  0.37955205380E-02  0.23442443969E-01  0.00000000000E+00 0.  1.
     999901    1    3    3    0    0 -0.40259392422E-01 -0.11041873728E+00  0.24774498845E-01  0.88815927176E+00  0.88000000000E+00 0. -1.
        -11    1    4    4    0    0  0.10057784147E-01  0.78985352376E-01 -0.98651761886E-02  0.80233582334E-01  0.51100000000E-03 0. -1.
         11    1    4    4    0    0  0.12961856684E-01  0.46858467338E-01 -0.18704843195E-01  0.52094701937E-01  0.51100000000E-03 0.  1.
</event>
<event>
 8    1  0.1099478E+005  0.1043930E+01  0.7957747E-01            NaN
         13   -1    0    0    0    0  0.00000000000E+00  0.00000000000E+00  0.74505805969E-08  0.10566000000E+00  0.10566000000E+00 0. -1.
     999900   -1    0    0    0    0 -0.00000000000E+00 -0.00000000000E+00 -0.74505805969E-08  0.93827000000E+00  0.93827000000E+00 0.  1.
     999902    2    1    2    0    0 -0.69411459773E-02  0.13193343192E-01 -0.18047202191E-01  0.10205217681E+01  0.10202532695E+01 0.  0.
     999903    2    3    3    0    0  0.41170850223E-01  0.11301313060E+00  0.48483423130E-01  0.13108088857E+00  0.19093203838E-01 0.  0.
         14    1    1    2    0    0  0.69411459773E-02 -0.13193343192E-01  0.18047202191E-01  0.23408231864E-01  0.00000000000E+00 0. -1.
     999901    1    3    3    0    0 -0.48111996200E-01 -0.99819787413E-01 -0.66530625321E-01  0.88944087957E+00  0.88000000000E+00 0.  1.
        -11    1    4    4    0    0  0.28000333705E-01  0.65473037436E-01  0.19373033367E-01  0.73799138623E-01  0.51100000000E-03 0.  1.
         11    1    4    4    0    0  0.13170516518E-01  0.47540093169E-01  0.29110389763E-01  0.57281749947E-01  0.51100000000E-03 0. -1.
</event>
<event>
 8    1  0.1099478E+005  0.1043930E+01  0.7957747E-01            NaN
         13   -1    0    0    0    0  0.00000000000E+00  0.00000000000E+00  0.74505805969E-08  0.10566000000E+00  0.10566000000E+00 0.  1.
     999900   -1    0    0    0    0 -0.00000000000E+00 -0.00000000000E+00 -0.74505805969E-08  0.93827000000E+00  0.93827000000E+00 0. -1.
     999902    2    1    2    0    0 -0.83610407435E-02 -0.53732781278E-02 -0.21361315341E-01  0.10203697599E+01  0.10200977218E+01 0.  0.
     999903    2    3    3    0    0 -0.40792250911E-01  0.68853931202E-01 -0.10402853243E+00  0.13279140800E+00  0.20168066384E-01 0.  0.
         14    1    1    2    0    0  0.83610407435E-02  0.53732781278E-02  0.21361315341E-01  0.23560240093E-01  0.00000000000E+00 0.  1.
     999901    1    3    3    0    0  0.32431210167E-01 -0.74227209330E-01  0.82667217090E-01  0.88757835191E+00  0.88000000000E+00 0.  1.
        -11    1    4    4    0    0 -0.35726289954E-01  0.59182713556E-01 -0.76163988897E-01  0.10285998106E+00  0.51100000000E-03 0.  1.
         11    1    4    4    0    0 -0.50659609569E-02  0.96712176456E-02 -0.27864543534E-01  0.29931426938E-01  0.51100000000E-03 0. -1.
</event>
<event>
 8    1  0.1099478E+005  0.1043930E+01  0.7957747E-01            NaN
         13   -1    0    0    0    0  0.00000000000E+00  0.00000000000E+00  0.74505805969E-08  0.10566000000E+00  0.10566000000E+00 0.  1.
     999900   -1    0    0    0    0 -0.00000000000E+00 -0.00000000000E+00 -0.74505805969E-08  0.93827000000E+00  0.93827000000E+00 0. -1.
     999902    2    1    2    0    0  0.31731183936E-05  0.23878085553E-01 -0.42487066597E-02  0.10196768664E+01  0.10193883938E+01 0.  0.
     999903    2    3    3    0    0 -0.95437825318E-01  0.87955322524E-01 -0.15097318038E-01  0.13213387094E+00  0.19670118835E-01 0.  0.
         14    1    1    2    0    0 -0.31731183936E-05 -0.23878085553E-01  0.42487066597E-02  0.24253133571E-01  0.00000000000E+00 0.  1.
     999901    1    3    3    0    0  0.95440998436E-01 -0.64077236971E-01  0.10848611378E-01  0.88754299549E+00  0.88000000000E+00 0. -1.
        -11    1    4    4    0    0 -0.25045251913E-01  0.31129051640E-01  0.22371591816E-02  0.40019351589E-01  0.51100000000E-03 0. -1.
         11    1    4    4    0    0 -0.70392573404E-01  0.56826270883E-01 -0.17334477219E-01  0.92114519347E-01  0.51100000000E-03 0.  1.
</event>
<event>
 8    1  0.1099478E+005  0.1043930E+01  0.7957747E-01            NaN
         13   -1    0    0    0    0  0.00000000000E+00  0.00000000000E+00  0.74505805969E-08  0.10566000000E+00  0.10566000000E+00 0. -1.
     999900   -1    0    0    0    0 -0.00000000000E+00 -0.00000000000E+00 -0.74505805969E-08  0.93827000000E+00  0.93827000000E+00 0. -1.
     999902    2    1    2    0    0  0.77072698020E-02 -0.22828608027E-01 -0.61180739189E-02  0.10190708331E+01  0.10187675813E+01 0.  0.
     999903    2    3    3    0    0  0.75008672486E-01 -0.70628451531E-01 -0.80106641160E-01  0.13211614881E+00  0.20565108901E-01 0.  0.
         14    1    1    2    0    0 -0.77072698020E-02  0.22828608027E-01  0.61180739189E-02  0.24859166936E-01  0.00000000000E+00 0. -1.
     999901    1    3    3    0    0 -0.67301402684E-01  0.47799843504E-01  0.73988567241E-01  0.88695468426E+00  0.88000000000E+00 0.  1.
        -11    1    4    4    0    0  0.34107990349E-01 -0.37349963317E-01 -0.51237801707E-01  0.71999640347E-01  0.51100000000E-03 0. -1.
         11    1    4    4    0    0  0.40900682137E-01 -0.33278488214E-01 -0.28868839453E-01  0.60116508460E-01  0.51100000000E-03 0.  1.
</event>
<event>
 8    1  0.1099478E+005  0.1043930E+01  0.7957747E-01            NaN
         13   -1    0    0    0    0  0.00000000000E+00  0.00000000000E+00  0.74505805969E-08  0.10566000000E+00  0.10566000000E+00 0. -1.
     999900   -1    0    0    0    0 -0.00000000000E+00 -0.00000000000E+00 -0.74505805969E-08  0.93827000000E+00  0.93827000000E+00 0. -1.
     999902    2    1    2    0    0 -0.22423169734E-01  0.25195195212E-02 -0.47357743515E-02  0.10208741097E+01  0.10206137241E+01 0.  0.
     999903    2    3    3    0    0  0.10693479358E+00 -0.41655220623E-01 -0.55296753225E-01  0.12888683235E+00  0.19592783190E-01 0.  0.
         14    1    1    2    0    0  0.22423169734E-01 -0.25195195212E-02  0.47357743515E-02  0.23055890315E-01  0.00000000000E+00 0. -1.
     999901    1    3    3    0    0 -0.12935796331E+00  0.44174740144E-01  0.50560978873E-01  0.89198727733E+00  0.88000000000E+00 0. -1.
        -11    1    4    4    0    0  0.11565975329E-01 -0.74207901490E-02 -0.13518690657E-01  0.19283568908E-01  0.51100000000E-03 0. -1.
         11    1    4    4    0    0  0.95368818251E-01 -0.34234430474E-01 -0.41778062568E-01  0.10960326344E+00  0.51100000000E-03 0.  1.
</event>
<event>
 8    1  0.1099478E+005  0.1043930E+01  0.7957747E-01            NaN
         13   -1    0    0    0    0  0.00000000000E+00  0.00000000000E+00  0.74505805969E-08  0.10566000000E+00  0.10566000000E+00 0. -1.
     999900   -1    0    0    0    0 -0.00000000000E+00 -0.00000000000E+00 -0.74505805969E-08  0.93827000000E+00  0.93827000000E+00 0. -1.
     999902    2    1    2    0    0 -0.11168087568E-01  0.75777118279E-02 -0.19398039930E-01  0.10202988373E+01  0.10200251397E+01 0.  0.
     999903    2    3    3    0    0 -0.83980817541E-01  0.90068925722E-01 -0.45995867965E-01  0.13304806191E+00  0.20517743825E-01 0.  0.
         14    1    1    2    0    0  0.11168087568E-01 -0.75777118279E-02  0.19398039930E-01  0.23631162680E-01  0.00000000000E+00 0. -1.
     999901    1    3    3    0    0  0.72812729973E-01 -0.82491213894E-01  0.26597828034E-01  0.88725077541E+00  0.88000000000E+00 0. -1.
        -11    1    4    4    0    0 -0.38707481128E-01  0.56439914169E-01 -0.25857711385E-01  0.73161570279E-01  0.51100000000E-03 0.  1.
         11    1    4    4    0    0 -0.45273336412E-01  0.33629011553E-01 -0.20138156580E-01  0.59886491627E-01  0.51100000000E-03 0. -1.
</event>
<event>
 8    1  0.1099478E+005  0.1043930E+01  0.7957747E-01            NaN
         13   -1    0    0    0    0  0.00000000000E+00  0.00000000000E+00  0.74505805969E-08  0.10566000000E+00  0.10566000000E+00 0. -1.
     999900   -1    0    0    0    0 -0.00000000000E+00 -0.00000000000E+00 -0.74505805969E-08  0.93827000000E+00  0.93827000000E+00 0. -1.
     999902    2    1    2    0    0 -0.15613585641E-01 -0.13872807607E-01 -0.11195105716E-01  0.10202325478E+01  0.10199572944E+01 0.  0.
     999903    2    3    3    0    0 -0.46010092962E-01 -0.97976533476E-01  0.72437465333E-01  0.13175531610E+00  0.19898421287E-01 0.  0.
         14    1    1    2    0    0  0.15613585641E-01  0.13872807607E-01  0.11195105716E-01  0.23697452173E-01  0.00000000000E+00 0.  1.
     999901    1    3    3    0    0  0.30396507321E-01  0.84103725869E-01 -0.83632571049E-01  0.88847723173E+00  0.88000000000E+00 0. -1.
        -11    1    4    4    0    0 -0.26786500736E-01 -0.47462781423E-01  0.47216048339E-01  0.72109975620E-01  0.51100000000E-03 0.  1.
         11    1    4    4    0    0 -0.19223592226E-01 -0.50513752053E-01  0.25221416994E-01  0.59645340477E-01  0.51100000000E-03 0. -1.
</event>
<event>
 7    1  0.1099478E+005  0.1043930E+01  0.7957747E-01            NaN
         13   -1    0    0    0    0  0.00000000000E+00  0.00000000000E+00  0.74505805969E-08  0.10566000000E+00  0.10566000000E+00 0. -1.
     999900   -1    0    0    0    0 -0.00000000000E+00 -0.00000000000E+00 -0.74505805969E-08  0.93827000000E+00  0.93827000000E+00 0.  1.
     999902    2    1    2    0    0  0.15660426588E-01 -0.16038755951E-01  0.86110289610E-02  0.10199166605E+01  0.10196339313E+01 0.  0.
         14    1    1    2    0    0 -0.15660426588E-01  0.16038755951E-01 -0.86110289610E-02  0.24013339483E-01  0.00000000000E+00 0. -1.
     999901    1    3    3    0    0 -0.29822215398E-01  0.10356564090E+00 -0.91048170873E-03  0.88657545391E+00  0.88000000000E+00 0. -1.
        -11    1    3    3    0    0  0.34781368920E-01 -0.43731181998E-01 -0.16630895401E-02  0.55903371014E-01  0.51100000000E-03 0. -1.
         11    1    3    3    0    0  0.10701273066E-01 -0.75873214856E-01  0.11184600210E-01  0.77437835589E-01  0.51100000000E-03 0.  1.
</event>
<event>
 8    1  0.1099478E+005  0.1043930E+01  0.7957747E-01            NaN
         13   -1    0    0    0    0  0.00000000000E+00  0.00000000000E+00  0.74505805969E-08  0.10566000000E+00  0.10566000000E+00 0. -1.
     999900   -1    0    0    0    0 -0.00000000000E+00 -0.00000000000E+00 -0.74505805969E-08  0.93827000000E+00  0.93827000000E+00 0. -1.
     999902    2    1    2    0    0  0.17016769865E-02 -0.23477927803E-01  0.63420198934E-03  0.10203819425E+01  0.10201101890E+01 0.  0.
     999903    2    3    3    0    0  0.78998998997E-01  0.27038241499E-01  0.97948615146E-01  0.13021518604E+00  0.19752344680E-01 0.  0.
         14    1    1    2    0    0 -0.17016769865E-02  0.23477927803E-01 -0.63420198934E-03  0.23548057471E-01  0.00000000000E+00 0.  1.
     999901    1    3    3    0    0 -0.77297322011E-01 -0.50516169302E-01 -0.97314413157E-01  0.89016675649E+00  0.88000000000E+00 0. -1.
        -11    1    4    4    0    0  0.38716555724E-01  0.93101116525E-02  0.60475084480E-01  0.72409576922E-01  0.51100000000E-03 0.  1.
         11    1    4    4    0    0  0.40282443273E-01  0.17728129846E-01  0.37473530666E-01  0.57805609117E-01  0.51100000000E-03 0. -1.
</event>
<event>
 8    1  0.1099478E+005  0.1043930E+01  0.7957747E-01            NaN
         13   -1    0    0    0    0  0.00000000000E+00  0.00000000000E+00  0.74505805969E-08  0.10566000000E+00  0.10566000000E+00 0.  1.
     999900   -1    0    0    0    0 -0.00000000000E+00 -0.00000000000E+00 -0.74505805969E-08  0.93827000000E+00  0.93827000000E+00 0.  1.
     999902    2    1    2    0    0  0.19841703546E-01 -0.11735371874E-01 -0.58940255167E-02  0.10201360577E+01  0.10198585316E+01 0.  0.
     999903    2    3    3    0    0 -0.13862347112E-01  0.12125175334E+00  0.35302503798E-01  0.12855392884E+00  0.19639080699E-01 0.  0.
         14    1    1    2    0    0 -0.19841703546E-01  0.11735371874E-01  0.58940255167E-02  0.23793942285E-01  0.00000000000E+00 0. -1.
     999901    1    3    3    0    0  0.33704050659E-01 -0.13298712521E+00 -0.41196529314E-01  0.89158212888E+00  0.88000000000E+00 0.  1.
        -11    1    4    4    0    0 -0.23653595164E-02  0.82116557873E-01  0.17240287374E-01  0.83941721642E-01  0.51100000000E-03 0.  1.
         11    1    4    4    0    0 -0.11496987596E-01  0.39135195465E-01  0.18062216423E-01  0.44612207197E-01  0.51100000000E-03 0. -1.
</event>
<event>
 8    1  0.1099478E+005  0.1043930E+01  0.7957747E-01            NaN
         13   -1    0    0    0    0  0.00000000000E+00  0.00000000000E+00  0.74505805969E-08  0.10566000000E+00  0.10566000000E+00 0.  1.
     999900   -1    0    0    0    0 -0.00000000000E+00 -0.00000000000E+00 -0.74505805969E-08  0.93827000000E+00  0.93827000000E+00 0.  1.
     999902    2    1    2    0    0  0.11365267756E-01 -0.50068673310E-02  0.19895957545E-01  0.10204760631E+01  0.10202065027E+01 0.  0.
     999903    2    3    3    0    0  0.10609320989E+00  0.64087641135E-01  0.42146288622E-01  0.13242059668E+00  0.19897483508E-01 0.  0.
         14    1    1    2    0    0 -0.11365267756E-01  0.50068673310E-02 -0.19895957545E-01  0.23453936946E-01  0.00000000000E+00 0. -1.
     999901    1    3    3    0    0 -0.94727942133E-01 -0.69094508466E-01 -0.22250331076E-01  0.88805546637E+00  0.88000000000E+00 0.  1.
        -11    1    4    4    0    0  0.64795132481E-01  0.44239692521E-01  0.17487933493E-01  0.80384379866E-01  0.51100000000E-03 0. -1.
         11    1    4    4    0    0  0.41298077407E-01  0.19847948615E-01  0.24658355128E-01  0.52036216815E-01  0.51100000000E-03 0.  1.
</event>
<event>
 8    1  0.1099478E+005  0.1043930E+01  0.7957747E-01            NaN
         13   -1    0    0    0    0  0.00000000000E+00  0.00000000000E+00  0.74505805969E-08  0.10566000000E+00  0.10566000000E+00 0. -1.
     999900   -1    0    0    0    0 -0.00000000000E+00 -0.00000000000E+00 -0.74505805969E-08  0.93827000000E+00  0.93827000000E+00 0. -1.
     999902    2    1    2    0    0  0.39734683815E-03 -0.19260345697E-01  0.13733505077E-01  0.10202714294E+01  0.10199970891E+01 0.  0.
     999903    2    3    3    0    0 -0.62505996677E-01 -0.98440836321E-01  0.61419870079E-01  0.13319737944E+00  0.19275465546E-01 0.  0.
         14    1    1    2    0    0 -0.39734683815E-03  0.19260345697E-01 -0.13733505077E-01  0.23658570595E-01  0.00000000000E+00 0. -1.
     999901    1    3    3    0    0  0.62903343516E-01  0.79180490624E-01 -0.47686365002E-01  0.88707404997E+00  0.88000000000E+00 0. -1.
        -11    1    4    4    0    0 -0.19241053378E-01 -0.39940003835E-01  0.32159093147E-01  0.54771255550E-01  0.51100000000E-03 0. -1.
         11    1    4    4    0    0 -0.43264943300E-01 -0.58500832486E-01  0.29260776932E-01  0.78426123887E-01  0.51100000000E-03 0.  1.
</event>
<event>
 8    1  0.1099478E+005  0.1043930E+01  0.7957747E-01            NaN
         13   -1    0    0    0    0  0.00000000000E+00  0.00000000000E+00  0.74505805969E-08  0.10566000000E+00  0.10566000000E+00 0.  1.
     999900   -1    0    0    0    0 -0.00000000000E+00 -0.00000000000E+00 -0.74505805969E-08  0.93827000000E+00  0.93827000000E+00 0. -1.
     999902    2    1    2    0    0  0.17684699961E-02  0.23081377921E-01 -0.44873908740E-02  0.10203500473E+01  0.10200775484E+01 0.  0.
     999903    2    3    3    0    0  0.29034977787E-01 -0.81450205127E-01  0.93067199491E-01  0.12839309071E+00  0.18604200319E-01 0.  0.
         14    1    1    2    0    0 -0.17684699961E-02 -0.23081377921E-01  0.44873908740E-02  0.23579952708E-01  0.00000000000E+00 0. -1.
     999901    1    3    3    0    0 -0.27266507791E-01  0.10453158305E+00 -0.97554590365E-01  0.89195695659E+00  0.88000000000E+00 0. -1.
        -11    1    4    4    0    0  0.19120719382E-01 -0.43175615618E-01  0.62923281098E-01  0.78672333884E-01  0.51100000000E-03 0. -1.
         11    1    4    4    0    0  0.99142584056E-02 -0.38274589509E-01  0.30143918394E-01  0.49720756821E-01  0.51100000000E-03 0.  1.
</event>
<event>
 8    1  0.1099478E+005  0.1043930E+01  0.7957747E-01            NaN
         13   -1    0    0    0    0  0.00000000000E+00  0.00000000000E+00  0.74505805969E-08  0.10566000000E+00  0.10566000000E+00 0.  1.
     999900   -1    0    0    0    0 -0.00000000000E+00 -0.00000000000E+00 -0.74505805969E-08  0.93827000000E+00  0.93827000000E+00 0. -1.
     999902    2    1    2    0    0  0.86127761071E-02  0.14603792477E-01  0.16653332055E-01  0.10201648125E+01  0.10198879647E+01 0.  0.
     999903    2    3    3    0    0 -0.53737345019E-01 -0.35698122523E-01  0.11260644972E+00  0.13133140798E+00  0.20141201575E-01 0.  0.
         14    1    1    2    0    0 -0.86127761071E-02 -0.14603792477E-01 -0.16653332055E-01  0.23765187471E-01  0.00000000000E+00 0. -1.
     999901    1    3    3    0    0  0.62350121126E-01  0.50301915000E-01 -0.95953117668E-01  0.88883340455E+00  0.88000000000E+00 0. -1.
        -11    1    4    4    0    0 -0.45212477720E-01 -0.37244808385E-01  0.93329477323E-01  0.11019072716E+00  0.51100000000E-03 0.  1.
         11    1    4    4    0    0 -0.85248672988E-02  0.15466858621E-02  0.19276972399E-01  0.21140680819E-01  0.51100000000E-03 0. -1.
</event>
<event>
 8    1  0.1099478E+005  0.1043930E+01  0.7957747E-01            NaN
         13   -1    0    0    0    0  0.00000000000E+00  0.00000000000E+00  0.74505805969E-08  0.10566000000E+00  0.10566000000E+00 0.  1.
     999900   -1    0    0    0    0 -0.00000000000E+00 -0.00000000000E+00 -0.74505805969E-08  0.93827000000E+00  0.93827000000E+00 0. -1.
     999902    2    1    2    0    0 -0.78590252424E-02 -0.21869724180E-01  0.44652460627E-02  0.10202659442E+01  0.10199914752E+01 0.  0.
     999903    2    3    3    0    0 -0.12043932687E+00  0.37624894230E-01 -0.26915422503E-01  0.13054762908E+00  0.19924341095E-01 0.  0.
         14    1    1    2    0    0  0.78590252424E-02  0.21869724180E-01 -0.44652460627E-02  0.23664055778E-01  0.00000000000E+00 0. -1.
     999901    1    3    3    0    0  0.11258030163E+00 -0.59494618411E-01  0.31380668566E-01  0.88971831514E+00  0.88000000000E+00 0.  1.
        -11    1    4    4    0    0 -0.41722100697E-01  0.43961601499E-02 -0.13375946870E-01  0.44036768572E-01  0.51100000000E-03 0.  1.
         11    1    4    4    0    0 -0.78717226173E-01  0.33228734081E-01 -0.13539475633E-01  0.86510860511E-01  0.51100000000E-03 0. -1.
</event>
<event>
 8    1  0.1099478E+005  0.1043930E+01  0.7957747E-01            NaN
         13   -1    0    0    0    0  0.00000000000E+00  0.00000000000E+00  0.74505805969E-08  0.10566000000E+00  0.10566000000E+00 0.  1.
     999900   -1    0    0    0    0 -0.00000000000E+00 -0.00000000000E+00 -0.74505805969E-08  0.93827000000E+00  0.93827000000E+00 0. -1.
     999902    2    1    2    0    0  0.47741947618E-02  0.61842139609E-02 -0.20715390485E-01  0.10217903333E+01  0.10215504493E+01 0.  0.
     999903    2    3    3    0    0 -0.17489628713E-01  0.12771227743E+00 -0.26175179331E-01  0.13314273312E+00  0.20628486345E-01 0.  0.
         14    1    1    2    0    0 -0.47741947618E-02 -0.61842139609E-02  0.20715390485E-01  0.22139666684E-01  0.00000000000E+00 0.  1.
     999901    1    3    3    0    0  0.22263823475E-01 -0.12152806347E+00  0.54597888458E-02  0.88864760020E+00  0.88000000000E+00 0. -1.
        -11    1    4    4    0    0 -0.11807423365E-01  0.81688376075E-01 -0.26742641813E-01  0.86763103013E-01  0.51100000000E-03 0. -1.
         11    1    4    4    0    0 -0.56822053477E-02  0.46023901358E-01  0.56746248140E-03  0.46379630103E-01  0.51100000000E-03 0.  1.
</event>
<event>
 8    1  0.1099478E+005  0.1043930E+01  0.7957747E-01            NaN
         13   -1    0    0    0    0  0.00000000000E+00  0.00000000000E+00  0.74505805969E-08  0.10566000000E+00  0.10566000000E+00 0.  1.
     999900   -1    0    0    0    0 -0.00000000000E+00 -0.00000000000E+00 -0.74505805969E-08  0.93827000000E+00  0.93827000000E+00 0. -1.
     999902    2    1    2    0    0  0.19284406769E-01  0.89044589272E-03  0.16781722644E-01  0.10183505658E+01  0.10180292567E+01 0.  0.
     999903    2    3    3    0    0  0.11385523585E+00 -0.59773149733E-01  0.17215575142E-01  0.13120688987E+00  0.19571095079E-01 0.  0.
         14    1    1    2    0    0 -0.19284406769E-01 -0.89044589272E-03 -0.16781722644E-01  0.25579434185E-01  0.00000000000E+00 0. -1.
     999901    1    3    3    0    0 -0.94570829076E-01  0.60663595626E-01 -0.43385249759E-03  0.88714367595E+00  0.88000000000E+00 0. -1.
        -11    1    4    4    0    0  0.62708439913E-01 -0.22529163258E-01  0.12139744098E-01  0.67731426540E-01  0.51100000000E-03 0.  1.
         11    1    4    4    0    0  0.51146795933E-01 -0.37243986475E-01  0.50758310434E-02  0.63475463326E-01  0.51100000000E-03 0. -1.
</event>
<event>
 8    1  0.1099478E+005  0.1043930E+01  0.7957747E-01            NaN
         13   -1    0    0    0    0  0.00000000000E+00  0.00000000000E+00  0.74505805969E-08  0.10566000000E+00  0.10566000000E+00 0. -1.
     999900   -1    0    0    0    0 -0.00000000000E+00 -0.00000000000E+00 -0.74505805969E-08  0.93827000000E+00  0.93827000000E+00 0.  1.
     999902    2    1    2    0    0 -0.14305207090E-01  0.17160530411E-02 -0.18891989731E-01  0.10201709793E+01  0.10198942769E+01 0.  0.
     999903    2    3    3    0    0 -0.72502872363E-01 -0.29235181462E-01 -0.10627807741E+00  0.13338956573E+00  0.19656657190E-01 0.  0.
         14    1    1    2    0    0  0.14305207090E-01 -0.17160530411E-02  0.18891989731E-01  0.23759020685E-01  0.00000000000E+00 0. -1.
     999901    1    3    3    0    0  0.58197665273E-01  0.30951234503E-01  0.87386087678E-01  0.88678141359E+00  0.88000000000E+00 0. -1.
        -11    1    4    4    0    0 -0.13529036408E-01 -0.52038846278E-02 -0.34543081126E-01  0.37464660895E-01  0.51100000000E-03 0. -1.
         11    1    4    4    0    0 -0.58973835955E-01 -0.24031296834E-01 -0.71734996283E-01  0.95924904834E-01  0.51100000000E-03 0.  1.
</event>
<event>
 8    1  0.1099478E+005  0.1043930E+01  0.7957747E-01            NaN
         13   -1    0    0    0    0  0.00000000000E+00  0.00000000000E+00  0.74505805969E-08  0.10566000000E+00  0.10566000000E+00 0. -1.
     999900   -1    0    0    0    0 -0.00000000000E+00 -0.00000000000E+00 -0.74505805969E-08  0.93827000000E+00  0.93827000000E+00 0. -1.
     999902    2    1    2    0    0 -0.44562062634E-02 -0.17667856023E-01  0.18736339545E-01  0.10177945580E+01  0.10174589431E+01 0.  0.
     999903    2    3    3    0    0 -0.11083339951E+00 -0.51137547877E-01 -0.36810365785E-01  0.12901912852E+00  0.19794980328E-01 0.  0.
         14    1    1    2    0    0  0.44562062634E-02  0.17667856023E-01 -0.18736339545E-01  0.26135442033E-01  0.00000000000E+00 0.  1.
     999901    1    3    3    0    0  0.10637719324E+00  0.33469691854E-01  0.55546705330E-01  0.88877542945E+00  0.88000000000E+00 0.  1.
        -11    1    4    4    0    0 -0.55695506685E-01 -0.36354128739E-01 -0.21754481171E-01  0.69979502094E-01  0.51100000000E-03 0.  1.
         11    1    4    4    0    0 -0.55137892821E-01 -0.14783419138E-01 -0.15055884614E-01  0.59039626427E-01  0.51100000000E-03 0. -1.
</event>
<event>
 8    1  0.1099478E+005  0.1043930E+01  0.7957747E-01            NaN
         13   -1    0    0    0    0  0.00000000000E+00  0.00000000000E+00  0.74505805969E-08  0.10566000000E+00  0.10566000000E+00 0. -1.
     999900   -1    0    0    0    0 -0.00000000000E+00 -0.00000000000E+00 -0.74505805969E-08  0.93827000000E+00  0.93827000000E+00 0. -1.
     999902    2    1    2    0    0 -0.14832683043E-01  0.18827644111E-01 -0.35037232782E-03  0.10199589460E+01  0.10196772235E+01 0.  0.
     999903    2    3    3    0    0 -0.72431489076E-01 -0.41941071431E-02  0.10749496658E+00  0.13120800192E+00  0.19911322946E-01 0.  0.
         14    1    1    2    0    0  0.14832683043E-01 -0.18827644111E-01  0.35037232782E-03  0.23971053998E-01  0.00000000000E+00 0. -1.
     999901    1    3    3    0    0  0.57598806033E-01  0.23021751254E-01 -0.10784533891E+00  0.88875094409E+00  0.88000000000E+00 0. -1.
        -11    1    4    4    0    0 -0.60031495530E-01 -0.29374014977E-02  0.99947666624E-01  0.11662849552E+00  0.51100000000E-03 0. -1.
         11    1    4    4    0    0 -0.12399993546E-01 -0.12567056454E-02  0.75472999605E-02  0.14579506395E-01  0.51100000000E-03 0.  1.
</event>
<event>
 8    1  0.1099478E+005  0.1043930E+01  0.7957747E-01            NaN
         13   -1    0    0    0    0  0.00000000000E+00  0.00000000000E+00  0.74505805969E-08  0.10566000000E+00  0.10566000000E+00 0. -1.
     999900   -1    0    0    0    0 -0.00000000000E+00 -0.00000000000E+00 -0.74505805969E-08  0.93827000000E+00  0.93827000000E+00 0.  1.
     999902    2    1    2    0    0  0.11492631449E-01  0.18831564163E-01  0.13301473401E-01  0.10181688358E+01  0.10178428860E+01 0.  0.
     999903    2    3    3    0    0  0.36411627013E-01  0.12049747639E+00  0.32848624786E-01  0.13174963182E+00  0.20820301050E-01 0.  0.
         14    1    1    2    0    0 -0.11492631449E-01 -0.18831564163E-01 -0.13301473401E-01  0.25761164203E-01  0.00000000000E+00 0.  1.
     999901    1    3    3    0    0 -0.24918995564E-01 -0.10166591223E+00 -0.19547151385E-01  0.88641920398E+00  0.88000000000E+00 0.  1.
        -11    1    4    4    0    0  0.38044287985E-01  0.99660914113E-01  0.27011662882E-01  0.11004343098E+00  0.51100000000E-03 0. -1.
         11    1    4    4    0    0 -0.16326609717E-02  0.20836562281E-01  0.58369619038E-02  0.21706200837E-01  0.51100000000E-03 0.  1.
</event>
<event>
 8    1  0.1099478E+005  0.1043930E+01  0.7957747E-01            NaN
         13   -1    0    0    0    0  0.00000000000E+00  0.00000000000E+00  0.74505805969E-08  0.10566000000E+00  0.10566000000E+00 0. -1.
     999900   -1    0    0    0    0 -0.00000000000E+00 -0.00000000000E+00 -0.74505805969E-08  0.93827000000E+00  0.93827000000E+00 0.  1.
     999902    2    1    2    0    0  0.86201326512E-02 -0.13349504483E-01 -0.18113804373E-01  0.10198338205E+01  0.10195491139E+01 0.  0.
     999903    2    3    3    0    0 -0.25689334988E-01  0.12258325349E+00 -0.22354988082E-01  0.12872617163E+00  0.19598107128E-01 0.  0.
         14    1    1    2    0    0 -0.86201326512E-02  0.13349504483E-01  0.18113804373E-01  0.24096179484E-01  0.00000000000E+00 0. -1.
     999901    1    3    3    0    0  0.34309467640E-01 -0.13593275797E+00  0.42411837091E-02  0.89110764888E+00  0.88000000000E+00 0. -1.
        -11    1    4    4    0    0 -0.83260705505E-02  0.83164360049E-01 -0.12183422416E-01  0.84464969874E-01  0.51100000000E-03 0.  1.
         11    1    4    4    0    0 -0.17363264438E-01  0.39418893440E-01 -0.10171565666E-01  0.44261201758E-01  0.51100000000E-03 0. -1.
</event>
<event>
 8    1  0.1099478E+005  0.1043930E+01  0.7957747E-01            NaN
         13   -1    0    0    0    0  0.00000000000E+00  0.00000000000E+00  0.74505805969E-08  0.10566000000E+00  0.10566000000E+00 0.  1.
     999900   -1    0    0    0    0 -0.00000000000E+00 -0.00000000000E+00 -0.74505805969E-08  0.93827000000E+00  0.93827000000E+00 0. -1.
     999902    2    1    2    0    0 -0.21584269165E-01  0.10056479948E-01  0.25341359343E-03  0.10201166071E+01  0.10198386217E+01 0.  0.
     999903    2    3    3    0    0 -0.61688722951E-01  0.11049076865E+00 -0.34734087855E-01  0.13280632379E+00  0.20429250699E-01 0.  0.
         14    1    1    2    0    0  0.21584269165E-01 -0.10056479948E-01 -0.25341359343E-03  0.23813392928E-01  0.00000000000E+00 0. -1.
     999901    1    3    3    0    0  0.40104453786E-01 -0.10043428870E+00  0.34987501448E-01  0.88731028328E+00  0.88000000000E+00 0.  1.
        -11    1    4    4    0    0 -0.46344616534E-01  0.73251511844E-01 -0.32118374526E-01  0.92441649554E-01  0.51100000000E-03 0. -1.
         11    1    4    4    0    0 -0.15344106417E-01  0.37239256802E-01 -0.26157133285E-02  0.40364674236E-01  0.51100000000E-03 0.  1.
</event>
<event>
 8    1  0.1099478E+005  0.1043930E+01  0.7957747E-01            NaN
         13   -1    0    0    0    0  0.00000000000E+00  0.00000000000E+00  0.74505805969E-08  0.10566000000E+00  0.10566000000E+00 0.  1.
     999900   -1    0    0    0    0 -0.00000000000E+00 -0.00000000000E+00 -0.74505805969E-08  0.93827000000E+00  0.93827000000E+00 0. -1.
     999902    2    1    2    0    0 -0.19123333214E-02  0.19669632056E-01 -0.11774693351E-01  0.10209257646E+01  0.10206665577E+01 0.  0.
     999903    2    3    3    0    0  0.49919656932E-01  0.55065663632E-01 -0.10894729243E+00  0.13335495147E+00  0.19744140750E-01 0.  0.
         14    1    1    2    0    0  0.19123333214E-02 -0.19669632056E-01  0.11774693351E-01  0.23004235424E-01  0.00000000000E+00 0. -1.
     999901    1    3    3    0    0 -0.51831990253E-01 -0.35396031577E-01  0.97172599081E-01  0.88757081311E+00  0.88000000000E+00 0. -1.
        -11    1    4    4    0    0  0.28936388515E-01  0.17796943290E-01 -0.52455097590E-01  0.62496753155E-01  0.51100000000E-03 0. -1.
         11    1    4    4    0    0  0.20983268417E-01  0.37268720343E-01 -0.56492194842E-01  0.70858198316E-01  0.51100000000E-03 0.  1.
</event>
<event>
 8    1  0.1099478E+005  0.1043930E+01  0.7957747E-01            NaN
         13   -1    0    0    0    0  0.00000000000E+00  0.00000000000E+00  0.74505805969E-08  0.10566000000E+00  0.10566000000E+00 0.  1.
     999900   -1    0    0    0    0 -0.00000000000E+00 -0.00000000000E+00 -0.74505805969E-08  0.93827000000E+00  0.93827000000E+00 0. -1.
     999902    2    1    2    0    0  0.28321039894E-02 -0.22465668075E-01 -0.40863508126E-02  0.10209207558E+01  0.10206614347E+01 0.  0.
     999903    2    3    3    0    0 -0.52666687899E-01 -0.11377910454E+00  0.40614392312E-01  0.13333052602E+00  0.20199892626E-01 0.  0.
         14    1    1    2    0    0 -0.28321039894E-02  0.22465668075E-01  0.40863508126E-02  0.23009244187E-01  0.00000000000E+00 0. -1.
     999901    1    3    3    0    0  0.55498791889E-01  0.91313436468E-01 -0.44700743125E-01  0.88759022979E+00  0.88000000000E+00 0. -1.
        -11    1    4    4    0    0 -0.22704713494E-01 -0.28346383811E-01  0.14440359345E-01  0.39087166552E-01  0.51100000000E-03 0.  1.
         11    1    4    4    0    0 -0.29961974405E-01 -0.85432720732E-01  0.26174032967E-01  0.94243359473E-01  0.51100000000E-03 0. -1.
</event>
<event>
 8    1  0.1099478E+005  0.1043930E+01  0.7957747E-01            NaN
         13   -1    0    0    0    0  0.00000000000E+00  0.00000000000E+00  0.74505805969E-08  0.10566000000E+00  0.10566000000E+00 0.  1.
     999900   -1    0    0    0    0 -0.00000000000E+00 -0.00000000000E+00 -0.74505805969E-08  0.93827000000E+00  0.93827000000E+00 0. -1.
     999902    2    1    2    0    0 -0.13264773522E-01  0.17417152762E-01  0.11205760640E-01  0.10193356816E+01  0.10190389351E+01 0.  0.
     999903    2    3    3    0    0 -0.35654148395E-01 -0.10853988653E+00 -0.53423760789E-01  0.12773967728E+00  0.20278108075E-01 0.  0.
         14    1    1    2    0    0  0.13264773522E-01 -0.17417152762E-01 -0.11205760640E-01  0.24594318417E-01  0.00000000000E+00 0. -1.
     999901    1    3    3    0    0  0.22389374874E-01  0.12595703930E+00  0.64629521428E-01  0.89159600431E+00  0.88000000000E+00 0.  1.
        -11    1    4    4    0    0 -0.24514496930E-01 -0.48175828256E-01 -0.18616731805E-01  0.57172675397E-01  0.51100000000E-03 0. -1.
         11    1    4    4    0    0 -0.11139651465E-01 -0.60364058278E-01 -0.34807028984E-01  0.70567001880E-01  0.51100000000E-03 0.  1.
</event>
<event>
 8    1  0.1099478E+005  0.1043930E+01  0.7957747E-01            NaN
         13   -1    0    0    0    0  0.00000000000E+00  0.00000000000E+00  0.74505805969E-08  0.10566000000E+00  0.10566000000E+00 0. -1.
     999900   -1    0    0    0    0 -0.00000000000E+00 -0.00000000000E+00 -0.74505805969E-08  0.93827000000E+00  0.93827000000E+00 0. -1.
     999902    2    1    2    0    0 -0.70105737033E-03 -0.22737992355E-01  0.84294945684E-03  0.10211655905E+01  0.10209118203E+01 0.  0.
     999903    2    3    3    0    0  0.14205417305E-01  0.41260287849E-01  0.12177006455E+00  0.13046847583E+00  0.17025549319E-01 0.  0.
         14    1    1    2    0    0  0.70105737033E-03  0.22737992355E-01 -0.84294945684E-03  0.22764409537E-01  0.00000000000E+00 0.  1.
     999901    1    3    3    0    0 -0.14906474675E-01 -0.63998280204E-01 -0.12092711509E+00  0.89069711464E+00  0.88000000000E+00 0. -1.
        -11    1    4    4    0    0  0.82015756570E-02  0.70905585614E-02  0.43835216024E-01  0.45158932105E-01  0.51100000000E-03 0.  1.
         11    1    4    4    0    0  0.60038416478E-02  0.34169729288E-01  0.77934848527E-01  0.85309543722E-01  0.51100000000E-03 0. -1.
</event>
<event>
 8    1  0.1099478E+005  0.1043930E+01  0.7957747E-01            NaN
         13   -1    0    0    0    0  0.00000000000E+00  0.00000000000E+00  0.74505805969E-08  0.10566000000E+00  0.10566000000E+00 0. -1.
     999900   -1    0    0    0    0 -0.00000000000E+00 -0.00000000000E+00 -0.74505805969E-08  0.93827000000E+00  0.93827000000E+00 0.  1.
     999902    2    1    2    0    0  0.70916574434E-02 -0.45769154886E-02 -0.21870228882E-01  0.10204875882E+01  0.10202182957E+01 0.  0.
     999903    2    3    3    0    0 -0.90993412286E-01 -0.77736043698E-01  0.45405958430E-01  0.12947747358E+00  0.19494140997E-01 0.  0.
         14    1    1    2    0    0 -0.70916574434E-02  0.45769154886E-02  0.21870228882E-01  0.23442411822E-01  0.00000000000E+00 0. -1.
     999901    1    3    3    0    0  0.98085069729E-01  0.73159128210E-01 -0.67276187313E-01  0.89101011460E+00  0.88000000000E+00 0.  1.
        -11    1    4    4    0    0 -0.35821076295E-01 -0.25123719606E-01  0.77160295529E-02  0.44431396859E-01  0.51100000000E-03 0.  1.
         11    1    4    4    0    0 -0.55172335991E-01 -0.52612324093E-01  0.37689928878E-01  0.85046076717E-01  0.51100000000E-03 0. -1.
</event>
<event>
 8    1  0.1099478E+005  0.1043930E+01  0.7957747E-01            NaN
         13   -1    0    0    0    0  0.00000000000E+00  0.00000000000E+00  0.74505805969E-08  0.10566000000E+00  0.10566000000E+00 0. -1.
     999900   -1    0    0    0    0 -0.00000000000E+00 -0.00000000000E+00 -0.74505805969E-08  0.93827000000E+00  0.93827000000E+00 0.  1.
     999902    2    1    2    0    0 -0.79785384432E-02  0.19360050239E-01  0.12895013619E-01  0.10193383348E+01  0.10190416531E+01 0.  0.
     999903    2    3    3    0    0 -0.22563471944E-01 -0.63422617687E-01 -0.10590268487E+00  0.12738621526E+00  0.21916442993E-01 0.  0.
         14    1    1    2    0    0  0.79785384432E-02 -0.19360050239E-01 -0.12895013619E-01  0.24591665197E-01  0.00000000000E+00 0.  1.
     999901    1    3    3    0    0  0.14584933501E-01  0.82782667926E-01  0.11879769849E+00  0.89195211955E+00  0.88000000000E+00 0. -1.
        -11    1    4    4    0    0 -0.40839434012E-02 -0.19374623591E-01 -0.50426570592E-01  0.54177068725E-01  0.51100000000E-03 0.  1.
         11    1    4    4    0    0 -0.18479528543E-01 -0.44047994096E-01 -0.55476114283E-01  0.73209146532E-01  0.51100000000E-03 0. -1.
</event>
<event>
 8    1  0.1099478E+005  0.1043930E+01  0.7957747E-01            NaN
         13   -1    0    0    0    0  0.00000000000E+00  0.00000000000E+00  0.74505805969E-08  0.10566000000E+00  0.10566000000E+00 0. -1.
     999900   -1    0    0    0    0 -0.00000000000E+00 -0.00000000000E+00 -0.74505805969E-08  0.93827000000E+00  0.93827000000E+00 0.  1.
     999902    2    1    2    0    0 -0.18740056539E-01 -0.13769263593E-01  0.65778470052E-02  0.10197628651E+01  0.10194764591E+01 0.  0.
     999903    2    3    3    0    0  0.71175371890E-01 -0.95032411868E-01 -0.47228130985E-01  0.12982827939E+00  0.22973743806E-01 0.  0.
         14    1    1    2    0    0  0.18740056539E-01  0.13769263593E-01 -0.65778470052E-02  0.24167134919E-01  0.00000000000E+00 0.  1.
     999901    1    3    3    0    0 -0.89915428429E-01  0.81263148275E-01  0.53805977990E-01  0.88993458569E+00  0.88000000000E+00 0. -1.
        -11    1    4    4    0    0  0.27448424198E-01 -0.19722981159E-01 -0.11627297979E-01  0.35747267812E-01  0.51100000000E-03 0.  1.
         11    1    4    4    0    0  0.43726947692E-01 -0.75309430709E-01 -0.35600833006E-01  0.94081011580E-01  0.51100000000E-03 0. -1.
</event>
<event>
 8    1  0.1099478E+005  0.1043930E+01  0.7957747E-01            NaN
         13   -1    0    0    0    0  0.00000000000E+00  0.00000000000E+00  0.74505805969E-08  0.10566000000E+00  0.10566000000E+00 0.  1.
     999900   -1    0    0    0    0 -0.00000000000E+00 -0.00000000000E+00 -0.74505805969E-08  0.93827000000E+00  0.93827000000E+00 0.  1.
     999902    2    1    2    0    0  0.20079726516E-01  0.57474161443E-02 -0.10865472939E-01  0.10203867056E+01  0.10201150632E+01 0.  0.
     999903    2    3    3    0    0 -0.10527172360E+00 -0.11732144705E-01  0.68778046927E-01  0.12777166463E+00  0.19375229915E-01 0.  0.
         14    1    1    2    0    0 -0.20079726516E-01 -0.57474161443E-02  0.10865472939E-01  0.23543294406E-01  0.00000000000E+00 0.  1.
     999901    1    3    3    0    0  0.12535145012E+00  0.17479560849E-01 -0.79643519865E-01  0.89261504096E+00  0.88000000000E+00 0.  1.
        -11    1    4    4    0    0 -0.78043972726E-01 -0.43105909398E-04  0.49905356591E-01  0.92637299585E-01  0.51100000000E-03 0. -1.
         11    1    4    4    0    0 -0.27227750877E-01 -0.11689038796E-01  0.18872690336E-01  0.35134365047E-01  0.51100000000E-03 0.  1.
</event>
<event>
 8    1  0.1099478E+005  0.1043930E+01  0.7957747E-01            NaN
         13   -1    0    0    0    0  0.00000000000E+00  0.00000000000E+00  0.74505805969E-08  0.10566000000E+00  0.10566000000E+00 0. -1.
     999900   -1    0    0    0    0 -0.00000000000E+00 -0.00000000000E+00 -0.74505805969E-08  0.93827000000E+00  0.93827000000E+00 0. -1.
     999902    2    1    2    0    0 -0.16791308297E-01 -0.66250693540E-02 -0.12962318916E-01  0.10217070099E+01  0.10214652969E+01 0.  0.
     999903    2    3    3    0    0  0.13592695213E-01 -0.12007606771E+00 -0.51948665612E-01  0.13304832854E+00  0.20004261250E-01 0.  0.
         14    1    1    2    0    0  0.16791308297E-01  0.66250693540E-02  0.12962318916E-01  0.22222990122E-01  0.00000000000E+00 0. -1.
     999901    1    3    3    0    0 -0.30384003510E-01  0.11345099835E+00  0.38986346696E-01  0.88865868134E+00  0.88000000000E+00 0.  1.
        -11    1    4    4    0    0  0.44564010144E-02 -0.68637708754E-01 -0.39577746127E-01  0.79357757545E-01  0.51100000000E-03 0.  1.
         11    1    4    4    0    0  0.91362941982E-02 -0.51438358953E-01 -0.12370919485E-01  0.53690570991E-01  0.51100000000E-03 0. -1.
</event>
<event>
 8    1  0.1099478E+005  0.1043930E+01  0.7957747E-01            NaN
         13   -1    0    0    0    0  0.00000000000E+00  0.00000000000E+00  0.74505805969E-08  0.10566000000E+00  0.10566000000E+00 0.  1.
     999900   -1    0    0    0    0 -0.00000000000E+00 -0.00000000000E+00 -0.74505805969E-08  0.93827000000E+00  0.93827000000E+00 0.  1.
     999902    2    1    2    0    0  0.20003727473E-01  0.10329063852E-01  0.75553891669E-02  0.10201829459E+01  0.10199065254E+01 0.  0.
     999903    2    3    3    0    0  0.11655796711E+00 -0.51386488737E-01  0.30481302424E-01  0.13245712780E+00  0.19734487256E-01 0.  0.
         14    1    1    2    0    0 -0.20003727473E-01 -0.10329063852E-01 -0.75553891669E-02  0.23747054098E-01  0.00000000000E+00 0. -1.
     999901    1    3    3    0    0 -0.96554239633E-01  0.61715552590E-01 -0.22925913257E-01  0.88772581810E+00  0.88000000000E+00 0.  1.
        -11    1    4    4    0    0  0.68293796794E-01 -0.31647529682E-01  0.27798607368E-01  0.80241089899E-01  0.51100000000E-03 0. -1.
         11    1    4    4    0    0  0.48264170312E-01 -0.19738959055E-01  0.26826950563E-02  0.52216037902E-01  0.51100000000E-03 0.  1.
</event>
<event>
 8    1  0.1099478E+005  0.1043930E+01  0.7957747E-01            NaN
         13   -1    0    0    0    0  0.00000000000E+00  0.00000000000E+00  0.74505805969E-08  0.10566000000E+00  0.10566000000E+00 0. -1.
     999900   -1    0    0    0    0 -0.00000000000E+00 -0.00000000000E+00 -0.74505805969E-08  0.93827000000E+00  0.93827000000E+00 0. -1.
     999902    2    1    2    0    0  0.66737963370E-02  0.19805045279E-01 -0.11883196197E-01  0.10198885831E+01  0.10196051844E+01 0.  0.
     999903    2    3    3    0    0  0.10461135624E+00  0.48213037681E-01 -0.62525469742E-01  0.13255357331E+00  0.19823788102E-01 0.  0.
         14    1    1    2    0    0 -0.66737963370E-02 -0.19805045279E-01  0.11883196197E-01  0.24041416928E-01  0.00000000000E+00 0.  1.
     999901    1    3    3    0    0 -0.97937559905E-01 -0.28407992402E-01  0.50642273545E-01  0.88733500976E+00  0.88000000000E+00 0. -1.
        -11    1    4    4    0    0  0.82692876990E-01  0.28792605613E-01 -0.45590364544E-01  0.98721165426E-01  0.51100000000E-03 0. -1.
         11    1    4    4    0    0  0.21918479252E-01  0.19420432068E-01 -0.16935105198E-01  0.33832407888E-01  0.51100000000E-03 0.  1.
</event>
<event>
 8    1  0.1099478E+005  0.1043930E+01  0.7957747E-01            NaN
         13   -1    0    0    0    0  0.00000000000E+00  0.00000000000E+00  0.74505805969E-08  0.10566000000E+00  0.10566000000E+00 0.  1.
     999900   -1    0    0    0    0 -0.00000000000E+00 -0.00000000000E+00 -0.74505805969E-08  0.93827000000E+00  0.93827000000E+00 0.  1.
     999902    2    1    2    0    0  0.33284492744E-02 -0.56643595616E-02 -0.23256917717E-01  0.10197629198E+01  0.10194765151E+01 0.  0.
     999903    2    3    3    0    0  0.53746557051E-01  0.67330500258E-01  0.92425384806E-01  0.12776929299E+00  0.18985568580E-01 0.  0.
         14    1    1    2    0    0 -0.33284492744E-02  0.56643595616E-02  0.23256917717E-01  0.24167080202E-01  0.00000000000E+00 0.  1.
     999901    1    3    3    0    0 -0.50418107777E-01 -0.72994859820E-01 -0.11568230252E+00  0.89199362681E+00  0.88000000000E+00 0. -1.
        -11    1    4    4    0    0  0.47656994860E-01  0.62829024230E-01  0.75297633345E-01  0.10903517851E+00  0.51100000000E-03 0. -1.
         11    1    4    4    0    0  0.60895621915E-02  0.45014760287E-02  0.17127751460E-01  0.18734114476E-01  0.51100000000E-03 0.  1.
</event>
<event>
 8    1  0.1099478E+005  0.1043930E+01  0.7957747E-01            NaN
         13   -1    0    0    0    0  0.00000000000E+00  0.00000000000E+00  0.74505805969E-08  0.10566000000E+00  0.10566000000E+00 0. -1.
     999900   -1    0    0    0    0 -0.00000000000E+00 -0.00000000000E+00 -0.74505805969E-08  0.93827000000E+00  0.93827000000E+00 0. -1.
     999902    2    1    2    0    0 -0.12936460871E-03  0.22733237420E-01  0.93158738621E-02  0.10193616805E+01  0.10190655687E+01 0.  0.
     999903    2    3    3    0    0 -0.12463811617E+00  0.46025277288E-02  0.31154640402E-01  0.13014399982E+00  0.20273278140E-01 0.  0.
         14    1    1    2    0    0  0.12936460871E-03 -0.22733237420E-01 -0.93158738621E-02  0.24568319532E-01  0.00000000000E+00 0.  1.
     999901    1    3    3    0    0  0.12450875156E+00  0.18130709691E-01 -0.21838766540E-01  0.88921768065E+00  0.88000000000E+00 0. -1.
        -11    1    4    4    0    0 -0.51045268804E-01  0.68478847015E-02  0.21779507570E-01  0.55920667585E-01  0.51100000000E-03 0. -1.
         11    1    4    4    0    0 -0.73592847369E-01 -0.22453569727E-02  0.93751328323E-02  0.74223332237E-01  0.51100000000E-03 0.  1.
</event>
<event>
 8    1  0.1099478E+005  0.1043930E+01  0.7957747E-01            NaN
         13   -1    0    0    0    0  0.00000000000E+00  0.00000000000E+00  0.74505805969E-08  0.10566000000E+00  0.10566000000E+00 0.  1.
     999900   -1    0    0    0    0 -0.00000000000E+00 -0.00000000000E+00 -0.74505805969E-08  0.93827000000E+00  0.93827000000E+00 0.  1.
     999902    2    1    2    0    0 -0.28893444930E-02 -0.29824217034E-02 -0.22609802798E-01  0.10209420394E+01  0.10206832033E+01 0.  0.
     999903    2    3    3    0    0 -0.65593906330E-01  0.36639902900E-01  0.10288243128E+00  0.12894983566E+00  0.19955510990E-01 0.  0.
         14    1    1    2    0    0  0.28893444930E-02  0.29824217034E-02  0.22609802798E-01  0.22987960618E-01  0.00000000000E+00 0.  1.
     999901    1    3    3    0    0  0.62704561837E-01 -0.39622324604E-01 -0.12549223408E+00  0.89199220372E+00  0.88000000000E+00 0. -1.
        -11    1    4    4    0    0 -0.52809174573E-02 -0.23728266610E-02  0.61340951487E-02  0.84502449578E-02  0.51100000000E-03 0.  1.
         11    1    4    4    0    0 -0.60312988873E-01  0.39012729561E-01  0.96748336132E-01  0.12049959070E+00  0.51100000000E-03 0. -1.
</event>
<event>
 8    1  0.1099478E+005  0.1043930E+01  0.7957747E-01            NaN
         13   -1    0    0    0    0  0.00000000000E+00  0.00000000000E+00  0.74505805969E-08  0.10566000000E+00  0.10566000000E+00 0. -1.
     999900   -1    0    0    0    0 -0.00000000000E+00 -0.00000000000E+00 -0.74505805969E-08  0.93827000000E+00  0.93827000000E+00 0. -1.
     999902    2    1    2    0    0 -0.12268756980E-01  0.14173075906E-01  0.14780651718E-01  0.10200581307E+01  0.10197787622E+01 0.  0.
     999903    2    3    3    0    0 -0.45129174231E-01  0.10248083873E+00  0.68877999488E-01  0.13337634391E+00  0.22496791476E-01 0.  0.
         14    1    1    2    0    0  0.12268756980E-01 -0.14173075906E-01 -0.14780651718E-01  0.23871869296E-01  0.00000000000E+00 0.  1.
     999901    1    3    3    0    0  0.32860417251E-01 -0.88307762828E-01 -0.54097347771E-01  0.88668178679E+00  0.88000000000E+00 0. -1.
        -11    1    4    4    0    0 -0.14179464340E-01  0.48546255569E-01  0.20438587743E-01  0.54550830687E-01  0.51100000000E-03 0. -1.
         11    1    4    4    0    0 -0.30949709891E-01  0.53934583165E-01  0.48439411745E-01  0.78825513222E-01  0.51100000000E-03 0.  1.
</event>
<event>
 8    1  0.1099478E+005  0.1043930E+01  0.7957747E-01            NaN
         13   -1    0    0    0    0  0.00000000000E+00  0.00000000000E+00  0.74505805969E-08  0.10566000000E+00  0.10566000000E+00 0.  1.
     999900   -1    0    0    0    0 -0.00000000000E+00 -0.00000000000E+00 -0.74505805969E-08  0.93827000000E+00  0.93827000000E+00 0. -1.
     999902    2    1    2    0    0 -0.17158200248E-02  0.17560113686E-01 -0.40673008306E-02  0.10258235214E+01  0.10256637132E+01 0.  0.
     999903    2    3    3    0    0 -0.44943225200E-01  0.53827924708E-01 -0.11563667686E+00  0.13698625377E+00  0.21818655242E-01 0.  0.
         14    1    1    2    0    0  0.17158200248E-02 -0.17560113686E-01  0.40673008306E-02  0.18106478594E-01  0.00000000000E+00 0. -1.
     999901    1    3    3    0    0  0.43227405175E-01 -0.36267811022E-01  0.11156937603E+00  0.88883726764E+00  0.88000000000E+00 0.  1.
        -11    1    4    4    0    0 -0.40881093992E-01  0.54828622892E-01 -0.11276937165E+00  0.13188871839E+00  0.51100000000E-03 0.  1.
         11    1    4    4    0    0 -0.40621312075E-02 -0.10006981836E-02 -0.28673052080E-02  0.50975353807E-02  0.51100000000E-03 0. -1.
</event>
<event>
 8    1  0.1099478E+005  0.1043930E+01  0.7957747E-01            NaN
         13   -1    0    0    0    0  0.00000000000E+00  0.00000000000E+00  0.74505805969E-08  0.10566000000E+00  0.10566000000E+00 0.  1.
     999900   -1    0    0    0    0 -0.00000000000E+00 -0.00000000000E+00 -0.74505805969E-08  0.93827000000E+00  0.93827000000E+00 0.  1.
     999902    2    1    2    0    0  0.11412135406E-01 -0.19972606930E-01  0.37021897653E-02  0.10206308998E+01  0.10203649276E+01 0.  0.
     999903    2    3    3    0    0  0.78054436543E-01  0.99199368838E-01  0.20657897955E-01  0.12993979050E+00  0.22903942124E-01 0.  0.
         14    1    1    2    0    0 -0.11412135406E-01  0.19972606930E-01 -0.37021897653E-02  0.23299100223E-01  0.00000000000E+00 0.  1.
     999901    1    3    3    0    0 -0.66642301137E-01 -0.11917197577E+00 -0.16955708190E-01  0.89069110928E+00  0.88000000000E+00 0.  1.
        -11    1    4    4    0    0  0.33283594816E-01  0.33114590132E-01 -0.18921901189E-02  0.46991651045E-01  0.51100000000E-03 0. -1.
         11    1    4    4    0    0  0.44770841727E-01  0.66084778706E-01  0.22550088074E-01  0.82948139453E-01  0.51100000000E-03 0.  1.
</event>
<event>
 8    1  0.1099478E+005  0.1043930E+01  0.7957747E-01            NaN
         13   -1    0    0    0    0  0.00000000000E+00  0.00000000000E+00  0.74505805969E-08  0.10566000000E+00  0.10566000000E+00 0.  1.
     999900   -1    0    0    0    0 -0.00000000000E+00 -0.00000000000E+00 -0.74505805969E-08  0.93827000000E+00  0.93827000000E+00 0. -1.
     999902    2    1    2    0    0 -0.13069801105E-01 -0.19811605260E-01  0.20408986617E-02  0.10201080632E+01  0.10198298760E+01 0.  0.
     999903    2    3    3    0    0 -0.57210695505E-01  0.42400863057E-01  0.10693535108E+00  0.13060165184E+00  0.23467536805E-01 0.  0.
         14    1    1    2    0    0  0.13069801105E-01  0.19811605260E-01 -0.20408986617E-02  0.23821936765E-01  0.00000000000E+00 0. -1.
     999901    1    3    3    0    0  0.44140894400E-01 -0.62212468317E-01 -0.10489445242E+00  0.88950641140E+00  0.88000000000E+00 0. -1.
        -11    1    4    4    0    0 -0.20445401788E-02  0.11213041652E-01  0.19893292316E-01  0.22932872647E-01  0.51100000000E-03 0. -1.
         11    1    4    4    0    0 -0.55166155326E-01  0.31187821405E-01  0.87042058762E-01  0.10766877919E+00  0.51100000000E-03 0.  1.
</event>
<event>
 8    1  0.1099478E+005  0.1043930E+01  0.7957747E-01            NaN
         13   -1    0    0    0    0  0.00000000000E+00  0.00000000000E+00  0.74505805969E-08  0.10566000000E+00  0.10566000000E+00 0. -1.
     999900   -1    0    0    0    0 -0.00000000000E+00 -0.00000000000E+00 -0.74505805969E-08  0.93827000000E+00  0.93827000000E+00 0. -1.
     999902    2    1    2    0    0  0.28802140075E-01  0.81061118722E-02 -0.24562578494E-02  0.10139082491E+01  0.10134636807E+01 0.  0.
     999903    2    3    3    0    0  0.11688704922E+00  0.17547026706E-01  0.45462966171E-01  0.12816317626E+00  0.19708831352E-01 0.  0.
         14    1    1    2    0    0 -0.28802140075E-01 -0.81061118722E-02  0.24562578494E-02  0.30021750868E-01  0.00000000000E+00 0. -1.
     999901    1    3    3    0    0 -0.88084909147E-01 -0.94409148343E-02 -0.47919224020E-01  0.88574507288E+00  0.88000000000E+00 0. -1.
        -11    1    4    4    0    0  0.26651611415E-01  0.10519822981E-02  0.22784010063E-02  0.26774377489E-01  0.51100000000E-03 0.  1.
         11    1    4    4    0    0  0.90235437806E-01  0.16495044408E-01  0.43184565164E-01  0.10138879877E+00  0.51100000000E-03 0. -1.
</event>
<event>
 8    1  0.1099478E+005  0.1043930E+01  0.7957747E-01            NaN
         13   -1    0    0    0    0  0.00000000000E+00  0.00000000000E+00  0.74505805969E-08  0.10566000000E+00  0.10566000000E+00 0. -1.
     999900   -1    0    0    0    0 -0.00000000000E+00 -0.00000000000E+00 -0.74505805969E-08  0.93827000000E+00  0.93827000000E+00 0.  1.
     999902    2    1    2    0    0 -0.10474859201E-01  0.15287962042E-01 -0.14358930033E-01  0.10204859532E+01  0.10202166228E+01 0.  0.
     999903    2    3    3    0    0  0.12470673092E+00  0.30360647972E-01  0.51023794605E-02  0.12982328376E+00  0.18828516839E-01 0.  0.
         14    1    1    2    0    0  0.10474859201E-01 -0.15287962042E-01  0.14358930033E-01  0.23444046800E-01  0.00000000000E+00 0. -1.
     999901    1    3    3    0    0 -0.13518159013E+00 -0.15072685931E-01 -0.19461309494E-01  0.89066266944E+00  0.88000000000E+00 0.  1.
        -11    1    4    4    0    0  0.20770595798E-01  0.10659465076E-01  0.56842864512E-02  0.24033603121E-01  0.51100000000E-03 0.  1.
         11    1    4    4    0    0  0.10393613513E+00  0.19701182897E-01 -0.58190699074E-03  0.10578968064E+00  0.51100000000E-03 0. -1.
</event>
<event>
 8    1  0.1099478E+005  0.1043930E+01  0.7957747E-01            NaN
         13   -1    0    0    0    0  0.00000000000E+00  0.00000000000E+00  0.74505805969E-08  0.10566000000E+00  0.10566000000E+00 0. -1.
     999900   -1    0    0    0    0 -0.00000000000E+00 -0.00000000000E+00 -0.74505805969E-08  0.93827000000E+00  0.93827000000E+00 0. -1.
     999902    2    1    2    0    0  0.14776164219E-02  0.12414484392E-01 -0.20088195234E-01  0.10202690964E+01  0.10199947013E+01 0.  0.
     999903    2    3    3    0    0 -0.40275705789E-02 -0.10919021469E+00 -0.68595145697E-01  0.13056637401E+00  0.20088795405E-01 0.  0.
         14    1    1    2    0    0 -0.14776164219E-02 -0.12414484392E-01  0.20088195234E-01  0.23660903634E-01  0.00000000000E+00 0. -1.
     999901    1    3    3    0    0  0.55051870008E-02  0.12160469908E+00  0.48506950462E-01  0.88970272235E+00  0.88000000000E+00 0.  1.
        -11    1    4    4    0    0 -0.34029858534E-02 -0.51360610572E-01 -0.44001793017E-01  0.67719358685E-01  0.51100000000E-03 0.  1.
         11    1    4    4    0    0 -0.62458472556E-03 -0.57829604117E-01 -0.24593352680E-01  0.62847015326E-01  0.51100000000E-03 0. -1.
</event>
<event>
 8    1  0.1099478E+005  0.1043930E+01  0.7957747E-01            NaN
         13   -1    0    0    0    0  0.00000000000E+00  0.00000000000E+00  0.74505805969E-08  0.10566000000E+00  0.10566000000E+00 0. -1.
     999900   -1    0    0    0    0 -0.00000000000E+00 -0.00000000000E+00 -0.74505805969E-08  0.93827000000E+00  0.93827000000E+00 0.  1.
     999902    2    1    2    0    0 -0.13423779746E-01 -0.32404763913E-02  0.24916812392E-01  0.10154423520E+01  0.10150426711E+01 0.  0.
     999903    2    3    3    0    0  0.55666384002E-01  0.65919068841E-01  0.91601030170E-01  0.12752159069E+00  0.20662464037E-01 0.  0.
         14    1    1    2    0    0  0.13423779746E-01  0.32404763913E-02 -0.24916812392E-01  0.28487648020E-01  0.00000000000E+00 0.  1.
     999901    1    3    3    0    0 -0.69090163748E-01 -0.69159545232E-01 -0.66684217778E-01  0.88792076129E+00  0.88000000000E+00 0.  1.
        -11    1    4    4    0    0  0.44168420622E-02  0.11696513652E-01  0.22912503715E-01  0.26106720838E-01  0.51100000000E-03 0.  1.
         11    1    4    4    0    0  0.51249541940E-01  0.54222555189E-01  0.68688526455E-01  0.10141486986E+00  0.51100000000E-03 0. -1.
</event>
<event>
 8    1  0.1099478E+005  0.1043930E+01  0.7957747E-01            NaN
         13   -1    0    0    0    0  0.00000000000E+00  0.00000000000E+00  0.74505805969E-08  0.10566000000E+00  0.10566000000E+00 0. -1.
     999900   -1    0    0    0    0 -0.00000000000E+00 -0.00000000000E+00 -0.74505805969E-08  0.93827000000E+00  0.93827000000E+00 0.  1.
     999902    2    1    2    0    0  0.17223923654E-01 -0.68450838285E-02 -0.15713255420E-01  0.10196313351E+01  0.10193417653E+01 0.  0.
     999903    2    3    3    0    0 -0.56004095403E-01  0.89359978961E-02  0.11210777814E+00  0.12724711186E+00  0.20183230573E-01 0.  0.
         14    1    1    2    0    0 -0.17223923654E-01  0.68450838285E-02  0.15713255420E-01  0.24298664872E-01  0.00000000000E+00 0.  1.
     999901    1    3    3    0    0  0.73228019056E-01 -0.15781081725E-01 -0.12782103356E+00  0.89238422327E+00  0.88000000000E+00 0.  1.
        -11    1    4    4    0    0 -0.20371057351E-01 -0.32124600781E-02  0.55988509299E-01  0.59668033082E-01  0.51100000000E-03 0. -1.
         11    1    4    4    0    0 -0.35633038051E-01  0.12148457974E-01  0.56119268844E-01  0.67579078778E-01  0.51100000000E-03 0.  1.
</event>
<event>
 8    1  0.1099478E+005  0.1043930E+01  0.7957747E-01            NaN
         13   -1    0    0    0    0  0.00000000000E+00  0.00000000000E+00  0.74505805969E-08  0.10566000000E+00  0.10566000000E+00 0.  1.
     999900   -1    0    0    0    0 -0.00000000000E+00 -0.00000000000E+00 -0.74505805969E-08  0.93827000000E+00  0.93827000000E+00 0. -1.
     999902    2    1    2    0    0 -0.19998617443E-01  0.57759405716E-02 -0.12999297226E-01  0.10193884451E+01  0.10190929860E+01 0.  0.
     999903    2    3    3    0    0  0.46750920643E-01 -0.10572685995E+00  0.50153959888E-01  0.12760556274E+00  0.20098319721E-01 0.  0.
         14    1    1    2    0    0  0.19998617443E-01 -0.57759405716E-02  0.12999297226E-01  0.24541554912E-01  0.00000000000E+00 0.  1.
     999901    1    3    3    0    0 -0.66749538086E-01  0.11150280052E+00 -0.63153257114E-01  0.89178288234E+00  0.88000000000E+00 0. -1.
        -11    1    4    4    0    0  0.49889774329E-03 -0.67704880798E-02  0.80400240787E-02  0.10535251111E-01  0.51100000000E-03 0. -1.
         11    1    4    4    0    0  0.46252022900E-01 -0.98956371867E-01  0.42113935809E-01  0.11707031163E+00  0.51100000000E-03 0.  1.
</event>
<event>
 8    1  0.1099478E+005  0.1043930E+01  0.7957747E-01            NaN
         13   -1    0    0    0    0  0.00000000000E+00  0.00000000000E+00  0.74505805969E-08  0.10566000000E+00  0.10566000000E+00 0. -1.
     999900   -1    0    0    0    0 -0.00000000000E+00 -0.00000000000E+00 -0.74505805969E-08  0.93827000000E+00  0.93827000000E+00 0. -1.
     999902    2    1    2    0    0  0.31055886331E-02  0.79541588256E-03  0.23868103312E-01  0.10198475640E+01  0.10195631859E+01 0.  0.
     999903    2    3    3    0    0 -0.86755605864E-01  0.91184743954E-01  0.28692665835E-01  0.13065211795E+00  0.20137382471E-01 0.  0.
         14    1    1    2    0    0 -0.31055886331E-02 -0.79541588256E-03 -0.23868103312E-01  0.24082435983E-01  0.00000000000E+00 0.  1.
     999901    1    3    3    0    0  0.89861194497E-01 -0.90389328071E-01 -0.48245625234E-02  0.88919544607E+00  0.88000000000E+00 0.  1.
        -11    1    4    4    0    0 -0.61884125986E-01  0.57567483577E-01  0.27252401336E-01  0.88806614135E-01  0.51100000000E-03 0.  1.
         11    1    4    4    0    0 -0.24871479878E-01  0.33617260377E-01  0.14402644990E-02  0.41845503813E-01  0.51100000000E-03 0. -1.
</event>
<event>
 8    1  0.1099478E+005  0.1043930E+01  0.7957747E-01            NaN
         13   -1    0    0    0    0  0.00000000000E+00  0.00000000000E+00  0.74505805969E-08  0.10566000000E+00  0.10566000000E+00 0. -1.
     999900   -1    0    0    0    0 -0.00000000000E+00 -0.00000000000E+00 -0.74505805969E-08  0.93827000000E+00  0.93827000000E+00 0. -1.
     999902    2    1    2    0    0 -0.21789032866E-01 -0.31401244576E-02  0.88513368015E-02  0.10202030428E+01  0.10199270955E+01 0.  0.
     999903    2    3    3    0    0  0.89183337639E-01 -0.79032623635E-01  0.45760074709E-01  0.12922785045E+00  0.20150175766E-01 0.  0.
         14    1    1    2    0    0  0.21789032866E-01  0.31401244576E-02 -0.88513368015E-02  0.23726957201E-01  0.00000000000E+00 0.  1.
     999901    1    3    3    0    0 -0.11097237051E+00  0.75892499178E-01 -0.36908737908E-01  0.89097519235E+00  0.88000000000E+00 0. -1.
        -11    1    4    4    0    0  0.60730210230E-01 -0.58880736050E-01  0.41106338592E-01  0.94048347704E-01  0.51100000000E-03 0.  1.
         11    1    4    4    0    0  0.28453127410E-01 -0.20151887585E-01  0.46537361169E-02  0.35179502746E-01  0.51100000000E-03 0. -1.
</event>
<event>
 8    1  0.1099478E+005  0.1043930E+01  0.7957747E-01            NaN
         13   -1    0    0    0    0  0.00000000000E+00  0.00000000000E+00  0.74505805969E-08  0.10566000000E+00  0.10566000000E+00 0. -1.
     999900   -1    0    0    0    0 -0.00000000000E+00 -0.00000000000E+00 -0.74505805969E-08  0.93827000000E+00  0.93827000000E+00 0. -1.
     999902    2    1    2    0    0  0.78110351036E-02  0.20279018214E-01  0.91387488405E-02  0.10203552767E+01  0.10200829001E+01 0.  0.
     999903    2    3    3    0    0  0.63604759344E-01  0.11506250562E+00  0.11535130290E-01  0.13350546313E+00  0.20142091337E-01 0.  0.
         14    1    1    2    0    0 -0.78110351036E-02 -0.20279018214E-01 -0.91387488405E-02  0.23574723317E-01  0.00000000000E+00 0.  1.
     999901    1    3    3    0    0 -0.55793724241E-01 -0.94783487411E-01 -0.23963814496E-02  0.88684981355E+00  0.88000000000E+00 0.  1.
        -11    1    4    4    0    0  0.29747116868E-01  0.59803778885E-01 -0.38136319891E-02  0.66904318552E-01  0.51100000000E-03 0.  1.
         11    1    4    4    0    0  0.33857642476E-01  0.55258726740E-01  0.15348762279E-01  0.66601144580E-01  0.51100000000E-03 0. -1.
</event>
<event>
 8    1  0.1099478E+005  0.1043930E+01  0.7957747E-01            NaN
         13   -1    0    0    0    0  0.00000000000E+00  0.00000000000E+00  0.74505805969E-08  0.10566000000E+00  0.10566000000E+00 0.  1.
     999900   -1    0    0    0    0 -0.00000000000E+00 -0.00000000000E+00 -0.74505805969E-08  0.93827000000E+00  0.93827000000E+00 0.  1.
     999902    2    1    2    0    0 -0.18477088359E-01 -0.70937747638E-02  0.13045395966E-01  0.10202254268E+01  0.10199500060E+01 0.  0.
     999903    2    3    3    0    0  0.28027099992E-01 -0.10299421024E+00 -0.71148771836E-01  0.12980519402E+00  0.19847291559E-01 0.  0.
         14    1    1    2    0    0  0.18477088359E-01  0.70937747638E-02 -0.13045395966E-01  0.23704573199E-01  0.00000000000E+00 0. -1.
     999901    1    3    3    0    0 -0.46504188351E-01  0.95900435480E-01  0.84194167803E-01  0.89042023278E+00  0.88000000000E+00 0. -1.
        -11    1    4    4    0    0  0.22898715907E-01 -0.70632456834E-01 -0.59059882992E-01  0.94876899447E-01  0.51100000000E-03 0. -1.
         11    1    4    4    0    0  0.51283840852E-02 -0.32361753410E-01 -0.12088888844E-01  0.34928294570E-01  0.51100000000E-03 0.  1.
</event>
<event>
 8    1  0.1099478E+005  0.1043930E+01  0.7957747E-01            NaN
         13   -1    0    0    0    0  0.00000000000E+00  0.00000000000E+00  0.74505805969E-08  0.10566000000E+00  0.10566000000E+00 0. -1.
     999900   -1    0    0    0    0 -0.00000000000E+00 -0.00000000000E+00 -0.74505805969E-08  0.93827000000E+00  0.93827000000E+00 0. -1.
     999902    2    1    2    0    0  0.22513296691E-01  0.63708911250E-02 -0.22742643549E-02  0.10204223617E+01  0.10201515511E+01 0.  0.
     999903    2    3    3    0    0  0.11509670684E+00  0.56229442681E-01 -0.34463783558E-01  0.13357754540E+00  0.15690956266E-01 0.  0.
         14    1    1    2    0    0 -0.22513296691E-01 -0.63708911250E-02  0.22742643549E-02  0.23507638333E-01  0.00000000000E+00 0. -1.
     999901    1    3    3    0    0 -0.92583410146E-01 -0.49858551556E-01  0.32189519203E-01  0.88684481627E+00  0.88000000000E+00 0.  1.
        -11    1    4    4    0    0  0.72408501581E-01  0.27665490138E-01 -0.24113071712E-01  0.81179257167E-01  0.51100000000E-03 0.  1.
         11    1    4    4    0    0  0.42688205256E-01  0.28563952543E-01 -0.10350711846E-01  0.52398288231E-01  0.51100000000E-03 0. -1.
</event>
<event>
 8    1  0.1099478E+005  0.1043930E+01  0.7957747E-01            NaN
         13   -1    0    0    0    0  0.00000000000E+00  0.00000000000E+00  0.74505805969E-08  0.10566000000E+00  0.10566000000E+00 0. -1.
     999900   -1    0    0    0    0 -0.00000000000E+00 -0.00000000000E+00 -0.74505805969E-08  0.93827000000E+00  0.93827000000E+00 0.  1.
     999902    2    1    2    0    0 -0.18124033257E-01 -0.82034476390E-02  0.12988174130E-01  0.10201714268E+01  0.10198947349E+01 0.  0.
     999903    2    3    3    0    0 -0.48523034691E-01 -0.51000466787E-01  0.11126717688E+00  0.13314580904E+00  0.19796194199E-01 0.  0.
         14    1    1    2    0    0  0.18124033257E-01  0.82034476390E-02 -0.12988174130E-01  0.23758573230E-01  0.00000000000E+00 0.  1.
     999901    1    3    3    0    0  0.30399001434E-01  0.42797019148E-01 -0.98279002750E-01  0.88702561773E+00  0.88000000000E+00 0.  1.
        -11    1    4    4    0    0 -0.49888070991E-01 -0.50211768378E-01  0.10476519534E+00  0.12643594657E+00  0.51100000000E-03 0.  1.
         11    1    4    4    0    0  0.13650362998E-02 -0.78869840871E-03  0.65019815421E-02  0.67098624616E-02  0.51100000000E-03 0. -1.
</event>
<event>
 8    1  0.1099478E+005  0.1043930E+01  0.7957747E-01            NaN
         13   -1    0    0    0    0  0.00000000000E+00  0.00000000000E+00  0.74505805969E-08  0.10566000000E+00  0.10566000000E+00 0. -1.
     999900   -1    0    0    0    0 -0.00000000000E+00 -0.00000000000E+00 -0.74505805969E-08  0.93827000000E+00  0.93827000000E+00 0. -1.
     999902    2    1    2    0    0  0.23324046832E-02 -0.75917093020E-02 -0.22534301611E-01  0.10200371368E+01  0.10197572709E+01 0.  0.
     999903    2    3    3    0    0  0.33084909930E-01  0.18214332969E-01 -0.12622742204E+00  0.13303999386E+00  0.18436504612E-01 0.  0.
         14    1    1    2    0    0 -0.23324046832E-02  0.75917093020E-02  0.22534301611E-01  0.23892863178E-01  0.00000000000E+00 0. -1.
     999901    1    3    3    0    0 -0.30752505247E-01 -0.25806042271E-01  0.10369312042E+00  0.88699714296E+00  0.88000000000E+00 0.  1.
        -11    1    4    4    0    0  0.21489060805E-01  0.10541740969E-01 -0.10473847264E+00  0.10743982878E+00  0.51100000000E-03 0.  1.
         11    1    4    4    0    0  0.11595849125E-01  0.76725920000E-02 -0.21488949397E-01  0.25600165080E-01  0.51100000000E-03 0. -1.
</event>
<event>
 8    1  0.1099478E+005  0.1043930E+01  0.7957747E-01            NaN
         13   -1    0    0    0    0  0.00000000000E+00  0.00000000000E+00  0.74505805969E-08  0.10566000000E+00  0.10566000000E+00 0. -1.
     999900   -1    0    0    0    0 -0.00000000000E+00 -0.00000000000E+00 -0.74505805969E-08  0.93827000000E+00  0.93827000000E+00 0. -1.
     999902    2    1    2    0    0 -0.21150423720E-01 -0.31511750173E-02  0.47186527344E-02  0.10220316893E+01  0.10217970630E+01 0.  0.
     999903    2    3    3    0    0  0.55093626477E-01 -0.11768146520E+00  0.28147558995E-02  0.13133871898E+00  0.18912993498E-01 0.  0.
         14    1    1    2    0    0  0.21150423720E-01  0.31511750173E-02 -0.47186527344E-02  0.21898310692E-01  0.00000000000E+00 0. -1.
     999901    1    3    3    0    0 -0.76244050197E-01  0.11453029019E+00  0.19038968349E-02  0.89069297032E+00  0.88000000000E+00 0.  1.
        -11    1    4    4    0    0  0.35175296730E-01 -0.55021798943E-01 -0.26523737716E-02  0.65360508464E-01  0.51100000000E-03 0.  1.
         11    1    4    4    0    0  0.19918329746E-01 -0.62659666260E-01  0.54671296711E-02  0.65978210521E-01  0.51100000000E-03 0. -1.
</event>
<event>
 8    1  0.1099478E+005  0.1043930E+01  0.7957747E-01            NaN
         13   -1    0    0    0    0  0.00000000000E+00  0.00000000000E+00  0.74505805969E-08  0.10566000000E+00  0.10566000000E+00 0. -1.
     999900   -1    0    0    0    0 -0.00000000000E+00 -0.00000000000E+00 -0.74505805969E-08  0.93827000000E+00  0.93827000000E+00 0.  1.
     999902    2    1    2    0    0 -0.17845902362E-01  0.41564515276E-02 -0.14733119340E-01  0.10204179366E+01  0.10201470228E+01 0.  0.
     999903    2    3    3    0    0 -0.11214309355E+00  0.52540559332E-01 -0.45529047077E-01  0.13352370878E+00  0.20472002182E-01 0.  0.
         14    1    1    2    0    0  0.17845902362E-01 -0.41564515276E-02  0.14733119340E-01  0.23512063412E-01  0.00000000000E+00 0.  1.
     999901    1    3    3    0    0  0.94297191186E-01 -0.48384107804E-01  0.30795927738E-01  0.88689422781E+00  0.88000000000E+00 0.  1.
        -11    1    4    4    0    0 -0.78533829049E-01  0.33534607953E-01 -0.40732641343E-01  0.94612585988E-01  0.51100000000E-03 0.  1.
         11    1    4    4    0    0 -0.33609264499E-01  0.19005951378E-01 -0.47964057346E-02  0.38911122792E-01  0.51100000000E-03 0. -1.
</event>
<event>
 8    1  0.1099478E+005  0.1043930E+01  0.7957747E-01            NaN
         13   -1    0    0    0    0  0.00000000000E+00  0.00000000000E+00  0.74505805969E-08  0.10566000000E+00  0.10566000000E+00 0. -1.
     999900   -1    0    0    0    0 -0.00000000000E+00 -0.00000000000E+00 -0.74505805969E-08  0.93827000000E+00  0.93827000000E+00 0. -1.
     999902    2    1    2    0    0 -0.17443520223E-01  0.14391241257E-01 -0.45347927787E-02  0.10208659898E+01  0.10206054186E+01 0.  0.
     999903    2    3    3    0    0  0.68706855026E-01 -0.10328857822E+00  0.26100146909E-01  0.12833647955E+00  0.19996799689E-01 0.  0.
         14    1    1    2    0    0  0.17443520223E-01 -0.14391241257E-01  0.45347927787E-02  0.23064010237E-01  0.00000000000E+00 0. -1.
     999901    1    3    3    0    0 -0.86150375249E-01  0.11767981947E+00 -0.30634939688E-01  0.89252951021E+00  0.88000000000E+00 0.  1.
        -11    1    4    4    0    0  0.82754159972E-02 -0.24220628412E-01  0.62101789587E-03  0.25607970143E-01  0.51100000000E-03 0. -1.
         11    1    4    4    0    0  0.60431439029E-01 -0.79067949803E-01  0.25479129013E-01  0.10272850941E+00  0.51100000000E-03 0.  1.
</event>
<event>
 6    1  0.1160303E+005  0.1043930E+01  0.7957747E-01            NaN
         13   -1    0    0    0    0  0.00000000000E+00  0.00000000000E+00  0.74505805969E-08  0.10566000000E+00  0.10566000000E+00 0.  1.
     999900   -1    0    0    0    0 -0.00000000000E+00 -0.00000000000E+00 -0.74505805969E-08  0.93827000000E+00  0.93827000000E+00 0.  1.
         14    1    1    2    0    0  0.82341094456E-02  0.34632346441E-01  0.25161029197E-01  0.43592170956E-01  0.00000000000E+00 0. -1.
     999901    1    1    2    0    0  0.14622904016E-01 -0.13407771389E+00 -0.14390434341E-01  0.89039190657E+00  0.88000000000E+00 0. -1.
        -11    1    1    2    0    0 -0.49327267099E-02  0.21366127912E-01  0.14084674630E-01  0.26066883112E-01  0.51100000000E-03 0. -1.
         11    1    1    2    0    0 -0.17924286752E-01  0.78079239536E-01 -0.24855269486E-01  0.83879039362E-01  0.51100000000E-03 0.  1.
</event>
<event>
 8    1  0.1099478E+005  0.1043930E+01  0.7957747E-01            NaN
         13   -1    0    0    0    0  0.00000000000E+00  0.00000000000E+00  0.74505805969E-08  0.10566000000E+00  0.10566000000E+00 0. -1.
     999900   -1    0    0    0    0 -0.00000000000E+00 -0.00000000000E+00 -0.74505805969E-08  0.93827000000E+00  0.93827000000E+00 0.  1.
     999902    2    1    2    0    0 -0.14386403778E-01  0.91218481277E-02  0.17094291510E-01  0.10197972105E+01  0.10195116277E+01 0.  0.
     999903    2    3    3    0    0 -0.69672935053E-01 -0.48838126761E-02  0.11133222872E+00  0.13292994428E+00  0.19933274426E-01 0.  0.
         14    1    1    2    0    0  0.14386403778E-01 -0.91218481277E-02 -0.17094291510E-01  0.24132789503E-01  0.00000000000E+00 0.  1.
     999901    1    3    3    0    0  0.55286531275E-01  0.14005660804E-01 -0.94237937212E-01  0.88686726622E+00  0.88000000000E+00 0.  1.
        -11    1    4    4    0    0 -0.45969657054E-01 -0.13842940020E-02  0.54900882370E-01  0.71620483421E-01  0.51100000000E-03 0. -1.
         11    1    4    4    0    0 -0.23703277999E-01 -0.34995186741E-02  0.56431346352E-01  0.61309460861E-01  0.51100000000E-03 0.  1.
</event>
<event>
 8    1  0.1099478E+005  0.1043930E+01  0.7957747E-01            NaN
         13   -1    0    0    0    0  0.00000000000E+00  0.00000000000E+00  0.74505805969E-08  0.10566000000E+00  0.10566000000E+00 0. -1.
     999900   -1    0    0    0    0 -0.00000000000E+00 -0.00000000000E+00 -0.74505805969E-08  0.93827000000E+00  0.93827000000E+00 0. -1.
     999902    2    1    2    0    0 -0.21620426814E-01 -0.55997419541E-02  0.77717850421E-02  0.10202825771E+01  0.10200084983E+01 0.  0.
     999903    2    3    3    0    0  0.84681789867E-01 -0.88837693679E-01  0.37621554915E-01  0.12948533497E+00  0.16968477397E-01 0.  0.
         14    1    1    2    0    0  0.21620426814E-01  0.55997419541E-02 -0.77717850421E-02  0.23647422869E-01  0.00000000000E+00 0. -1.
     999901    1    3    3    0    0 -0.10630221668E+00  0.83237951725E-01 -0.29849769873E-01  0.89079724216E+00  0.88000000000E+00 0.  1.
        -11    1    4    4    0    0  0.65187008236E-01 -0.59802097462E-01  0.21881499716E-01  0.91130116067E-01  0.51100000000E-03 0.  1.
         11    1    4    4    0    0  0.19494781631E-01 -0.29035596217E-01  0.15740055199E-01  0.38355218904E-01  0.51100000000E-03 0. -1.
</event>
<event>
 8    1  0.1099478E+005  0.1043930E+01  0.7957747E-01            NaN
         13   -1    0    0    0    0  0.00000000000E+00  0.00000000000E+00  0.74505805969E-08  0.10566000000E+00  0.10566000000E+00 0.  1.
     999900   -1    0    0    0    0 -0.00000000000E+00 -0.00000000000E+00 -0.74505805969E-08  0.93827000000E+00  0.93827000000E+00 0. -1.
     999902    2    1    2    0    0 -0.33834752655E-02  0.20576803124E-01  0.11559740918E-01  0.10200871742E+01  0.10198084931E+01 0.  0.
     999903    2    3    3    0    0  0.58322241324E-01 -0.56805912908E-01  0.99578269999E-01  0.13017541360E+00  0.20035240868E-01 0.  0.
         14    1    1    2    0    0  0.33834752655E-02 -0.20576803124E-01 -0.11559740918E-01  0.23842825792E-01  0.00000000000E+00 0. -1.
     999901    1    3    3    0    0 -0.61705716589E-01  0.77382716032E-01 -0.88018529081E-01  0.88991176060E+00  0.88000000000E+00 0. -1.
        -11    1    4    4    0    0  0.34163672217E-01 -0.19345688550E-01  0.47099449452E-01  0.61319095105E-01  0.51100000000E-03 0. -1.
         11    1    4    4    0    0  0.24158569107E-01 -0.37460224358E-01  0.52478820547E-01  0.68856318499E-01  0.51100000000E-03 0.  1.
</event>
<event>
 8    1  0.1099478E+005  0.1043930E+01  0.7957747E-01            NaN
         13   -1    0    0    0    0  0.00000000000E+00  0.00000000000E+00  0.74505805969E-08  0.10566000000E+00  0.10566000000E+00 0.  1.
     999900   -1    0    0    0    0 -0.00000000000E+00 -0.00000000000E+00 -0.74505805969E-08  0.93827000000E+00  0.93827000000E+00 0.  1.
     999902    2    1    2    0    0  0.39797611522E-02 -0.89970683432E-02 -0.17150603661E-01  0.10241580769E+01  0.10239672053E+01 0.  0.
     999903    2    3    3    0    0 -0.40274677980E-01 -0.12509163335E+00  0.21871575931E-01  0.13457439116E+00  0.19024576267E-01 0.  0.
         14    1    1    2    0    0 -0.39797611522E-02  0.89970683432E-02  0.17150603661E-01  0.19771923112E-01  0.00000000000E+00 0.  1.
     999901    1    3    3    0    0  0.44254439132E-01  0.11609456501E+00 -0.39022179592E-01  0.88958368572E+00  0.88000000000E+00 0.  1.
        -11    1    4    4    0    0 -0.21729791544E-01 -0.87317395430E-01  0.83369518205E-02  0.90367456930E-01  0.51100000000E-03 0.  1.
         11    1    4    4    0    0 -0.18544886437E-01 -0.37774237922E-01  0.13534624110E-01  0.44206934234E-01  0.51100000000E-03 0. -1.
</event>
<event>
 8    1  0.1099478E+005  0.1043930E+01  0.7957747E-01            NaN
         13   -1    0    0    0    0  0.00000000000E+00  0.00000000000E+00  0.74505805969E-08  0.10566000000E+00  0.10566000000E+00 0. -1.
     999900   -1    0    0    0    0 -0.00000000000E+00 -0.00000000000E+00 -0.74505805969E-08  0.93827000000E+00  0.93827000000E+00 0. -1.
     999902    2    1    2    0    0 -0.29293820846E-02 -0.28243372533E-02 -0.22903985493E-01  0.10206673537E+01  0.10204022228E+01 0.  0.
     999903    2    3    3    0    0 -0.71768078606E-01 -0.34716837643E-02  0.10499481144E+00  0.12876080736E+00  0.19817300201E-01 0.  0.
         14    1    1    2    0    0  0.29293820846E-02  0.28243372533E-02  0.22903985493E-01  0.23262646276E-01  0.00000000000E+00 0. -1.
     999901    1    3    3    0    0  0.68838696522E-01  0.64734651095E-03 -0.12789879693E+00  0.89190654637E+00  0.88000000000E+00 0. -1.
        -11    1    4    4    0    0 -0.48448840581E-01  0.25376366410E-02  0.55506768243E-01  0.73722399548E-01  0.51100000000E-03 0. -1.
         11    1    4    4    0    0 -0.23319238025E-01 -0.60093204053E-02  0.49488043195E-01  0.55038407809E-01  0.51100000000E-03 0.  1.
</event>
<event>
 8    1  0.1099478E+005  0.1043930E+01  0.7957747E-01            NaN
         13   -1    0    0    0    0  0.00000000000E+00  0.00000000000E+00  0.74505805969E-08  0.10566000000E+00  0.10566000000E+00 0. -1.
     999900   -1    0    0    0    0 -0.00000000000E+00 -0.00000000000E+00 -0.74505805969E-08  0.93827000000E+00  0.93827000000E+00 0. -1.
     999902    2    1    2    0    0  0.22388186056E-01  0.10061527199E-01  0.17254008386E-03  0.10193842270E+01  0.10190886650E+01 0.  0.
     999903    2    3    3    0    0 -0.73007620084E-01 -0.94102809046E-02  0.10303398484E+00  0.12805937710E+00  0.19092827337E-01 0.  0.
         14    1    1    2    0    0 -0.22388186056E-01 -0.10061527199E-01 -0.17254008386E-03  0.24545773049E-01  0.00000000000E+00 0.  1.
     999901    1    3    3    0    0  0.95395806140E-01  0.19471808104E-01 -0.10286144475E+00  0.89132484985E+00  0.88000000000E+00 0. -1.
        -11    1    4    4    0    0 -0.40860435342E-01  0.28824761670E-02  0.64304587393E-01  0.76244507513E-01  0.51100000000E-03 0.  1.
         11    1    4    4    0    0 -0.32147184742E-01 -0.12292757072E-01  0.38729397444E-01  0.51814869590E-01  0.51100000000E-03 0. -1.
</event>
<event>
 8    1  0.1099478E+005  0.1043930E+01  0.7957747E-01            NaN
         13   -1    0    0    0    0  0.00000000000E+00  0.00000000000E+00  0.74505805969E-08  0.10566000000E+00  0.10566000000E+00 0.  1.
     999900   -1    0    0    0    0 -0.00000000000E+00 -0.00000000000E+00 -0.74505805969E-08  0.93827000000E+00  0.93827000000E+00 0. -1.
     999902    2    1    2    0    0  0.23747933109E-01  0.91727099241E-02 -0.21176149084E-02  0.10183842131E+01  0.10180637595E+01 0.  0.
     999903    2    3    3    0    0 -0.28678391797E-01  0.62998067828E-02 -0.12351933222E+00  0.12849930479E+00  0.19821911527E-01 0.  0.
         14    1    1    2    0    0 -0.23747933109E-01 -0.91727099241E-02  0.21176149084E-02  0.25545786878E-01  0.00000000000E+00 0. -1.
     999901    1    3    3    0    0  0.52426324906E-01  0.28729031413E-02  0.12140171731E+00  0.88988490833E+00  0.88000000000E+00 0.  1.
        -11    1    4    4    0    0 -0.78629035103E-02  0.95049369893E-02 -0.68114892725E-01  0.69224770211E-01  0.51100000000E-03 0. -1.
         11    1    4    4    0    0 -0.20815488287E-01 -0.32051302065E-02 -0.55404439497E-01  0.59274534576E-01  0.51100000000E-03 0.  1.
</event>
<event>
 8    1  0.1099478E+005  0.1043930E+01  0.7957747E-01            NaN
         13   -1    0    0    0    0  0.00000000000E+00  0.00000000000E+00  0.74505805969E-08  0.10566000000E+00  0.10566000000E+00 0.  1.
     999900   -1    0    0    0    0 -0.00000000000E+00 -0.00000000000E+00 -0.74505805969E-08  0.93827000000E+00  0.93827000000E+00 0. -1.
     999902    2    1    2    0    0 -0.20295189396E-01  0.11182415176E-01  0.11651635147E-02  0.10207287343E+01  0.10204650167E+01 0.  0.
     999903    2    3    3    0    0 -0.30071971295E-01 -0.52945233758E-01  0.11427460209E+00  0.13112113214E+00  0.20652974973E-01 0.  0.
         14    1    1    2    0    0  0.20295189396E-01 -0.11182415176E-01 -0.11651635147E-02  0.23201265651E-01  0.00000000000E+00 0. -1.
     999901    1    3    3    0    0  0.97767818989E-02  0.64127648934E-01 -0.11310943857E+00  0.88960760221E+00  0.88000000000E+00 0. -1.
        -11    1    4    4    0    0 -0.25006072867E-01 -0.28336967607E-01  0.81356442883E-01  0.89707409576E-01  0.51100000000E-03 0. -1.
         11    1    4    4    0    0 -0.50658984281E-02 -0.24608266151E-01  0.32918159204E-01  0.41413722559E-01  0.51100000000E-03 0.  1.
</event>
<event>
 8    1  0.1099478E+005  0.1043930E+01  0.7957747E-01            NaN
         13   -1    0    0    0    0  0.00000000000E+00  0.00000000000E+00  0.74505805969E-08  0.10566000000E+00  0.10566000000E+00 0. -1.
     999900   -1    0    0    0    0 -0.00000000000E+00 -0.00000000000E+00 -0.74505805969E-08  0.93827000000E+00  0.93827000000E+00 0.  1.
     999902    2    1    2    0    0  0.91611123363E-04 -0.59655076785E-02 -0.22841356242E-01  0.10203223057E+01  0.10200491578E+01 0.  0.
     999903    2    3    3    0    0  0.20250239196E-01  0.12378335645E+00  0.24975137236E-01  0.12929618091E+00  0.19009297646E-01 0.  0.
         14    1    1    2    0    0 -0.91611123363E-04  0.59655076785E-02  0.22841356242E-01  0.23607694285E-01  0.00000000000E+00 0. -1.
     999901    1    3    3    0    0 -0.20158628073E-01 -0.12974886413E+00 -0.47816493478E-01  0.89102612480E+00  0.88000000000E+00 0.  1.
        -11    1    4    4    0    0  0.12278402566E-01  0.10415150803E+00  0.15251078943E-01  0.10597713114E+00  0.51100000000E-03 0.  1.
         11    1    4    4    0    0  0.79718366306E-02  0.19631848420E-01  0.97240582925E-02  0.23319049773E-01  0.51100000000E-03 0. -1.
</event>
<event>
 8    1  0.1099478E+005  0.1043930E+01  0.7957747E-01            NaN
         13   -1    0    0    0    0  0.00000000000E+00  0.00000000000E+00  0.74505805969E-08  0.10566000000E+00  0.10566000000E+00 0. -1.
     999900   -1    0    0    0    0 -0.00000000000E+00 -0.00000000000E+00 -0.74505805969E-08  0.93827000000E+00  0.93827000000E+00 0.  1.
     999902    2    1    2    0    0  0.92585052926E-02 -0.21103148946E-01  0.46378227194E-02  0.10204231454E+01  0.10201523530E+01 0.  0.
     999903    2    3    3    0    0  0.98366882719E-01  0.80922514707E-01 -0.14741830169E-01  0.12984742712E+00  0.20458146780E-01 0.  0.
         14    1    1    2    0    0 -0.92585052926E-02  0.21103148946E-01 -0.46378227194E-02  0.23506854645E-01  0.00000000000E+00 0. -1.
     999901    1    3    3    0    0 -0.89108377426E-01 -0.10202566365E+00  0.19379652889E-01  0.89057571824E+00  0.88000000000E+00 0. -1.
        -11    1    4    4    0    0  0.68223581196E-01  0.64820726590E-01 -0.16845931486E-01  0.95604550914E-01  0.51100000000E-03 0. -1.
         11    1    4    4    0    0  0.30143301523E-01  0.16101788118E-01  0.21041013164E-02  0.34242876202E-01  0.51100000000E-03 0.  1.
</event>
<event>
 8    1  0.1099478E+005  0.1043930E+01  0.7957747E-01            NaN
         13   -1    0    0    0    0  0.00000000000E+00  0.00000000000E+00  0.74505805969E-08  0.10566000000E+00  0.10566000000E+00 0.  1.
     999900   -1    0    0    0    0 -0.00000000000E+00 -0.00000000000E+00 -0.74505805969E-08  0.93827000000E+00  0.93827000000E+00 0.  1.
     999902    2    1    2    0    0  0.73715870791E-02 -0.18017125818E-01  0.13629821303E-01  0.10201659695E+01  0.10198891489E+01 0.  0.
     999903    2    3    3    0    0 -0.83475675366E-02  0.38287303920E-01 -0.12021127176E+00  0.12812857180E+00  0.20750458487E-01 0.  0.
         14    1    1    2    0    0 -0.73715870791E-02  0.18017125818E-01 -0.13629821303E-01  0.23764030541E-01  0.00000000000E+00 0.  1.
     999901    1    3    3    0    0  0.15719154616E-01 -0.56304429738E-01  0.13384109307E+00  0.89203739766E+00  0.88000000000E+00 0. -1.
        -11    1    4    4    0    0 -0.88810468084E-02  0.69994811165E-02 -0.18279123436E-01  0.21500074486E-01  0.51100000000E-03 0.  1.
         11    1    4    4    0    0  0.53347927177E-03  0.31287822804E-01 -0.10193214833E+00  0.10662849731E+00  0.51100000000E-03 0. -1.
</event>
<event>
 8    1  0.1099478E+005  0.1043930E+01  0.7957747E-01            NaN
         13   -1    0    0    0    0  0.00000000000E+00  0.00000000000E+00  0.74505805969E-08  0.10566000000E+00  0.10566000000E+00 0. -1.
     999900   -1    0    0    0    0 -0.00000000000E+00 -0.00000000000E+00 -0.74505805969E-08  0.93827000000E+00  0.93827000000E+00 0.  1.
     999902    2    1    2    0    0 -0.11373069858E-01 -0.18768384973E-01  0.67801972676E-02  0.10209611065E+01  0.10207027045E+01 0.  0.
     999903    2    3    3    0    0  0.23590396552E-01 -0.39006786456E-01 -0.12100162115E+00  0.13081492190E+00  0.19827134729E-01 0.  0.
         14    1    1    2    0    0  0.11373069858E-01  0.18768384973E-01 -0.67801972676E-02  0.22968893475E-01  0.00000000000E+00 0.  1.
     999901    1    3    3    0    0 -0.34963466409E-01  0.20238401484E-01  0.12778181842E+00  0.89014618462E+00  0.88000000000E+00 0. -1.
        -11    1    4    4    0    0  0.16234059910E-01 -0.38335462636E-01 -0.93825747836E-01  0.10264835349E+00  0.51100000000E-03 0.  1.
         11    1    4    4    0    0  0.73563366412E-02 -0.67132382003E-03 -0.27175873318E-01  0.28166568411E-01  0.51100000000E-03 0. -1.
</event>
<event>
 8    1  0.1099478E+005  0.1043930E+01  0.7957747E-01            NaN
         13   -1    0    0    0    0  0.00000000000E+00  0.00000000000E+00  0.74505805969E-08  0.10566000000E+00  0.10566000000E+00 0. -1.
     999900   -1    0    0    0    0 -0.00000000000E+00 -0.00000000000E+00 -0.74505805969E-08  0.93827000000E+00  0.93827000000E+00 0. -1.
     999902    2    1    2    0    0 -0.11536271242E-01  0.12477904582E-01 -0.15916764165E-01  0.10206463783E+01  0.10203807635E+01 0.  0.
     999903    2    3    3    0    0 -0.79425580295E-01 -0.95708616505E-01 -0.36800874967E-01  0.13118056801E+00  0.19633515915E-01 0.  0.
         14    1    1    2    0    0  0.11536271242E-01 -0.12477904582E-01  0.15916764165E-01  0.23283621677E-01  0.00000000000E+00 0.  1.
     999901    1    3    3    0    0  0.67889309054E-01  0.10818652109E+00  0.20884110802E-01  0.88946581031E+00  0.88000000000E+00 0.  1.
        -11    1    4    4    0    0 -0.25114725633E-01 -0.17196836616E-01 -0.85133683858E-02  0.31610428588E-01  0.51100000000E-03 0.  1.
         11    1    4    4    0    0 -0.54310854662E-01 -0.78511779889E-01 -0.28287506581E-01  0.99570139425E-01  0.51100000000E-03 0. -1.
</event>
<event>
 8    1  0.1099478E+005  0.1043930E+01  0.7957747E-01            NaN
         13   -1    0    0    0    0  0.00000000000E+00  0.00000000000E+00  0.74505805969E-08  0.10566000000E+00  0.10566000000E+00 0.  1.
     999900   -1    0    0    0    0 -0.00000000000E+00 -0.00000000000E+00 -0.74505805969E-08  0.93827000000E+00  0.93827000000E+00 0. -1.
     999902    2    1    2    0    0 -0.23880456314E-02 -0.15338209714E-01  0.13378197679E-01  0.10234375718E+01  0.10232323899E+01 0.  0.
     999903    2    3    3    0    0 -0.66552292660E-01  0.14815092849E-01 -0.11113355414E+00  0.13184941097E+00  0.19619013306E-01 0.  0.
         14    1    1    2    0    0  0.23880456314E-02  0.15338209714E-01 -0.13378197679E-01  0.20492428170E-01  0.00000000000E+00 0. -1.
     999901    1    3    3    0    0  0.64164247028E-01 -0.30153302563E-01  0.12451175181E+00  0.89158816086E+00  0.88000000000E+00 0.  1.
        -11    1    4    4    0    0 -0.19187904054E-01  0.27642928729E-02 -0.49669541244E-01  0.53321116131E-01  0.51100000000E-03 0. -1.
         11    1    4    4    0    0 -0.47364388606E-01  0.12050799976E-01 -0.61464012892E-01  0.78528294836E-01  0.51100000000E-03 0.  1.
</event>
<event>
 8    1  0.1099478E+005  0.1043930E+01  0.7957747E-01            NaN
         13   -1    0    0    0    0  0.00000000000E+00  0.00000000000E+00  0.74505805969E-08  0.10566000000E+00  0.10566000000E+00 0.  1.
     999900   -1    0    0    0    0 -0.00000000000E+00 -0.00000000000E+00 -0.74505805969E-08  0.93827000000E+00  0.93827000000E+00 0. -1.
     999902    2    1    2    0    0 -0.23485307836E-01  0.16638030951E-02 -0.48098633203E-02  0.10198995462E+01  0.10196164091E+01 0.  0.
     999903    2    3    3    0    0 -0.12395219549E+00  0.40726735343E-01  0.13502713224E-01  0.13313302752E+00  0.22787409111E-01 0.  0.
         14    1    1    2    0    0  0.23485307836E-01 -0.16638030951E-02  0.48098633203E-02  0.24030453804E-01  0.00000000000E+00 0. -1.
     999901    1    3    3    0    0  0.10046688765E+00 -0.39062932247E-01 -0.18312576544E-01  0.88676651868E+00  0.88000000000E+00 0.  1.
        -11    1    4    4    0    0 -0.91459923024E-01  0.33684175406E-01  0.19358175289E-01  0.99370726393E-01  0.51100000000E-03 0.  1.
         11    1    4    4    0    0 -0.32492272462E-01  0.70425599363E-02 -0.58554620650E-02  0.33762301124E-01  0.51100000000E-03 0. -1.
</event>
<event>
 8    1  0.1099478E+005  0.1043930E+01  0.7957747E-01            NaN
         13   -1    0    0    0    0  0.00000000000E+00  0.00000000000E+00  0.74505805969E-08  0.10566000000E+00  0.10566000000E+00 0. -1.
     999900   -1    0    0    0    0 -0.00000000000E+00 -0.00000000000E+00 -0.74505805969E-08  0.93827000000E+00  0.93827000000E+00 0.  1.
     999902    2    1    2    0    0 -0.16240594103E-01  0.15480323046E-01  0.47131566602E-02  0.10210037891E+01  0.10207463575E+01 0.  0.
     999903    2    3    3    0    0 -0.76673222249E-01  0.14341546541E-01  0.10605027760E+00  0.13312845362E+00  0.19800525648E-01 0.  0.
         14    1    1    2    0    0  0.16240594103E-01 -0.15480323046E-01 -0.47131566602E-02  0.22926210854E-01  0.00000000000E+00 0. -1.
     999901    1    3    3    0    0  0.60432628146E-01  0.11387765052E-02 -0.10133712094E+00  0.88787533553E+00  0.88000000000E+00 0.  1.
        -11    1    4    4    0    0 -0.25627661197E-01 -0.45703887498E-02  0.33981566617E-01  0.42809735604E-01  0.51100000000E-03 0. -1.
         11    1    4    4    0    0 -0.51045561052E-01  0.18911935291E-01  0.72068710986E-01  0.90318718014E-01  0.51100000000E-03 0.  1.
</event>
<event>
 8    1  0.1099478E+005  0.1043930E+01  0.7957747E-01            NaN
         13   -1    0    0    0    0  0.00000000000E+00  0.00000000000E+00  0.74505805969E-08  0.10566000000E+00  0.10566000000E+00 0. -1.
     999900   -1    0    0    0    0 -0.00000000000E+00 -0.00000000000E+00 -0.74505805969E-08  0.93827000000E+00  0.93827000000E+00 0.  1.
     999902    2    1    2    0    0  0.12245191852E-01 -0.20293212498E-01  0.29136016389E-02  0.10200501283E+01  0.10197705703E+01 0.  0.
     999903    2    3    3    0    0 -0.28763908718E-02 -0.12668677270E+00 -0.34217231400E-01  0.13273566846E+00  0.19751626644E-01 0.  0.
         14    1    1    2    0    0 -0.12245191852E-01  0.20293212498E-01 -0.29136016389E-02  0.23879871681E-01  0.00000000000E+00 0.  1.
     999901    1    3    3    0    0  0.15121582724E-01  0.10639356020E+00  0.37130833039E-01  0.88731445986E+00  0.88000000000E+00 0. -1.
        -11    1    4    4    0    0 -0.11180445607E-01 -0.74764768699E-01 -0.22292416933E-01  0.78816153017E-01  0.51100000000E-03 0.  1.
         11    1    4    4    0    0  0.83040547354E-02 -0.51922003999E-01 -0.11924814467E-01  0.53919515441E-01  0.51100000000E-03 0. -1.
</event>
<event>
 8    1  0.1099478E+005  0.1043930E+01  0.7957747E-01            NaN
         13   -1    0    0    0    0  0.00000000000E+00  0.00000000000E+00  0.74505805969E-08  0.10566000000E+00  0.10566000000E+00 0. -1.
     999900   -1    0    0    0    0 -0.00000000000E+00 -0.00000000000E+00 -0.74505805969E-08  0.93827000000E+00  0.93827000000E+00 0.  1.
     999902    2    1    2    0    0 -0.61554627476E-02  0.23475536242E-01 -0.16716025983E-02  0.10196033731E+01  0.10193131283E+01 0.  0.
     999903    2    3    3    0    0  0.11358508238E+00  0.49714153240E-01  0.34537535617E-01  0.13036922792E+00  0.20741896038E-01 0.  0.
         14    1    1    2    0    0  0.61554627476E-02 -0.23475536242E-01  0.16716025983E-02  0.24326626949E-01  0.00000000000E+00 0. -1.
     999901    1    3    3    0    0 -0.11974054513E+00 -0.26238616998E-01 -0.36209138215E-01  0.88923414513E+00  0.88000000000E+00 0.  1.
        -11    1    4    4    0    0  0.50084978039E-01  0.29656440269E-01  0.83232794196E-02  0.58800914754E-01  0.51100000000E-03 0. -1.
         11    1    4    4    0    0  0.63500104341E-01  0.20057712970E-01  0.26214256198E-01  0.71568313169E-01  0.51100000000E-03 0.  1.
</event>
<event>
 8    1  0.1099478E+005  0.1043930E+01  0.7957747E-01            NaN
         13   -1    0    0    0    0  0.00000000000E+00  0.00000000000E+00  0.74505805969E-08  0.10566000000E+00  0.10566000000E+00 0.  1.
     999900   -1    0    0    0    0 -0.00000000000E+00 -0.00000000000E+00 -0.74505805969E-08  0.93827000000E+00  0.93827000000E+00 0. -1.
     999902    2    1    2    0    0 -0.22709486286E-01 -0.10450019200E-01 -0.21115697032E-02  0.10188425052E+01  0.10185335871E+01 0.  0.
     999903    2    3    3    0    0  0.25223432252E-01  0.60185632981E-01  0.10808455617E+00  0.12787104315E+00  0.20253405637E-01 0.  0.
         14    1    1    2    0    0  0.22709486286E-01  0.10450019200E-01  0.21115697032E-02  0.25087494799E-01  0.00000000000E+00 0.  1.
     999901    1    3    3    0    0 -0.47932918539E-01 -0.70635652181E-01 -0.11019612588E+00  0.89097146206E+00  0.88000000000E+00 0. -1.
        -11    1    4    4    0    0  0.10114847974E-01  0.60916533298E-02  0.24009147492E-01  0.26760393758E-01  0.51100000000E-03 0.  1.
         11    1    4    4    0    0  0.15108584278E-01  0.54093979651E-01  0.84075408683E-01  0.10111064939E+00  0.51100000000E-03 0. -1.
</event>
<event>
 8    1  0.1099478E+005  0.1043930E+01  0.7957747E-01            NaN
         13   -1    0    0    0    0  0.00000000000E+00  0.00000000000E+00  0.74505805969E-08  0.10566000000E+00  0.10566000000E+00 0. -1.
     999900   -1    0    0    0    0 -0.00000000000E+00 -0.00000000000E+00 -0.74505805969E-08  0.93827000000E+00  0.93827000000E+00 0. -1.
     999902    2    1    2    0    0 -0.88528373505E-02 -0.17520617784E-01 -0.12470943323E-01  0.10206734051E+01  0.10204084137E+01 0.  0.
     999903    2    3    3    0    0 -0.86749064368E-01 -0.63408905358E-01  0.70844416030E-01  0.13212683562E+00  0.29874403102E-01 0.  0.
         14    1    1    2    0    0  0.88528373505E-02  0.17520617784E-01  0.12470943323E-01  0.23256594851E-01  0.00000000000E+00 0.  1.
     999901    1    3    3    0    0  0.77896227017E-01  0.45888287573E-01 -0.83315359353E-01  0.88854656953E+00  0.88000000000E+00 0.  1.
        -11    1    4    4    0    0 -0.52116033596E-02 -0.12477348264E-01  0.15547069718E-02  0.13620692495E-01  0.51100000000E-03 0.  1.
         11    1    4    4    0    0 -0.81537461008E-01 -0.50931557093E-01  0.69289709058E-01  0.11850614312E+00  0.51100000000E-03 0. -1.
</event>
<event>
 8    1  0.1099478E+005  0.1043930E+01  0.7957747E-01            NaN
         13   -1    0    0    0    0  0.00000000000E+00  0.00000000000E+00  0.74505805969E-08  0.10566000000E+00  0.10566000000E+00 0.  1.
     999900   -1    0    0    0    0 -0.00000000000E+00 -0.00000000000E+00 -0.74505805969E-08  0.93827000000E+00  0.93827000000E+00 0. -1.
     999902    2    1    2    0    0  0.52103018487E-02 -0.56874449098E-02 -0.21587629477E-01  0.10210057765E+01  0.10207483900E+01 0.  0.
     999903    2    3    3    0    0 -0.70496067445E-01  0.81187325121E-01 -0.73212676157E-01  0.13199293891E+00  0.22382195748E-01 0.  0.
         14    1    1    2    0    0 -0.52103018487E-02  0.56874449098E-02  0.21587629477E-01  0.22924223463E-01  0.00000000000E+00 0.  1.
     999901    1    3    3    0    0  0.75706369294E-01 -0.86874770031E-01  0.51625046680E-01  0.88901283763E+00  0.88000000000E+00 0.  1.
        -11    1    4    4    0    0 -0.41237401398E-01  0.30480221110E-01 -0.34329337333E-01  0.61711681842E-01  0.51100000000E-03 0.  1.
         11    1    4    4    0    0 -0.29258666047E-01  0.50707104011E-01 -0.38883338824E-01  0.70281257069E-01  0.51100000000E-03 0. -1.
</event>
<event>
 8    1  0.1099478E+005  0.1043930E+01  0.7957747E-01            NaN
         13   -1    0    0    0    0  0.00000000000E+00  0.00000000000E+00  0.74505805969E-08  0.10566000000E+00  0.10566000000E+00 0. -1.
     999900   -1    0    0    0    0 -0.00000000000E+00 -0.00000000000E+00 -0.74505805969E-08  0.93827000000E+00  0.93827000000E+00 0.  1.
     999902    2    1    2    0    0 -0.25586371907E-02 -0.12263569083E-01  0.20398932647E-01  0.10199913659E+01  0.10197104139E+01 0.  0.
     999903    2    3    3    0    0  0.89143132547E-01 -0.17884181767E-01  0.94467680674E-01  0.13211356724E+00  0.16232988625E-01 0.  0.
         14    1    1    2    0    0  0.25586371907E-02  0.12263569083E-01 -0.20398932647E-01  0.23938634131E-01  0.00000000000E+00 0.  1.
     999901    1    3    3    0    0 -0.91701769738E-01  0.56206126844E-02 -0.74068748027E-01  0.88787779863E+00  0.88000000000E+00 0.  1.
        -11    1    4    4    0    0  0.30424051248E-01 -0.89479983094E-02  0.43572765041E-01  0.53893752351E-01  0.51100000000E-03 0. -1.
         11    1    4    4    0    0  0.58719081299E-01 -0.89361834577E-02  0.50894915633E-01  0.78219814891E-01  0.51100000000E-03 0.  1.
</event>
<event>
 8    1  0.1099478E+005  0.1043930E+01  0.7957747E-01            NaN
         13   -1    0    0    0    0  0.00000000000E+00  0.00000000000E+00  0.74505805969E-08  0.10566000000E+00  0.10566000000E+00 0.  1.
     999900   -1    0    0    0    0 -0.00000000000E+00 -0.00000000000E+00 -0.74505805969E-08  0.93827000000E+00  0.93827000000E+00 0.  1.
     999902    2    1    2    0    0 -0.18424255844E-01  0.81513149420E-02  0.12186098307E-01  0.10203843395E+01  0.10201126419E+01 0.  0.
     999903    2    3    3    0    0 -0.33994110287E-01  0.61309016647E-01  0.11121949403E+00  0.13309871741E+00  0.20762891568E-01 0.  0.
         14    1    1    2    0    0  0.18424255844E-01 -0.81513149420E-02 -0.12186098307E-01  0.23545660548E-01  0.00000000000E+00 0. -1.
     999901    1    3    3    0    0  0.15569854443E-01 -0.53157701705E-01 -0.99033395726E-01  0.88728562204E+00  0.88000000000E+00 0.  1.
        -11    1    4    4    0    0 -0.14954374008E-01  0.12500567965E-01  0.20186367822E-01  0.28065068471E-01  0.51100000000E-03 0.  1.
         11    1    4    4    0    0 -0.19039736279E-01  0.48808448682E-01  0.91033126211E-01  0.10503364894E+00  0.51100000000E-03 0. -1.
</event>
<event>
 8    1  0.1099478E+005  0.1043930E+01  0.7957747E-01            NaN
         13   -1    0    0    0    0  0.00000000000E+00  0.00000000000E+00  0.74505805969E-08  0.10566000000E+00  0.10566000000E+00 0.  1.
     999900   -1    0    0    0    0 -0.00000000000E+00 -0.00000000000E+00 -0.74505805969E-08  0.93827000000E+00  0.93827000000E+00 0.  1.
     999902    2    1    2    0    0  0.91692129648E-02 -0.15632022902E-01  0.20788722705E-01  0.10163509210E+01  0.10159766676E+01 0.  0.
     999903    2    3    3    0    0  0.10156153894E+00 -0.71681427390E-01 -0.25752874433E-01  0.12851985717E+00  0.20029226683E-01 0.  0.
         14    1    1    2    0    0 -0.91692129648E-02  0.15632022902E-01 -0.20788722705E-01  0.27579078993E-01  0.00000000000E+00 0. -1.
     999901    1    3    3    0    0 -0.92392325977E-01  0.56049404489E-01  0.46541597138E-01  0.88783106383E+00  0.88000000000E+00 0. -1.
        -11    1    4    4    0    0  0.19954564295E-01 -0.24215662479E-01 -0.88911437424E-02  0.32617426378E-01  0.51100000000E-03 0.  1.
         11    1    4    4    0    0  0.81606974647E-01 -0.47465764911E-01 -0.16861730691E-01  0.95902430796E-01  0.51100000000E-03 0. -1.
</event>
<event>
 8    1  0.1099478E+005  0.1043930E+01  0.7957747E-01            NaN
         13   -1    0    0    0    0  0.00000000000E+00  0.00000000000E+00  0.74505805969E-08  0.10566000000E+00  0.10566000000E+00 0. -1.
     999900   -1    0    0    0    0 -0.00000000000E+00 -0.00000000000E+00 -0.74505805969E-08  0.93827000000E+00  0.93827000000E+00 0.  1.
     999902    2    1    2    0    0  0.13941367241E-02 -0.87490233046E-03 -0.24306121551E-01  0.10195682140E+01  0.10192771195E+01 0.  0.
     999903    2    3    3    0    0 -0.28375703993E-01 -0.92335628948E-01 -0.87678238972E-01  0.13206196999E+00  0.20538777411E-01 0.  0.
         14    1    1    2    0    0 -0.13941367241E-02  0.87490233046E-03  0.24306121551E-01  0.24361785980E-01  0.00000000000E+00 0. -1.
     999901    1    3    3    0    0  0.29769840717E-01  0.91460726617E-01  0.63372117420E-01  0.88750624403E+00  0.88000000000E+00 0. -1.
        -11    1    4    4    0    0 -0.11367001231E-01 -0.27808059630E-01 -0.15673058374E-01  0.33888091967E-01  0.51100000000E-03 0. -1.
         11    1    4    4    0    0 -0.17008702762E-01 -0.64527569318E-01 -0.72005180598E-01  0.98173878021E-01  0.51100000000E-03 0.  1.
</event>
<event>
 8    1  0.1099478E+005  0.1043930E+01  0.7957747E-01            NaN
         13   -1    0    0    0    0  0.00000000000E+00  0.00000000000E+00  0.74505805969E-08  0.10566000000E+00  0.10566000000E+00 0.  1.
     999900   -1    0    0    0    0 -0.00000000000E+00 -0.00000000000E+00 -0.74505805969E-08  0.93827000000E+00  0.93827000000E+00 0.  1.
     999902    2    1    2    0    0  0.18811836973E-01  0.38729976189E-02  0.11362040656E-01  0.10216145056E+01  0.10213707539E+01 0.  0.
     999903    2    3    3    0    0 -0.13625273510E-01  0.10818004349E+00 -0.70266679785E-01  0.13111162863E+00  0.19086198843E-01 0.  0.
         14    1    1    2    0    0 -0.18811836973E-01 -0.38729976189E-02 -0.11362040656E-01  0.22315494364E-01  0.00000000000E+00 0. -1.
     999901    1    3    3    0    0  0.32437110482E-01 -0.10430704587E+00  0.81628720441E-01  0.89050287701E+00  0.88000000000E+00 0. -1.
        -11    1    4    4    0    0 -0.12276230023E-01  0.29584704402E-01 -0.18582246387E-01  0.37034059458E-01  0.51100000000E-03 0.  1.
         11    1    4    4    0    0 -0.13490434867E-02  0.78595339088E-01 -0.51684433398E-01  0.94077569172E-01  0.51100000000E-03 0. -1.
</event>
<event>
 8    1  0.1099478E+005  0.1043930E+01  0.7957747E-01            NaN
         13   -1    0    0    0    0  0.00000000000E+00  0.00000000000E+00  0.74505805969E-08  0.10566000000E+00  0.10566000000E+00 0.  1.
     999900   -1    0    0    0    0 -0.00000000000E+00 -0.00000000000E+00 -0.74505805969E-08  0.93827000000E+00  0.93827000000E+00 0.  1.
     999902    2    1    2    0    0  0.41304149385E-02  0.23251641611E-01  0.44977717357E-02  0.10198898437E+01  0.10196064751E+01 0.  0.
     999903    2    3    3    0    0 -0.51445196994E-01 -0.35420281053E-01 -0.11070474238E+00  0.12870935556E+00  0.20232489244E-01 0.  0.
         14    1    1    2    0    0 -0.41304149385E-02 -0.23251641611E-01 -0.44977717357E-02  0.24040156317E-01  0.00000000000E+00 0.  1.
     999901    1    3    3    0    0  0.55575611932E-01  0.58671922664E-01  0.11520251411E+00  0.89118048812E+00  0.88000000000E+00 0. -1.
        -11    1    4    4    0    0 -0.20812202889E-02 -0.50074887494E-02 -0.22525089011E-01  0.23174278359E-01  0.51100000000E-03 0. -1.
         11    1    4    4    0    0 -0.49363976705E-01 -0.30412792303E-01 -0.88179653364E-01  0.10553507720E+00  0.51100000000E-03 0.  1.
</event>
<event>
 8    1  0.1099478E+005  0.1043930E+01  0.7957747E-01            NaN
         13   -1    0    0    0    0  0.00000000000E+00  0.00000000000E+00  0.74505805969E-08  0.10566000000E+00  0.10566000000E+00 0. -1.
     999900   -1    0    0    0    0 -0.00000000000E+00 -0.00000000000E+00 -0.74505805969E-08  0.93827000000E+00  0.93827000000E+00 0. -1.
     999902    2    1    2    0    0 -0.11755619965E-01  0.21102341662E-01 -0.40467060557E-02  0.10194375674E+01  0.10191433042E+01 0.  0.
     999903    2    3    3    0    0  0.31366340522E-02 -0.12375555791E+00  0.21775796821E-01  0.12709660569E+00  0.18817153444E-01 0.  0.
         14    1    1    2    0    0  0.11755619965E-01 -0.21102341662E-01  0.40467060557E-02  0.24492432592E-01  0.00000000000E+00 0. -1.
     999901    1    3    3    0    0 -0.14892254017E-01  0.14485789958E+00 -0.25822502876E-01  0.89234096171E+00  0.88000000000E+00 0. -1.
        -11    1    4    4    0    0 -0.33051029965E-02 -0.79636834810E-01  0.21302741899E-01  0.82504648947E-01  0.51100000000E-03 0.  1.
         11    1    4    4    0    0  0.64417370487E-02 -0.44118723104E-01  0.47305492200E-03  0.44591956747E-01  0.51100000000E-03 0. -1.
</event>
<event>
 8    1  0.1099478E+005  0.1043930E+01  0.7957747E-01            NaN
         13   -1    0    0    0    0  0.00000000000E+00  0.00000000000E+00  0.74505805969E-08  0.10566000000E+00  0.10566000000E+00 0. -1.
     999900   -1    0    0    0    0 -0.00000000000E+00 -0.00000000000E+00 -0.74505805969E-08  0.93827000000E+00  0.93827000000E+00 0.  1.
     999902    2    1    2    0    0  0.15424631410E-01  0.85249925639E-02  0.13969463856E-01  0.10214413212E+01  0.10211937289E+01 0.  0.
     999903    2    3    3    0    0  0.90489751841E-01  0.96119933467E-01 -0.45286795049E-02  0.13371961524E+00  0.20808406094E-01 0.  0.
         14    1    1    2    0    0 -0.15424631410E-01 -0.85249925639E-02 -0.13969463856E-01  0.22488678769E-01  0.00000000000E+00 0.  1.
     999901    1    3    3    0    0 -0.75065120430E-01 -0.87594940904E-01  0.18498143361E-01  0.88772170599E+00  0.88000000000E+00 0. -1.
        -11    1    4    4    0    0  0.67525012158E-01  0.63425105743E-01  0.45117397656E-02  0.92752294970E-01  0.51100000000E-03 0. -1.
         11    1    4    4    0    0  0.22964739683E-01  0.32694827725E-01 -0.90404192704E-02  0.40967320272E-01  0.51100000000E-03 0.  1.
</event>
<event>
 8    1  0.1099478E+005  0.1043930E+01  0.7957747E-01            NaN
         13   -1    0    0    0    0  0.00000000000E+00  0.00000000000E+00  0.74505805969E-08  0.10566000000E+00  0.10566000000E+00 0.  1.
     999900   -1    0    0    0    0 -0.00000000000E+00 -0.00000000000E+00 -0.74505805969E-08  0.93827000000E+00  0.93827000000E+00 0.  1.
     999902    2    1    2    0    0  0.18368792049E-01  0.82349491151E-02  0.22495583466E-02  0.10236744472E+01  0.10234740282E+01 0.  0.
     999903    2    3    3    0    0  0.37963337816E-01 -0.12594434727E+00 -0.58346718649E-02  0.13325129798E+00  0.20461461118E-01 0.  0.
         14    1    1    2    0    0 -0.18368792049E-01 -0.82349491151E-02 -0.22495583466E-02  0.20255552844E-01  0.00000000000E+00 0.  1.
     999901    1    3    3    0    0 -0.19594545767E-01  0.13417929639E+00  0.80842302116E-02  0.89042314917E+00  0.88000000000E+00 0. -1.
        -11    1    4    4    0    0  0.78114761441E-02 -0.35818645175E-01  0.70780209731E-02  0.37341049846E-01  0.51100000000E-03 0. -1.
         11    1    4    4    0    0  0.30151861672E-01 -0.90125702096E-01 -0.12912692838E-01  0.95910248138E-01  0.51100000000E-03 0.  1.
</event>
<event>
 8    1  0.1099478E+005  0.1043930E+01  0.7957747E-01            NaN
         13   -1    0    0    0    0  0.00000000000E+00  0.00000000000E+00  0.74505805969E-08  0.10566000000E+00  0.10566000000E+00 0. -1.
     999900   -1    0    0    0    0 -0.00000000000E+00 -0.00000000000E+00 -0.74505805969E-08  0.93827000000E+00  0.93827000000E+00 0. -1.
     999902    2    1    2    0    0 -0.89254845549E-02  0.13196400915E-01  0.16978204794E-01  0.10206476309E+01  0.10203820450E+01 0.  0.
     999903    2    3    3    0    0  0.32503456293E-01  0.11808370250E+00 -0.43154228698E-01  0.13141559556E+00  0.20187516792E-01 0.  0.
         14    1    1    2    0    0  0.89254845549E-02 -0.13196400915E-01 -0.16978204794E-01  0.23282369073E-01  0.00000000000E+00 0. -1.
     999901    1    3    3    0    0 -0.41428940848E-01 -0.10488730158E+00  0.60132433492E-01  0.88923203537E+00  0.88000000000E+00 0. -1.
        -11    1    4    4    0    0  0.30368747908E-01  0.10655361892E+00 -0.32253007877E-01  0.11539693320E+00  0.51100000000E-03 0. -1.
         11    1    4    4    0    0  0.21347083857E-02  0.11530083578E-01 -0.10901220822E-01  0.16018662354E-01  0.51100000000E-03 0.  1.
</event>
<event>
 8    1  0.1099478E+005  0.1043930E+01  0.7957747E-01            NaN
         13   -1    0    0    0    0  0.00000000000E+00  0.00000000000E+00  0.74505805969E-08  0.10566000000E+00  0.10566000000E+00 0. -1.
     999900   -1    0    0    0    0 -0.00000000000E+00 -0.00000000000E+00 -0.74505805969E-08  0.93827000000E+00  0.93827000000E+00 0. -1.
     999902    2    1    2    0    0  0.16631166820E-01  0.16502146424E-01  0.44134881000E-02  0.10200889551E+01  0.10198103161E+01 0.  0.
     999903    2    3    3    0    0  0.12368793688E-01 -0.11012489305E+00 -0.62306210360E-01  0.12851501359E+00  0.18803343942E-01 0.  0.
         14    1    1    2    0    0 -0.16631166820E-01 -0.16502146424E-01 -0.44134881000E-02  0.23841044935E-01  0.00000000000E+00 0. -1.
     999901    1    3    3    0    0  0.42623731318E-02  0.12662703947E+00  0.66719698460E-01  0.89157394147E+00  0.88000000000E+00 0.  1.
        -11    1    4    4    0    0 -0.43153796366E-02 -0.12763731098E-01 -0.54795091959E-02  0.14554087913E-01  0.51100000000E-03 0. -1.
         11    1    4    4    0    0  0.16684173325E-01 -0.97361161950E-01 -0.56826701164E-01  0.11396092568E+00  0.51100000000E-03 0.  1.
</event>
<event>
 8    1  0.1099478E+005  0.1043930E+01  0.7957747E-01            NaN
         13   -1    0    0    0    0  0.00000000000E+00  0.00000000000E+00  0.74505805969E-08  0.10566000000E+00  0.10566000000E+00 0. -1.
     999900   -1    0    0    0    0 -0.00000000000E+00 -0.00000000000E+00 -0.74505805969E-08  0.93827000000E+00  0.93827000000E+00 0. -1.
     999902    2    1    2    0    0 -0.14292498266E-01  0.11036488010E-01  0.13393058729E-01  0.10214477048E+01  0.10212002546E+01 0.  0.
     999903    2    3    3    0    0 -0.12674324153E+00 -0.33659302058E-01  0.10852273934E-01  0.13316321273E+00  0.20441905168E-01 0.  0.
         14    1    1    2    0    0  0.14292498266E-01 -0.11036488010E-01 -0.13393058729E-01  0.22482295177E-01  0.00000000000E+00 0.  1.
     999901    1    3    3    0    0  0.11245074326E+00  0.44695790068E-01  0.25407847946E-02  0.88828449210E+00  0.88000000000E+00 0. -1.
        -11    1    4    4    0    0 -0.46737252513E-01 -0.20152037434E-01  0.10756115908E-01  0.52023365285E-01  0.51100000000E-03 0. -1.
         11    1    4    4    0    0 -0.80005989014E-01 -0.13507264623E-01  0.96158026005E-04  0.81139847443E-01  0.51100000000E-03 0.  1.
</event>
<event>
 8    1  0.1099478E+005  0.1043930E+01  0.7957747E-01            NaN
         13   -1    0    0    0    0  0.00000000000E+00  0.00000000000E+00  0.74505805969E-08  0.10566000000E+00  0.10566000000E+00 0. -1.
     999900   -1    0    0    0    0 -0.00000000000E+00 -0.00000000000E+00 -0.74505805969E-08  0.93827000000E+00  0.93827000000E+00 0.  1.
     999902    2    1    2    0    0 -0.16180473386E-01 -0.18511318745E-01 -0.53090807024E-02  0.10187772073E+01  0.10184666589E+01 0.  0.
     999903    2    3    3    0    0  0.12308401524E-01 -0.61164634562E-01  0.11168040351E+00  0.12955425399E+00  0.20473957339E-01 0.  0.
         14    1    1    2    0    0  0.16180473386E-01  0.18511318745E-01  0.53090807024E-02  0.25152792660E-01  0.00000000000E+00 0. -1.
     999901    1    3    3    0    0 -0.28488874910E-01  0.42653315817E-01 -0.11698948422E+00  0.88922295335E+00  0.88000000000E+00 0.  1.
        -11    1    4    4    0    0 -0.37011004476E-02 -0.14244520948E-01  0.37927002237E-01  0.40685662600E-01  0.51100000000E-03 0.  1.
         11    1    4    4    0    0  0.16009501972E-01 -0.46920113614E-01  0.73753401278E-01  0.88868591392E-01  0.51100000000E-03 0. -1.
</event>
<event>
 8    1  0.1099478E+005  0.1043930E+01  0.7957747E-01            NaN
         13   -1    0    0    0    0  0.00000000000E+00  0.00000000000E+00  0.74505805969E-08  0.10566000000E+00  0.10566000000E+00 0. -1.
     999900   -1    0    0    0    0 -0.00000000000E+00 -0.00000000000E+00 -0.74505805969E-08  0.93827000000E+00  0.93827000000E+00 0. -1.
     999902    2    1    2    0    0  0.71858760466E-02 -0.22143421211E-01  0.42997462469E-03  0.10206458252E+01  0.10203801976E+01 0.  0.
     999903    2    3    3    0    0 -0.46228159041E-01  0.69934481325E-01  0.96164348304E-01  0.12907615907E+00  0.19626476723E-01 0.  0.
         14    1    1    2    0    0 -0.71858760466E-02  0.22143421211E-01 -0.42997462469E-03  0.23284174790E-01  0.00000000000E+00 0. -1.
     999901    1    3    3    0    0  0.53414035088E-01 -0.92077902536E-01 -0.95734373679E-01  0.89156966614E+00  0.88000000000E+00 0.  1.
        -11    1    4    4    0    0 -0.46349570251E-01  0.63435565382E-01  0.93247844552E-01  0.12193348700E+00  0.51100000000E-03 0.  1.
         11    1    4    4    0    0  0.12141121012E-03  0.64989159428E-02  0.29165037520E-02  0.71426720665E-02  0.51100000000E-03 0. -1.
</event>
<event>
 8    1  0.1099478E+005  0.1043930E+01  0.7957747E-01            NaN
         13   -1    0    0    0    0  0.00000000000E+00  0.00000000000E+00  0.74505805969E-08  0.10566000000E+00  0.10566000000E+00 0. -1.
     999900   -1    0    0    0    0 -0.00000000000E+00 -0.00000000000E+00 -0.74505805969E-08  0.93827000000E+00  0.93827000000E+00 0.  1.
     999902    2    1    2    0    0  0.20721354058E-01 -0.80096009434E-02  0.78506470814E-02  0.10203681478E+01  0.10200960720E+01 0.  0.
     999903    2    3    3    0    0 -0.31661434655E-01  0.10580031219E+00 -0.59860046564E-01  0.12891910776E+00  0.28995838788E-01 0.  0.
         14    1    1    2    0    0 -0.20721354058E-01  0.80096009434E-02 -0.78506470814E-02  0.23561852237E-01  0.00000000000E+00 0.  1.
     999901    1    3    3    0    0  0.52382788712E-01 -0.11380991314E+00  0.67710693646E-01  0.89144904000E+00  0.88000000000E+00 0. -1.
        -11    1    4    4    0    0 -0.31088061974E-01  0.72876048962E-01 -0.30832764265E-01  0.85019448262E-01  0.51100000000E-03 0. -1.
         11    1    4    4    0    0 -0.57337268062E-03  0.32924263233E-01 -0.29027282299E-01  0.43899659501E-01  0.51100000000E-03 0.  1.
</event>
<event>
 8    1  0.1099478E+005  0.1043930E+01  0.7957747E-01            NaN
         13   -1    0    0    0    0  0.00000000000E+00  0.00000000000E+00  0.74505805969E-08  0.10566000000E+00  0.10566000000E+00 0. -1.
     999900   -1    0    0    0    0 -0.00000000000E+00 -0.00000000000E+00 -0.74505805969E-08  0.93827000000E+00  0.93827000000E+00 0. -1.
     999902    2    1    2    0    0  0.62425628590E-02 -0.25559340487E-01  0.90551667452E-02  0.10161047323E+01  0.10157236738E+01 0.  0.
     999903    2    3    3    0    0 -0.80045850814E-01 -0.87118457907E-01  0.47088336218E-01  0.12892846051E+00  0.20205756119E-01 0.  0.
         14    1    1    2    0    0 -0.62425628590E-02  0.25559340487E-01 -0.90551667452E-02  0.27825267689E-01  0.00000000000E+00 0.  1.
     999901    1    3    3    0    0  0.86288413673E-01  0.61559117420E-01 -0.38033169473E-01  0.88717627180E+00  0.88000000000E+00 0.  1.
        -11    1    4    4    0    0 -0.18125389148E-01 -0.97693838132E-02  0.45089498896E-02  0.21084647067E-01  0.51100000000E-03 0. -1.
         11    1    4    4    0    0 -0.61920461666E-01 -0.77349074093E-01  0.42579386329E-01  0.10784381344E+00  0.51100000000E-03 0.  1.
</event>
<event>
 8    1  0.1099478E+005  0.1043930E+01  0.7957747E-01            NaN
         13   -1    0    0    0    0  0.00000000000E+00  0.00000000000E+00  0.74505805969E-08  0.10566000000E+00  0.10566000000E+00 0.  1.
     999900   -1    0    0    0    0 -0.00000000000E+00 -0.00000000000E+00 -0.74505805969E-08  0.93827000000E+00  0.93827000000E+00 0. -1.
     999902    2    1    2    0    0 -0.15065508270E-01 -0.15704335636E-01  0.19193264580E-02  0.10220832723E+01  0.10218497620E+01 0.  0.
     999903    2    3    3    0    0  0.45078097682E-01  0.55631505773E-01  0.10802538248E+00  0.13081196078E+00  0.17759124354E-01 0.  0.
         14    1    1    2    0    0  0.15065508270E-01  0.15704335636E-01 -0.19193264580E-02  0.21846727701E-01  0.00000000000E+00 0.  1.
     999901    1    3    3    0    0 -0.60143605951E-01 -0.71335841409E-01 -0.10610605603E+00  0.89127131152E+00  0.88000000000E+00 0. -1.
        -11    1    4    4    0    0  0.16604353033E-01  0.28489512244E-01  0.62311015544E-01  0.70500217211E-01  0.51100000000E-03 0. -1.
         11    1    4    4    0    0  0.28473744649E-01  0.27141993528E-01  0.45714366940E-01  0.60311743572E-01  0.51100000000E-03 0.  1.
</event>
<event>
 8    1  0.1099478E+005  0.1043930E+01  0.7957747E-01            NaN
         13   -1    0    0    0    0  0.00000000000E+00  0.00000000000E+00  0.74505805969E-08  0.10566000000E+00  0.10566000000E+00 0. -1.
     999900   -1    0    0    0    0 -0.00000000000E+00 -0.00000000000E+00 -0.74505805969E-08  0.93827000000E+00  0.93827000000E+00 0.  1.
     999902    2    1    2    0    0  0.15173843612E-01  0.71956508560E-02  0.18598003043E-01  0.10188718948E+01  0.10185637090E+01 0.  0.
     999903    2    3    3    0    0 -0.20692136068E-01 -0.12390598534E+00 -0.12313538171E-01  0.12790077800E+00  0.20642870306E-01 0.  0.
         14    1    1    2    0    0 -0.15173843612E-01 -0.71956508560E-02 -0.18598003043E-01  0.25058105243E-01  0.00000000000E+00 0.  1.
     999901    1    3    3    0    0  0.35865979679E-01  0.13110163619E+00  0.30911541214E-01  0.89097111675E+00  0.88000000000E+00 0.  1.
        -11    1    4    4    0    0 -0.21374117172E-01 -0.92600793618E-01 -0.15976562732E-01  0.96370491030E-01  0.51100000000E-03 0. -1.
         11    1    4    4    0    0  0.68198110467E-03 -0.31305191717E-01  0.36630245602E-02  0.31530286973E-01  0.51100000000E-03 0.  1.
</event>
<event>
 8    1  0.1099478E+005  0.1043930E+01  0.7957747E-01            NaN
         13   -1    0    0    0    0  0.00000000000E+00  0.00000000000E+00  0.74505805969E-08  0.10566000000E+00  0.10566000000E+00 0. -1.
     999900   -1    0    0    0    0 -0.00000000000E+00 -0.00000000000E+00 -0.74505805969E-08  0.93827000000E+00  0.93827000000E+00 0. -1.
     999902    2    1    2    0    0  0.20856055340E-01 -0.10166651005E-01  0.50259674477E-02  0.10201898192E+01  0.10199135605E+01 0.  0.
     999903    2    3    3    0    0  0.39754125956E-01  0.12013857270E+00 -0.21068265692E-01  0.13001146772E+00  0.21105514393E-01 0.  0.
         14    1    1    2    0    0 -0.20856055340E-01  0.10166651005E-01 -0.50259674477E-02  0.23740180829E-01  0.00000000000E+00 0. -1.
     999901    1    3    3    0    0 -0.18898070616E-01 -0.13030522370E+00  0.26094233140E-01  0.89017835146E+00  0.88000000000E+00 0. -1.
        -11    1    4    4    0    0  0.32101081748E-01  0.66520458925E-01 -0.16285096997E-01  0.75636739818E-01  0.51100000000E-03 0. -1.
         11    1    4    4    0    0  0.76530442082E-02  0.53618113773E-01 -0.47831686949E-02  0.54374727898E-01  0.51100000000E-03 0.  1.
</event>
<event>
 8    1  0.1099478E+005  0.1043930E+01  0.7957747E-01            NaN
         13   -1    0    0    0    0  0.00000000000E+00  0.00000000000E+00  0.74505805969E-08  0.10566000000E+00  0.10566000000E+00 0.  1.
     999900   -1    0    0    0    0 -0.00000000000E+00 -0.00000000000E+00 -0.74505805969E-08  0.93827000000E+00  0.93827000000E+00 0. -1.
     999902    2    1    2    0    0 -0.13095679617E-01 -0.12548820066E-01  0.16818383397E-01  0.10191948483E+01  0.10188946516E+01 0.  0.
     999903    2    3    3    0    0 -0.76408977321E-01 -0.91670956287E-01 -0.51602577987E-01  0.13074095863E+00  0.13728662238E-01 0.  0.
         14    1    1    2    0    0  0.13095679617E-01  0.12548820066E-01 -0.16818383397E-01  0.24735151703E-01  0.00000000000E+00 0. -1.
     999901    1    3    3    0    0  0.63313297704E-01  0.79122136222E-01  0.68420961384E-01  0.88845388967E+00  0.88000000000E+00 0. -1.
        -11    1    4    4    0    0 -0.45736085615E-01 -0.44837267241E-01 -0.30053674882E-01  0.70750650569E-01  0.51100000000E-03 0.  1.
         11    1    4    4    0    0 -0.30672891706E-01 -0.46833689046E-01 -0.21548903105E-01  0.59990308062E-01  0.51100000000E-03 0. -1.
</event>
<event>
 8    1  0.1099478E+005  0.1043930E+01  0.7957747E-01            NaN
         13   -1    0    0    0    0  0.00000000000E+00  0.00000000000E+00  0.74505805969E-08  0.10566000000E+00  0.10566000000E+00 0.  1.
     999900   -1    0    0    0    0 -0.00000000000E+00 -0.00000000000E+00 -0.74505805969E-08  0.93827000000E+00  0.93827000000E+00 0. -1.
     999902    2    1    2    0    0 -0.13005086015E-01 -0.11188934740E-01  0.15609268960E-01  0.10207357378E+01  0.10204721812E+01 0.  0.
     999903    2    3    3    0    0  0.58939957652E-01 -0.21351832070E-01  0.11437529208E+00  0.13223469607E+00  0.21782746963E-01 0.  0.
         14    1    1    2    0    0  0.13005086015E-01  0.11188934740E-01 -0.15609268960E-01  0.23194262229E-01  0.00000000000E+00 0. -1.
     999901    1    3    3    0    0 -0.71945043667E-01  0.10162897330E-01 -0.98766023116E-01  0.88850104171E+00  0.88000000000E+00 0. -1.
        -11    1    4    4    0    0  0.58949926511E-01 -0.18972078568E-01  0.99770573723E-01  0.11742854041E+00  0.51100000000E-03 0. -1.
         11    1    4    4    0    0 -0.99688592439E-05 -0.23797535023E-02  0.14604718353E-01  0.14806155656E-01  0.51100000000E-03 0.  1.
</event>
<event>
 8    1  0.1099478E+005  0.1043930E+01  0.7957747E-01            NaN
         13   -1    0    0    0    0  0.00000000000E+00  0.00000000000E+00  0.74505805969E-08  0.10566000000E+00  0.10566000000E+00 0.  1.
     999900   -1    0    0    0    0 -0.00000000000E+00 -0.00000000000E+00 -0.74505805969E-08  0.93827000000E+00  0.93827000000E+00 0.  1.
     999902    2    1    2    0    0  0.13694531514E-01  0.72929295596E-02 -0.15979657533E-01  0.10216572258E+01  0.10214144167E+01 0.  0.
     999903    2    3    3    0    0  0.30121448240E-01  0.56472547528E-01  0.11237791553E+00  0.13083505221E+00  0.19813246066E-01 0.  0.
         14    1    1    2    0    0 -0.13694531514E-01 -0.72929295596E-02  0.15979657533E-01  0.22272774184E-01  0.00000000000E+00 0.  1.
     999901    1    3    3    0    0 -0.16426916726E-01 -0.49179617968E-01 -0.12835757307E+00  0.89082217360E+00  0.88000000000E+00 0.  1.
        -11    1    4    4    0    0  0.76822826809E-02  0.30394088849E-01  0.66183718645E-01  0.73234990536E-01  0.51100000000E-03 0.  1.
         11    1    4    4    0    0  0.22439165559E-01  0.26078458679E-01  0.46194196890E-01  0.57600061678E-01  0.51100000000E-03 0. -1.
</event>
<event>
 8    1  0.1099478E+005  0.1043930E+01  0.7957747E-01            NaN
         13   -1    0    0    0    0  0.00000000000E+00  0.00000000000E+00  0.74505805969E-08  0.10566000000E+00  0.10566000000E+00 0. -1.
     999900   -1    0    0    0    0 -0.00000000000E+00 -0.00000000000E+00 -0.74505805969E-08  0.93827000000E+00  0.93827000000E+00 0.  1.
     999902    2    1    2    0    0 -0.16845510935E-01 -0.10043452629E-01 -0.13546849377E-01  0.10200939075E+01  0.10198153856E+01 0.  0.
     999903    2    3    3    0    0 -0.62976885095E-01 -0.55428769064E-01  0.98160117388E-01  0.13067478407E+00  0.20051285503E-01 0.  0.
         14    1    1    2    0    0  0.16845510935E-01  0.10043452629E-01  0.13546849377E-01  0.23836092537E-01  0.00000000000E+00 0.  1.
     999901    1    3    3    0    0  0.46131374160E-01  0.45385316435E-01 -0.11170696677E+00  0.88941912339E+00  0.88000000000E+00 0.  1.
        -11    1    4    4    0    0 -0.25759124634E-01 -0.13778235480E-01  0.44384026373E-01  0.53137323916E-01  0.51100000000E-03 0.  1.
         11    1    4    4    0    0 -0.37217760461E-01 -0.41650533584E-01  0.53776091015E-01  0.77537460156E-01  0.51100000000E-03 0. -1.
</event>
<event>
 8    1  0.1099478E+005  0.1043930E+01  0.7957747E-01            NaN
         13   -1    0    0    0    0  0.00000000000E+00  0.00000000000E+00  0.74505805969E-08  0.10566000000E+00  0.10566000000E+00 0. -1.
     999900   -1    0    0    0    0 -0.00000000000E+00 -0.00000000000E+00 -0.74505805969E-08  0.93827000000E+00  0.93827000000E+00 0. -1.
     999902    2    1    2    0    0  0.16531110233E-01  0.14001276932E-01 -0.65387242306E-02  0.10213010744E+01  0.10210503495E+01 0.  0.
     999903    2    3    3    0    0 -0.87631341802E-01 -0.60910135089E-01  0.69453843924E-01  0.12875616989E+00  0.19105450205E-01 0.  0.
         14    1    1    2    0    0 -0.16531110233E-01 -0.14001276932E-01  0.65387242306E-02  0.22628925644E-01  0.00000000000E+00 0. -1.
     999901    1    3    3    0    0  0.10416245203E+00  0.74911412021E-01 -0.75992568154E-01  0.89254490446E+00  0.88000000000E+00 0. -1.
        -11    1    4    4    0    0 -0.15727416751E-01 -0.56915474771E-02  0.48189422193E-02  0.17413462478E-01  0.51100000000E-03 0.  1.
         11    1    4    4    0    0 -0.71903925051E-01 -0.55218587612E-01  0.64634901704E-01  0.11134270742E+00  0.51100000000E-03 0. -1.
</event>
<event>
 8    1  0.1099478E+005  0.1043930E+01  0.7957747E-01            NaN
         13   -1    0    0    0    0  0.00000000000E+00  0.00000000000E+00  0.74505805969E-08  0.10566000000E+00  0.10566000000E+00 0. -1.
     999900   -1    0    0    0    0 -0.00000000000E+00 -0.00000000000E+00 -0.74505805969E-08  0.93827000000E+00  0.93827000000E+00 0.  1.
     999902    2    1    2    0    0 -0.21130586166E-01 -0.50909809216E-02 -0.48102362023E-02  0.10216688650E+01  0.10214263124E+01 0.  0.
     999903    2    3    3    0    0  0.11708032460E+00 -0.50007134783E-01 -0.14125102379E-01  0.12970110581E+00  0.20355402065E-01 0.  0.
         14    1    1    2    0    0  0.21130586166E-01  0.50909809216E-02  0.48102362023E-02  0.22261134984E-01  0.00000000000E+00 0. -1.
     999901    1    3    3    0    0 -0.13821091077E+00  0.44916153861E-01  0.93148661763E-02  0.89196775921E+00  0.88000000000E+00 0.  1.
        -11    1    4    4    0    0  0.63234082051E-01 -0.17487150356E-01 -0.12399492912E-01  0.66770937584E-01  0.51100000000E-03 0. -1.
         11    1    4    4    0    0  0.53846242549E-01 -0.32519984426E-01 -0.17256094670E-02  0.62930168225E-01  0.51100000000E-03 0.  1.
</event>
<event>
 8    1  0.1099478E+005  0.1043930E+01  0.7957747E-01            NaN
         13   -1    0    0    0    0  0.00000000000E+00  0.00000000000E+00  0.74505805969E-08  0.10566000000E+00  0.10566000000E+00 0. -1.
     999900   -1    0    0    0    0 -0.00000000000E+00 -0.00000000000E+00 -0.74505805969E-08  0.93827000000E+00  0.93827000000E+00 0. -1.
     999902    2    1    2    0    0  0.10359861313E-01 -0.17810641400E-01 -0.10709816021E-01  0.10207083327E+01  0.10204441457E+01 0.  0.
     999903    2    3    3    0    0  0.49056073118E-02 -0.12306609980E+00  0.45160045022E-01  0.13265996588E+00  0.19746062360E-01 0.  0.
         14    1    1    2    0    0 -0.10359861313E-01  0.17810641400E-01  0.10709816021E-01  0.23221667311E-01  0.00000000000E+00 0. -1.
     999901    1    3    3    0    0  0.54542540012E-02  0.10525545840E+00 -0.55869861043E-01  0.88804836680E+00  0.88000000000E+00 0. -1.
        -11    1    4    4    0    0 -0.60631007803E-02 -0.51593907635E-01  0.24610771627E-01  0.57486030453E-01  0.51100000000E-03 0.  1.
         11    1    4    4    0    0  0.10968708092E-01 -0.71472192166E-01  0.20549273395E-01  0.75173935432E-01  0.51100000000E-03 0. -1.
</event>
<event>
 8    1  0.1099478E+005  0.1043930E+01  0.7957747E-01            NaN
         13   -1    0    0    0    0  0.00000000000E+00  0.00000000000E+00  0.74505805969E-08  0.10566000000E+00  0.10566000000E+00 0. -1.
     999900   -1    0    0    0    0 -0.00000000000E+00 -0.00000000000E+00 -0.74505805969E-08  0.93827000000E+00  0.93827000000E+00 0.  1.
     999902    2    1    2    0    0  0.11998390573E-01  0.42601409161E-02  0.19413087468E-01  0.10207140972E+01  0.10204500429E+01 0.  0.
     999903    2    3    3    0    0 -0.33925335630E-02 -0.12643684894E+00  0.26819774700E-01  0.13089757528E+00  0.20422753119E-01 0.  0.
         14    1    1    2    0    0 -0.11998390573E-01 -0.42601409161E-02 -0.19413087468E-01  0.23215902783E-01  0.00000000000E+00 0.  1.
     999901    1    3    3    0    0  0.15390924136E-01  0.13069698985E+00 -0.74066872319E-02  0.88981652194E+00  0.88000000000E+00 0.  1.
        -11    1    4    4    0    0  0.53739070237E-02 -0.51282832170E-01  0.18464690676E-01  0.54772380584E-01  0.51100000000E-03 0. -1.
         11    1    4    4    0    0 -0.87664405867E-02 -0.75154016768E-01  0.83550840244E-02  0.76125194692E-01  0.51100000000E-03 0.  1.
</event>
<event>
 8    1  0.1099478E+005  0.1043930E+01  0.7957747E-01            NaN
         13   -1    0    0    0    0  0.00000000000E+00  0.00000000000E+00  0.74505805969E-08  0.10566000000E+00  0.10566000000E+00 0.  1.
     999900   -1    0    0    0    0 -0.00000000000E+00 -0.00000000000E+00 -0.74505805969E-08  0.93827000000E+00  0.93827000000E+00 0.  1.
     999902    2    1    2    0    0  0.25627871508E-02 -0.16376092295E-01  0.16906346811E-01  0.10202536650E+01  0.10199789077E+01 0.  0.
     999903    2    3    3    0    0  0.87810137079E-02 -0.95130563867E-01  0.91135740031E-01  0.13360213482E+00  0.20417564381E-01 0.  0.
         14    1    1    2    0    0 -0.25627871508E-02  0.16376092295E-01 -0.16906346811E-01  0.23676335006E-01  0.00000000000E+00 0. -1.
     999901    1    3    3    0    0 -0.62182265571E-02  0.78754471572E-01 -0.74229393220E-01  0.88665153017E+00  0.88000000000E+00 0. -1.
        -11    1    4    4    0    0  0.46505025873E-02 -0.64302391110E-01  0.47808963020E-01  0.80264455040E-01  0.51100000000E-03 0. -1.
         11    1    4    4    0    0  0.41305111206E-02 -0.30828172756E-01  0.43326777011E-01  0.53337679784E-01  0.51100000000E-03 0.  1.
</event>
<event>
 8    1  0.1099478E+005  0.1043930E+01  0.7957747E-01            NaN
         13   -1    0    0    0    0  0.00000000000E+00  0.00000000000E+00  0.74505805969E-08  0.10566000000E+00  0.10566000000E+00 0. -1.
     999900   -1    0    0    0    0 -0.00000000000E+00 -0.00000000000E+00 -0.74505805969E-08  0.93827000000E+00  0.93827000000E+00 0. -1.
     999902    2    1    2    0    0 -0.57229523279E-02  0.18976660760E-01 -0.97764083189E-02  0.10218292309E+01  0.10215901982E+01 0.  0.
     999903    2    3    3    0    0  0.26739372161E-01  0.12690209146E+00 -0.30281185086E-01  0.13440478508E+00  0.18126258321E-01 0.  0.
         14    1    1    2    0    0  0.57229523279E-02 -0.18976660760E-01  0.97764083189E-02  0.22100769140E-01  0.00000000000E+00 0. -1.
     999901    1    3    3    0    0 -0.32462324489E-01 -0.10792543070E+00  0.20504776767E-01  0.88742444578E+00  0.88000000000E+00 0.  1.
        -11    1    4    4    0    0  0.15750647589E-01  0.10396215914E+00 -0.28272763629E-01  0.10888445121E+00  0.51100000000E-03 0.  1.
         11    1    4    4    0    0  0.10988724572E-01  0.22939932324E-01 -0.20084214561E-02  0.25520333863E-01  0.51100000000E-03 0. -1.
</event>
<event>
 8    1  0.1099478E+005  0.1043930E+01  0.7957747E-01            NaN
         13   -1    0    0    0    0  0.00000000000E+00  0.00000000000E+00  0.74505805969E-08  0.10566000000E+00  0.10566000000E+00 0. -1.
     999900   -1    0    0    0    0 -0.00000000000E+00 -0.00000000000E+00 -0.74505805969E-08  0.93827000000E+00  0.93827000000E+00 0.  1.
     999902    2    1    2    0    0  0.12018773626E-01 -0.18740977458E-01  0.75283389730E-02  0.10204278502E+01  0.10201571676E+01 0.  0.
     999903    2    3    3    0    0  0.39475237087E-01  0.16413396539E-01  0.12320951499E+00  0.13173677800E+00  0.18609142002E-01 0.  0.
         14    1    1    2    0    0 -0.12018773626E-01  0.18740977458E-01 -0.75283389730E-02  0.23502149757E-01  0.00000000000E+00 0. -1.
     999901    1    3    3    0    0 -0.27456463462E-01 -0.35154373997E-01 -0.11568117601E+00  0.88869107224E+00  0.88000000000E+00 0.  1.
        -11    1    4    4    0    0  0.25382430666E-01  0.18324900088E-01  0.70501397704E-01  0.77141285632E-01  0.51100000000E-03 0.  1.
         11    1    4    4    0    0  0.14092806421E-01 -0.19115035485E-02  0.52708117283E-01  0.54595492370E-01  0.51100000000E-03 0. -1.
</event>
<event>
 8    1  0.1099478E+005  0.1043930E+01  0.7957747E-01            NaN
         13   -1    0    0    0    0  0.00000000000E+00  0.00000000000E+00  0.74505805969E-08  0.10566000000E+00  0.10566000000E+00 0.  1.
     999900   -1    0    0    0    0 -0.00000000000E+00 -0.00000000000E+00 -0.74505805969E-08  0.93827000000E+00  0.93827000000E+00 0.  1.
     999902    2    1    2    0    0  0.32595556659E-02 -0.22286055520E-01 -0.69143014971E-02  0.10203694283E+01  0.10200973824E+01 0.  0.
     999903    2    3    3    0    0  0.10437816399E+00  0.26903847971E-01  0.69711613936E-01  0.12991103484E+00  0.19963709663E-01 0.  0.
         14    1    1    2    0    0 -0.32595556659E-02  0.22286055520E-01  0.69143014971E-02  0.23560571703E-01  0.00000000000E+00 0.  1.
     999901    1    3    3    0    0 -0.10111860832E+00 -0.49189903491E-01 -0.76625915434E-01  0.89045839345E+00  0.88000000000E+00 0.  1.
        -11    1    4    4    0    0  0.68960438282E-01  0.27152368760E-01  0.49547756887E-01  0.89151749904E-01  0.51100000000E-03 0.  1.
         11    1    4    4    0    0  0.35417725705E-01 -0.24852078916E-03  0.20163857050E-01  0.40759284940E-01  0.51100000000E-03 0. -1.
</event>
<event>
 8    1  0.1099478E+005  0.1043930E+01  0.7957747E-01            NaN
         13   -1    0    0    0    0  0.00000000000E+00  0.00000000000E+00  0.74505805969E-08  0.10566000000E+00  0.10566000000E+00 0. -1.
     999900   -1    0    0    0    0 -0.00000000000E+00 -0.00000000000E+00 -0.74505805969E-08  0.93827000000E+00  0.93827000000E+00 0.  1.
     999902    2    1    2    0    0  0.64743387605E-02 -0.12316643642E-01  0.19560714446E-01  0.10199250355E+01  0.10196425058E+01 0.  0.
     999903    2    3    3    0    0 -0.11991490485E+00 -0.88958188859E-03 -0.41791290545E-01  0.12870739248E+00  0.20945289525E-01 0.  0.
         14    1    1    2    0    0 -0.64743387605E-02  0.12316643642E-01 -0.19560714446E-01  0.24004964541E-01  0.00000000000E+00 0.  1.
     999901    1    3    3    0    0  0.12638924361E+00 -0.11427061753E-01  0.61352004991E-01  0.89121764298E+00  0.88000000000E+00 0. -1.
        -11    1    4    4    0    0 -0.44988973384E-01 -0.10349696320E-01 -0.14175578938E-01  0.48294224285E-01  0.51100000000E-03 0. -1.
         11    1    4    4    0    0 -0.74925931463E-01  0.94601144316E-02 -0.27615711607E-01  0.80413168195E-01  0.51100000000E-03 0.  1.
</event>
<event>
 7    1  0.1281152E+005  0.1043930E+01  0.7957747E-01            NaN
         13   -1    0    0    0    0  0.00000000000E+00  0.00000000000E+00  0.74505805969E-08  0.10566000000E+00  0.10566000000E+00 0.  1.
     999900   -1    0    0    0    0 -0.00000000000E+00 -0.00000000000E+00 -0.74505805969E-08  0.93827000000E+00  0.93827000000E+00 0.  1.
     999903    2    1    2    0    0  0.76359198473E-01  0.87172057039E-01 -0.75963362599E-02  0.11786242156E+00  0.20103516410E-01 0.  0.
         14    1    1    2    0    0 -0.92055268364E-02 -0.19584500184E-01 -0.33601125450E-01  0.39966611106E-01  0.00000000000E+00 0. -1.
     999901    1    1    2    0    0 -0.67153671637E-01 -0.67587556854E-01  0.41197461710E-01  0.88610096733E+00  0.88000000000E+00 0. -1.
        -11    1    3    3    0    0  0.32367537402E-01  0.50740779723E-01  0.37167049681E-03  0.60188732038E-01  0.51100000000E-03 0. -1.
         11    1    3    3    0    0  0.43991661071E-01  0.36431277316E-01 -0.79680067567E-02  0.57673689524E-01  0.51100000000E-03 0.  1.
</event>
<event>
 8    1  0.1099478E+005  0.1043930E+01  0.7957747E-01            NaN
         13   -1    0    0    0    0  0.00000000000E+00  0.00000000000E+00  0.74505805969E-08  0.10566000000E+00  0.10566000000E+00 0.  1.
     999900   -1    0    0    0    0 -0.00000000000E+00 -0.00000000000E+00 -0.74505805969E-08  0.93827000000E+00  0.93827000000E+00 0.  1.
     999902    2    1    2    0    0  0.21047099950E-01  0.11236476299E-01  0.57492614356E-02  0.10193883451E+01  0.10190928836E+01 0.  0.
     999903    2    3    3    0    0 -0.51167977706E-01 -0.44553168163E-01  0.10757826913E+00  0.12882860617E+00  0.20508023871E-01 0.  0.
         14    1    1    2    0    0 -0.21047099950E-01 -0.11236476299E-01 -0.57492614356E-02  0.24541654854E-01  0.00000000000E+00 0. -1.
     999901    1    3    3    0    0  0.72215077655E-01  0.55789644462E-01 -0.10182900770E+00  0.89055973897E+00  0.88000000000E+00 0.  1.
        -11    1    4    4    0    0 -0.15519497322E-01 -0.25140975483E-01  0.36360250853E-01  0.46853520769E-01  0.51100000000E-03 0.  1.
         11    1    4    4    0    0 -0.35648480383E-01 -0.19412192679E-01  0.71218018280E-01  0.81975085404E-01  0.51100000000E-03 0. -1.
</event>
